149
Lattice="12.097594320277924 0.0 0.0 0.0 12.097594320277924 0.0 0.0 0.0 12.097594320277924" Properties=species:S:1:pos:R:3:forces:R:3 energy=-713448.875 stress="0.002302458044141531 0.0017851206939667463 -0.00030795759812463075 0.0017851206939667463 -0.0013586928835138679 -0.0009325218561571091 -0.00030795759812463075 -0.0009325218561571091 0.0003458100836724043" pbc="T T T"
Ce       9.43284628      11.81062284       9.38957013      -0.00680166      -0.00645888       0.00086325
Ce       5.80164306      11.74744667       6.14667633      -0.02751740      -0.01808900       0.00979278
S        6.19831444       9.04917086       4.64227650       0.01643139      -0.00685847      -0.01849872
S        1.70338301      11.13632670       3.34118286       0.00492650       0.00510878       0.00528231
S        4.22455206       9.93303072       4.94456279       0.01033476      -0.02590947      -0.03796938
S        4.24037486      11.64053798       3.83016391       0.01296537      -0.01210535      -0.01865305
O        6.67548108       9.42301320       3.33251313       0.01135905      -0.03857819      -0.02666554
O        1.16512765      11.39584412       4.64599061       0.01659712       0.01471990      -0.01545364
O        5.94645838       7.67154952       4.93428053       0.02475751      -0.00341997       0.01832614
O        6.99049205       9.73227307       5.72798370       0.01376262       0.02171238      -0.03502586
O        1.58494059      12.13737016       2.32751415       0.01413809       0.00823987      -0.02193409
O        1.89950323       9.76883727       2.94855818      -0.00476523      -0.00388736      -0.00740837
S        2.72905891       8.38398597       8.01850760       0.00728554       0.00814399      -0.00470138
S        1.12172989       4.74146530       5.10069431       0.00020140      -0.00247598       0.00195413
S        1.42718543       7.97114373       6.32322348       0.00696629      -0.00226426      -0.00160518
S        2.24786884       6.65484257       5.05279859       0.00664964      -0.00617984       0.00168911
O        4.05880437       8.69813289       7.49467911       0.00581241       0.01657757      -0.00466454
O       -0.26239982       5.06696319       5.40314455       0.00035048       0.00277910      -0.00333756
O        2.71620680       7.27949695       8.94952777       0.01613254       0.00951457      -0.00206017
O        1.98378277       9.56852675       8.49581026      -0.00105941       0.00478303      -0.00895008
O        1.36556326       4.37172390       3.70294972       0.00334114      -0.00385022       0.00213861
O        1.76809439       3.87735809       6.07221565      -0.00598633      -0.00450671       0.00329328
S        3.36420236       1.00253118       7.86443257      -0.01376212      -0.01137805       0.01761663
S        6.93998431       1.50562918       9.23666743      -0.00232839      -0.00695005       0.00154325
S        4.81096949       2.35696381       6.80724144      -0.01623137      -0.01324624       0.01610811
S        5.89830500       3.16955586       8.30070113      -0.00869849      -0.00882626       0.00815105
O        3.16157433       1.55087966       9.17651211      -0.00529597      -0.00970337       0.02763820
O        7.16354195       0.47335823       8.14631834      -0.01260271      -0.00954241       0.00344092
O        4.24684511      -0.20717071       7.89250330      -0.01478082      -0.01292438       0.01938771
O        2.22636505       0.85073836       7.00467788      -0.01324316      -0.00670804       0.03052315
O        8.32278153       1.86621916       9.65827114       0.00015855      -0.00574148      -0.00900978
O        6.11324882       1.03614864      10.30673268       0.00523472      -0.00373897       0.01081672
O       11.30092627       9.38142600       0.14627810      -0.00597696       0.01201582      -0.02416813
C       11.33639342       8.14687984       0.87475861      -0.00012970       0.01249093      -0.02201363
C        9.95031196       7.77131957       1.34106623       0.00445032       0.01046243      -0.01039875
H       11.73968962       7.34868780       0.24366190      -0.00330029       0.01255125      -0.02401972
H       12.00583558       8.24452667       1.73679998       0.00660965       0.01591294      -0.02794862
H        9.99287633       6.79990003       1.83579870       0.01240562       0.01089694      -0.00985979
H        9.54734588       8.49146857       2.05469330       0.00827479       0.01032253      -0.00806351
H        9.25882691       7.69468349       0.49864575      -0.00250668       0.00720730      -0.00450216
H       12.22003809       9.54213991      -0.16417723      -0.00466453       0.01553774      -0.01856349
O       11.81540173       4.50908713       1.14277547       0.00198001       0.01581132       0.03942835
C       11.10644593       3.28771346       1.30038595       0.00791027       0.00939494       0.01283820
C       12.01625090       2.12839454       1.61367089       0.01110566       0.00803429       0.00080106
H       10.35315545       3.38953325       2.08742300       0.00105268      -0.00923938       0.00867534
H       10.56310340       3.12375460       0.36523451       0.01631981       0.02235381       0.00562409
H       11.44681655       1.23520474       1.87229240       0.01238739       0.00046626      -0.02199114
H       12.66979676       1.88272459       0.77814465       0.02071258       0.02716132       0.00298798
H       12.64633347       2.36512617       2.46984150       0.00197762      -0.00453742       0.01101893
H       12.35364027       4.62409812       1.94335911      -0.00080261       0.00317107       0.04384620
O        7.75791210       0.66741136       4.98366955      -0.03156701      -0.00006373       0.01340121
C        8.53231114       1.85148656       5.35074718      -0.01873153      -0.00612375       0.00439039
C        9.94831744       1.80655317       4.83197327      -0.02278686      -0.01988054      -0.00691903
H        8.00134411       2.73384031       4.99481694      -0.01254544      -0.00193879       0.00532517
H        8.51379114       1.88365785       6.44133966      -0.01051278      -0.00228714       0.00455466
H       10.47553304       2.71401349       5.14117472      -0.01215754      -0.02472256      -0.01092930
H       10.49904546       0.93988617       5.20074890      -0.02685842      -0.02495763      -0.01219408
H        9.96888054       1.78344089       3.74168697      -0.03242321      -0.01937773      -0.00733748
H        7.93928861       0.43206022       4.03666824      -0.03301464      -0.00736161       0.01504689
O        7.91713768      11.91036678       2.36634320      -0.01774830      -0.01897550       0.01744980
C        9.00954579      11.46385061       1.56012764      -0.00900429       0.00976679       0.01447922
C        8.56868897      11.10827578       0.14318562      -0.00123373       0.01698601       0.00923684
H        9.73045395      12.27920713       1.53512205      -0.02342984       0.02294603       0.02391518
H        9.50221267      10.59951616       2.00673583       0.00539356       0.01342064       0.00607088
H        9.44187928      10.65726937      -0.36183824       0.00286803       0.02130789       0.01257226
H        7.78589514      10.34547137       0.15090469       0.00093794       0.01471353       0.00173420
H        8.16109382      11.99563206      -0.36615080       0.00015979       0.01862894       0.01130817
H        7.32007391      11.15654813       2.49797099       0.00044982      -0.03443617       0.01509033
O        3.92176208       3.24556024      11.27893939      -0.00358468      -0.00354660       0.01261157
C        2.52038260       3.53587945      11.34790977      -0.00243849       0.00303528       0.00912298
C        2.08635814       4.53297255      10.29955515       0.00285162      -0.00090581       0.00292379
H        1.95533643       2.60151781      11.27259293      -0.00641546       0.00507617       0.01220204
H        2.34341700       3.93139938      12.34672762      -0.00252694       0.00831440       0.00709826
H        1.05178940       4.83714325      10.47461911       0.00324541       0.00309030      -0.00089374
H        2.70185825       5.42757072      10.33833380       0.00535348      -0.00229502      -0.00121068
H        2.16318363       4.12891374       9.28796530       0.00303278      -0.00741349       0.00543307
H        4.06875710       2.80852537      10.43372250      -0.00531170      -0.01333074       0.01748814
O        4.50174246       1.93651266       1.54657190       0.00275795       0.00363028       0.01541531
C        4.57602110       3.25544880       2.07624734       0.00426916       0.00366974       0.01552916
C        4.66870753       3.16565086       3.57417924       0.00063117       0.00283758       0.01580960
H        5.43933799       3.78996769       1.65796955       0.00649899       0.00166082       0.01748547
H        3.68465277       3.83034043       1.81002646       0.00595093       0.00536168       0.01331411
H        4.74877004       4.15986909       4.01450208      -0.00026190       0.00254692       0.01668054
H        3.76793836       2.69408781       3.97175056      -0.00080797       0.00307921       0.01290759
H        5.54820483       2.58185017       3.86213444      -0.00047203       0.00247101       0.01835084
H        4.34463464       2.06715649       0.59544767      -0.00047636       0.00360619       0.01599815
O        7.20378515       5.22942367       5.10817339       0.00607836      -0.01071963      -0.00046891
C        7.49522395       5.62972620       3.74907898       0.00694227      -0.00550413       0.00113904
C        8.32958470       4.57197926       3.08604388       0.01136199      -0.00109628      -0.00011405
H        6.56076889       5.78794191       3.20933318       0.00714898      -0.00614916       0.00029302
H        8.03707684       6.58105863       3.75618969       0.00444436      -0.00415218       0.00487447
H        8.57891120       4.89470742       2.07464886       0.01441561       0.00321051       0.00195244
H        9.26188881       4.41802674       3.63195417       0.00992759      -0.00045283       0.00255425
H        7.78525248       3.62877960       3.00950585       0.01403934      -0.00236176      -0.00490432
H        6.47440529       5.80007021       5.38004099       0.00493082      -0.01302303       0.00075626
O       11.45431236       0.10065449       8.04491133      -0.00478864      -0.01185153       0.01354975
C       11.50348408       1.56302779       8.13639141      -0.00723669      -0.01322666       0.00169468
C       11.85428048       1.98528917       9.53866227       0.00474811      -0.00239353      -0.00450000
H       12.22019543       1.93224027       7.40238945      -0.01136872      -0.02133590      -0.00613821
H       10.51376481       1.92563023       7.82953493      -0.01275203      -0.02903976       0.00217474
H       11.86827605       3.07186220       9.61780153       0.00029003      -0.00245991      -0.00866680
H       11.12324411       1.63838954      10.29027253       0.01298229      -0.00401495       0.00156081
H       12.83374281       1.60443284       9.82233894       0.01070699       0.00459015      -0.01142645
H       12.32458596      -0.24764175       7.79071614       0.00722671      -0.00120205       0.04137146
O        7.14944525       4.83222244       9.86878588       0.01128513      -0.01608849       0.00028956
C        7.78133214       5.08753646      11.12046004       0.01348931      -0.00937762      -0.00215334
C        9.28840836       5.08097357      11.00053207       0.01331264       0.00607756      -0.00802967
H        7.42741550       6.04292898      11.52958976       0.00545537      -0.01278961      -0.00103198
H        7.42989852       4.30814906      11.80111314       0.02454339      -0.01309460      -0.00053728
H        9.77716166       5.23607608      11.96163668       0.01515078       0.01091389      -0.00947851
H        9.62224788       4.12787923      10.58950084       0.02158447       0.00958101      -0.00968935
H        9.62822535       5.87125853      10.32692650       0.00234791       0.00953095      -0.00942484
H        7.65865540       5.23839551       9.14208922       0.00419145      -0.00999828      -0.00135988
O        8.44223281       5.78134495       7.55937265      -0.00315039       0.00149232       0.00010532
C        8.88448073       7.12947471       7.51927766      -0.00494027       0.00172380      -0.00708389
C       10.04063978       7.36631424       6.57870122      -0.00734472      -0.00071948      -0.01073182
H        8.03680117       7.78146569       7.24534582      -0.00584972       0.00028357      -0.00821120
H        9.19789164       7.34984843       8.55121599      -0.00247526       0.00616989      -0.00854567
H       10.39737195       8.39717741       6.65711535      -0.01489322       0.00274074      -0.02104827
H       10.87161567       6.70118577       6.79893376      -0.00275284       0.00639418      -0.00623270
H        9.74756831       7.19279910       5.54283381      -0.00838175      -0.01283967      -0.00849903
H        8.14337520       5.53401057       6.65924813       0.00004284      -0.00433430       0.00049922
O        4.90032218       6.75056434       1.81107440       0.00360194      -0.00128883       0.00049931
C        3.96765406       6.57771684       0.73447564       0.00457561       0.00088982      -0.00074698
C        2.53733109       6.57903987       1.21649983       0.00399882       0.00481759      -0.00207406
H        4.10751952       7.37155125      -0.00776565       0.00787562      -0.00013971      -0.00128454
H        4.23278824       5.63255552       0.25698104       0.00289598      -0.00031000       0.00060037
H        1.85478648       6.42239316       0.38113219       0.00367342       0.00632022      -0.00209896
H        2.37283128       5.79761744       1.96044039       0.00136608       0.00514929      -0.00243180
H        2.28764644       7.53975750       1.67244886       0.00650053       0.00545153      -0.00162715
H        4.47034528       7.28877135       2.48307207       0.00674285       0.00833504      -0.00514597
O        8.02175496       9.81590451       9.06183554       0.00231405      -0.00399423       0.00198588
C        6.56998111       9.66165620       9.29946641       0.00252068      -0.00524499      -0.00116179
C        6.24410113       8.29684694       9.82994271       0.00471649      -0.00271314       0.00613645
H        6.30386425      10.46468920       9.98588941      -0.00162165      -0.00130889      -0.00708079
H        6.05584453       9.82689021       8.34807084       0.00571606      -0.01239313      -0.00442049
H        5.16194093       8.20457891       9.91817499       0.00461945      -0.00586243       0.00176916
H        6.55229399       7.51329630       9.13673260       0.01143833      -0.00594658       0.01261623
H        6.69825685       8.12283986      10.80565467       0.00103024       0.00588716       0.00946322
H        8.31699875       8.99837693       8.63108834       0.00459200      -0.00363237       0.00284940
O        1.73980446       9.68828824      -0.80976059       0.01001003       0.00472128      -0.00875974
C        2.62885800      10.76252214      -0.47754294      -0.00629336       0.02205688      -0.02078256
C        3.92515570      10.29151406       0.15963382      -0.01792455       0.01069796      -0.01663563
H        2.84561581      11.34437817      -1.37797465       0.00034560       0.01873180      -0.02273351
H        2.10049667      11.40303732       0.22603035      -0.01196364       0.02902687      -0.03112403
H        4.51428046      11.16288293       0.45948429      -0.00744221      -0.00089984      -0.01005593
H        3.73126756       9.69536903       1.05180178      -0.04183840       0.00725718      -0.02459137
H        4.51614986       9.68871683      -0.53071433      -0.03184443      -0.00001836      -0.01913549
H        1.86705358       9.45861903      -1.74829368      -0.01254653       0.03314338      -0.01834818
