149
Lattice="12.46368134805984 0.0 0.0 0.0 12.46368134805984 0.0 0.0 0.0 12.46368134805984" Properties=species:S:1:pos:R:3:forces:R:3 energy=-142278.875 stress="-0.00043898800504393876 -0.0006131079280748963 0.00014057418593438342 -0.0006131079280748963 -0.00020366882381495088 0.0005602268211077899 0.00014057418593438342 0.0005602268211077899 0.0013724073069170117" pbc="T T T"
Cr       8.89586758      11.58137996      11.02678387      -0.00347654      -0.00010768      -0.00561774
Cr       9.30542265      12.26824907       0.19944852       0.00032580       0.00026360      -0.00678293
O       12.13836606       9.93075094       0.07142364      -0.00041667      -0.00655487      -0.01298243
O       10.89786195      12.50725866       0.36278574       0.00159311      -0.00690088      -0.00925642
O       11.96669712      10.66307855       2.26804486       0.00160644      -0.01109445      -0.01965511
C       12.04533472      10.32330308       1.16759100      -0.00135505      -0.00067817       0.00818825
O        6.04463562      11.17416534       6.18385595       0.00079012       0.00676876       0.01993704
O        8.15511840      11.17879919       6.82534459       0.00514686       0.00518271       0.00639534
O        7.55158299      12.22648208       4.97396720      -0.00489324       0.00038064       0.00698805
C        7.24095967      11.52617375       5.97702755       0.00025731       0.00405698       0.01102188
O        5.82174740      12.03150890       0.58537593       0.00111830       0.04937199      -0.00416583
O        7.74411698      10.88278835       0.09500508      -0.01842439       0.01827127      -0.00561368
O        7.52389037      12.92529289      -0.65084061       0.01036283       0.01843986      -0.01349506
C        6.89813997      11.95121862       0.05288048      -0.00187874       0.03042837      -0.00853275
O        1.42338942       3.72875370       9.97139757      -0.01067251      -0.00126392      -0.00971267
C        2.13420610       2.56513654       9.53635454      -0.00745818      -0.00107616      -0.00517097
C        2.20491553       1.49890463      10.61405421      -0.00498777       0.00342318      -0.00091147
H        1.67927292       2.17203255       8.62148692      -0.00625125      -0.00572562      -0.00380364
H        3.14088330       2.90316563       9.28646990      -0.00814575       0.00012350      -0.00663152
H        2.73404275       0.62116072      10.23543065      -0.00166214       0.00366370       0.00305821
H        2.74641677       1.86456930      11.48720521      -0.00689892       0.00855428      -0.00183913
H        1.20973947       1.18116497      10.93198682      -0.00426044       0.00143018      -0.00037860
H        0.50393059       3.63349996       9.71212700      -0.00882877      -0.00115770      -0.01631790
O        4.61951354       2.31352355       0.64650687      -0.01085526      -0.00648749      -0.00423959
C        4.43285198       3.15053702       1.77873056       0.00918107      -0.00593249      -0.00232023
C        4.37478907       2.42646833       3.10917155       0.00956420      -0.00519788      -0.00158381
H        5.23027606       3.90875018       1.80926778       0.01922461      -0.01609680      -0.00727727
H        3.49728711       3.68597843       1.59561361       0.01453081       0.00638084       0.00579602
H        4.32854474       3.14735636       3.92901009       0.01767450      -0.00406139      -0.00201294
H        3.50124763       1.77879957       3.17733631       0.00482634       0.00160965       0.00235127
H        5.26178669       1.80662435       3.26475738       0.00535233      -0.01187426      -0.00444948
H        5.18440762       1.55756369       0.86272610      -0.01261805      -0.01174630      -0.01453640
O        7.71613651       5.01960180       1.95381417       0.00388801      -0.00869545       0.02001232
C        7.58233943       4.42697951       3.25773616      -0.00143733      -0.00709014       0.02020885
C        6.79115503       5.29848754       4.19916591      -0.00980723      -0.00813156       0.01429105
H        7.12894732       3.43681857       3.15775625       0.00223976      -0.00867224       0.01886918
H        8.60628103       4.28556499       3.60518116      -0.00300625      -0.00326989       0.02638319
H        6.67090422       4.81879842       5.17097317      -0.01603751      -0.00796270       0.01369926
H        7.26982740       6.26777608       4.33299906      -0.01276521      -0.00701720       0.01761942
H        5.78402489       5.46270562       3.80596559      -0.00728433      -0.01030670       0.00676108
H        6.85629252       5.35753625       1.68301695       0.00383523      -0.01340852       0.01403896
O       11.17781827       2.19035289       7.97539914      -0.00475273      -0.00288111      -0.00591177
C       11.28054071       1.06641930       8.82332087      -0.00011742      -0.00167233      -0.00473028
C        9.90982324       0.54711207       9.28394402       0.00177634      -0.00385665      -0.00194310
H       11.85229399       0.25695534       8.35553089       0.00068231      -0.00079572      -0.00520214
H       11.84287577       1.40569644       9.69408233       0.00080529       0.00071563      -0.00622675
H       10.23406348      -0.05793686      10.16971433       0.00333744      -0.00490787      -0.00301019
H        9.28619090       1.38171254       9.60043051       0.00180142      -0.00444788      -0.00009674
H        9.40523140      -0.05602085       8.52271369       0.00077349      -0.00346069      -0.00171891
H       10.79221798       1.91473069       7.13819160      -0.00685599      -0.00512059      -0.00433268
O        8.84459089       5.44285863      11.13769474       0.00176582       0.01332968       0.01175370
C        8.55689083       4.06811280      11.35362495       0.00393218       0.01272070       0.00767852
C        9.73719985       3.31734288      11.93639923       0.00457448       0.01031505       0.00404841
H        7.68836737       3.95185483      12.01427342       0.00429559       0.00879943       0.00789481
H        8.27633389       3.66312436      10.37849332       0.00377963       0.01569575       0.00646544
H        9.46180365       2.28171693      12.17642867       0.00766846       0.00580666      -0.01253972
H       10.57768324       3.28948732      11.24100500       0.00805318       0.02414520       0.00763939
H       10.07016484       3.78637564      12.86368448      -0.00196616      -0.00143857       0.01230764
H        9.20453880       5.81599301      11.95853142       0.00110301       0.01366898       0.01258263
O       10.49886268       7.34834449       6.84754133      -0.00152272       0.00562608      -0.00086939
C        9.65627481       6.39984579       6.22699971      -0.00473890       0.00646520       0.00186694
C        9.93573902       5.03605534       6.81484210      -0.00372073       0.00661975       0.00174963
H        8.59988782       6.66402773       6.37282692      -0.00408137       0.00726086       0.00525562
H        9.83431826       6.37825389       5.13987926      -0.00809674       0.00625619       0.00129879
H        9.30471822       4.27785316       6.34650838      -0.00352151       0.00604012       0.00246123
H       10.98216414       4.76368553       6.66986109      -0.00358142       0.00763651       0.00109022
H        9.73229438       5.02736399       7.88640621      -0.00321567       0.00683900       0.00180572
H       10.31421465       8.22300140       6.43726098       0.00050109       0.00501242      -0.00278756
O        1.20008713       8.06568675       2.02996926       0.00042218      -0.00775680      -0.01049697
C        2.48028410       7.99066302       2.65773439      -0.00361988      -0.00311133      -0.00129214
C        2.80469044       6.59427431       3.13852659      -0.00415656      -0.00078398       0.00615203
H        3.26092551       8.34311752       1.97184761       0.00035822      -0.00428918       0.00257149
H        2.43754330       8.69852463       3.48574758      -0.01060260       0.00010023      -0.00442258
H        3.76730026       6.58207882       3.65222940      -0.00708044       0.00279419       0.01182039
H        2.04337193       6.23312401       3.82914874      -0.00754574       0.00066516       0.00321461
H        2.86520740       5.90238709       2.29426341       0.00185347      -0.00412619       0.00930417
H        1.15144596       7.36793662       1.36977362       0.00880516      -0.00628911      -0.01253511
O        5.58818789       9.13560760       9.88124455       0.01246932       0.00498371       0.00338840
C        6.15299843      10.34015877       9.36800020       0.00751491       0.00455219      -0.00230527
C        5.21284741      11.51618648       9.46213338       0.00670967       0.00381163      -0.00117755
H        7.10163135      10.55462649       9.91830621       0.01105934       0.00756383      -0.00867474
H        6.43839124      10.14538623       8.33588694       0.00259420       0.00281784      -0.00337446
H        5.70714412      12.42260438       9.11422519       0.00432283       0.00299931      -0.00661725
H        4.34248510      11.34855420       8.82779828       0.00417897       0.00112345       0.00299956
H        4.88350083      11.68506800      10.49060520       0.01068344       0.00676797      -0.00042671
H        5.19334927       9.32545021      10.73762683       0.02038029       0.00442185       0.00719818
O        2.18243576      11.88111804       2.99377006       0.00026268      -0.01721409       0.00365251
C        3.22121862      11.67743373       2.03748880       0.00048685      -0.00295696       0.00116819
C        2.72479123      11.06086389       0.74750872       0.00431153      -0.00003615      -0.00193149
H        3.72667001      12.61622208       1.81154136      -0.00780350       0.00259209       0.00566083
H        3.95125965      11.03470331       2.53040555       0.00648469       0.00034061      -0.00331479
H        3.56535440      10.91534333       0.06774643       0.00523387       0.00852575      -0.00280876
H        2.23854806      10.10239188       0.92483793       0.01020727      -0.00398010      -0.00632526
H        2.01564565      11.72640109       0.24792676       0.00023426      -0.00212672       0.00110392
H        1.44059075      12.29803830       2.54641958      -0.00204288      -0.01605310       0.00834766
O        5.31798551       4.04292562       9.81101763       0.00024961       0.00037742      -0.00955859
C        5.24924702       5.43894009      10.12553084       0.00387454      -0.00096691      -0.00189239
C        4.20599317       5.73564561      11.18284963       0.00112134      -0.00403138      -0.00379640
H        6.23480143       5.80560465      10.43374472       0.00411785      -0.00617510       0.00372910
H        4.99451798       5.93163932       9.18646546       0.00887008       0.00499818      -0.00000668
H        4.14233194       6.81339983      11.35052610       0.00485611      -0.00478022       0.00288909
H        3.22563669       5.36458748      10.88161358       0.00074533       0.00188893      -0.00986505
H        4.47281850       5.26166023      12.13183139      -0.00446720      -0.01149298      -0.00587255
H        5.40935375       3.54913670      10.63441160      -0.00007929      -0.00455128      -0.01251222
O        5.16812738       7.79321248       7.37721115      -0.00081784      -0.01252294       0.01305464
C        4.12661903       8.46767916       6.68110256       0.00756061      -0.01037751       0.00237519
C        2.84085689       7.65846044       6.69935316       0.00071061       0.00030380       0.00576995
H        3.96942727       9.46779555       7.09590377       0.01448133      -0.00482684      -0.00813928
H        4.47174526       8.62074681       5.65511202       0.01174662      -0.02380897       0.00177002
H        2.05186966       8.14997245       6.12529063       0.00687891       0.00134303      -0.00188822
H        3.01615544       6.66910815       6.27507998      -0.00584493      -0.00513756       0.01573759
H        2.48103642       7.52350304       7.72115370      -0.00395665       0.01320395       0.00584325
H        5.19145547       8.12979455       8.28225397       0.00516686       0.00220935       0.00739194
O       10.10692506      10.04240235      10.52526786      -0.00753260      -0.00586357      -0.00017250
C        9.64462200       8.67860737      10.20981737      -0.00224832      -0.00750361      -0.00219293
C       10.83199891       7.77488132      10.03988420       0.00149521      -0.00360420       0.00154649
H        8.98164819       8.35525353      11.01421050      -0.00349706      -0.01038140      -0.00453991
H        9.07487778       8.79072688       9.28984490       0.00040977      -0.00970900      -0.00413361
H       10.47172606       6.77315746       9.81811566       0.00497533      -0.00551206       0.00427721
H       11.45717413       8.10278584       9.21237066       0.00184418      -0.00363234       0.00186250
H       11.41645323       7.72635459      10.96105326       0.00023472       0.00038265       0.00270888
H       10.83265482       9.99033751      11.17241056      -0.00627899      -0.00399494      -0.00254089
O        9.77613102       6.58358600       1.23228767      -0.01806355      -0.00275105      -0.01640940
C       10.12949621       7.72071664       2.01664723      -0.00750229      -0.00772172      -0.01436791
C        8.93459376       8.46457822       2.57676779      -0.00190598      -0.00207236      -0.00977290
H       10.80993255       7.43174169       2.82713538      -0.00797278      -0.01616593      -0.01696146
H       10.69738839       8.35995947       1.34326798      -0.00423099      -0.00945821      -0.01331884
H        9.24975496       9.38355880       3.07499459       0.00779246      -0.02017112       0.01767942
H        8.22403024       8.71161130       1.78721254       0.01007433       0.02820107      -0.01134209
H        8.42545113       7.86656190       3.33413628      -0.01971799      -0.01509911      -0.03179896
H        9.05401244       6.09789521       1.67339497      -0.00800614      -0.00821958      -0.00536077
O       10.06102124       9.74404259       5.68191532       0.00160247       0.00529784      -0.00882614
C       11.25103780      10.51649151       5.72965762       0.00098997       0.00643492      -0.00376268
C       11.02485119      11.94781859       5.28169735       0.00118634       0.00571787      -0.00632066
H       11.67320096      10.50180791       6.74633757      -0.00443229       0.00772174      -0.00145578
H       11.97283386      10.02384721       5.07450761       0.00483707       0.00661933       0.00039452
H       11.97100259      12.49438698       5.27639649      -0.00036058       0.00856686       0.00200121
H       10.59496913      11.97188285       4.28037527       0.01029837       0.00413884      -0.01031241
H       10.31122738      12.44231459       5.94455059      -0.00641260       0.00358045      -0.01269868
H        9.32926096      10.26695086       6.10854296       0.00228564       0.00310424      -0.00558046
O        5.38348417       3.53851660       6.70844708      -0.01212318      -0.00277710       0.01412937
C        5.70107171       2.16501794       6.93919665      -0.00189191      -0.00180799       0.00510477
C        7.12747773       1.98862393       7.41911029      -0.00062382       0.00632928       0.00497945
H        4.99925704       1.73949252       7.66620712       0.00103083      -0.01216455       0.00197810
H        5.55150010       1.64009515       5.99554900       0.00254546       0.00246021       0.00193650
H        7.32781664       0.94505981       7.66082048       0.00769699       0.00662914      -0.00072394
H        7.83181544       2.28539982       6.64067965      -0.00253798       0.01682384       0.00714137
H        7.30283104       2.59801949       8.30839905      -0.00575211       0.00288782       0.00833100
H        5.39422371       3.96640456       7.57297536      -0.01591829      -0.00948472       0.01775049
