137
Lattice="13.091123714398515 0.0 0.0 0.0 13.091123714398515 0.0 0.0 0.0 13.091123714398515" Properties=species:S:1:pos:R:3:forces:R:3 energy=-218964.484375 stress="0.0008472508052363992 -0.000395332055632025 -3.3032729334081523e-06 -0.000395332055632025 -0.00048343089292757213 -5.1465194701449946e-05 -3.3032729334081523e-06 -5.1465194701449946e-05 -0.00031335573294200003" pbc="T T T"
Cr       3.35317914      11.95534493       6.13375515       0.01742058       0.00122696      -0.01855537
Cr       9.44512416      12.57655896      11.56516720      -0.00580633       0.00296338      -0.00258151
O        2.74318935      11.58571906       7.71294803      -0.00078231       0.02829000      -0.02416274
O        4.99301954      11.76365199       6.64088824       0.01169571      -0.00654351      -0.00463410
O        4.76289643       9.97173181       8.88112048      -0.03098008       0.01184630      -0.01887679
O        4.89344618      12.56413318       9.29164538      -0.02319422       0.00736535      -0.00443614
Cr       4.43914818      11.40739457       8.32077161      -0.00926983       0.01007771      -0.00809205
O        7.84760655       8.34222245       5.33008160       0.00621390      -0.01199937       0.00897989
O        6.52453041       6.30811335       6.46488076       0.02282228      -0.02383637       0.00293684
O        6.60663237       6.50563206       3.80593892       0.01043087      -0.01171529       0.00295711
O        5.16045204       8.27179956       5.26850540       0.00814152      -0.02387404       0.01466468
Cr       6.52692938       7.36544680       5.21243372       0.01156317      -0.01836216       0.00717903
O        0.71423800      12.46716729       3.76954413      -0.00129795       0.04622666      -0.00040728
O        2.83200486      13.43332901       5.41498880       0.01381772       0.00309268      -0.01528231
O        3.09872163      12.82691568       2.65483567       0.00519186      -0.00598890      -0.00778115
O        2.87036474      11.00866112       4.78735584       0.00039331       0.00050095      -0.01579253
Cr       2.27641088      12.50035056       3.95500344       0.00173527       0.00619090      -0.00749874
O        7.64022798      11.98810170      10.94842099      -0.00571331       0.00520274      -0.00482881
C        8.72087948      11.34877476      10.33702844      -0.00582547       0.00714129      -0.00755116
C        6.76472991      11.14674665      11.79282506      -0.00446962       0.00023246      -0.00948794
C        9.28629454      12.22464886       9.28494672      -0.00317410       0.01090495      -0.00258829
C        5.61989168      11.99069975      12.27431410       0.00845242       0.00210541       0.01548070
H       10.42513734      11.35790376      11.48633892      -0.00740749       0.00140228       0.00006556
H        8.67536349      10.27269690      10.25993449      -0.00660106       0.00764145      -0.01257773
H        6.42393458      10.33650422      11.14698574      -0.01962405       0.01404253      -0.01836863
H        7.38572156      10.73909068      12.59470767      -0.00135791      -0.01776455      -0.02130160
H       10.09029423      11.72715696       8.74486395      -0.00304517       0.01180814      -0.00335647
H        8.52939550      12.62347793       8.60657177      -0.00045401       0.01592696      -0.00262439
H        9.75643167      13.14380078       9.75120574      -0.00141895       0.00761051       0.00254917
H        4.95765189      11.37840884      12.88275489       0.00117792      -0.00666128      -0.00102492
H        5.94989567      12.82772091      12.88754074       0.02253865      -0.02040944       0.03833431
H        5.06788154      12.37665535      11.42204659       0.01178712       0.03338744       0.02790907
O        8.74717757       6.75267383       8.65927590       0.01870465       0.00084402       0.00768042
C        9.63951327       5.90773758       7.97155660       0.00064315      -0.00170624      -0.01386467
C        8.74857113       8.08612630       8.17834568       0.00402325       0.00018311       0.00548943
C        9.13378664       4.48958357       8.09211326      -0.00031680      -0.00031441      -0.00274565
C        7.43624574       8.72212243       8.55404938      -0.00090015      -0.01061344       0.00914237
H        9.68170816       6.19943535       6.91456839      -0.02327073      -0.00110993      -0.01431793
H       10.65646009       6.00030430       8.39107066       0.01048189      -0.00535589      -0.03745857
H        9.61159628       8.63173207       8.60448200      -0.00054884       0.01005840       0.00192592
H        8.83023984       8.10299532       7.08108442      -0.00024347       0.00036136       0.00511396
H        9.83392993       3.79062036       7.62978795      -0.01288920      -0.00259995      -0.01836249
H        9.01087384       4.21322219       9.14100181       0.02257186      -0.00107937      -0.00023954
H        8.16668054       4.41951481       7.59480517      -0.01139519       0.00306690       0.01844329
H        7.41874291       9.76503113       8.23476002      -0.01150044      -0.01214498       0.00462067
H        6.63086833       8.20549964       8.03647846       0.00144249      -0.01993541       0.01475868
H        7.24563958       8.66388131       9.62855867       0.00470499      -0.00682952       0.01044516
O        2.20546321       7.17581532       5.82804163      -0.01673794      -0.02010548       0.00317931
C        1.76505835       7.99988282       4.76269179      -0.01124646      -0.02171542      -0.00055939
C        2.42015698       7.90623210       7.02356844       0.01549041      -0.01422966      -0.00560582
C        2.44192384       7.58319304       3.47642640       0.00592324      -0.01031667       0.00450104
C        3.21599862       7.06836239       7.99172344       0.01148194      -0.02389517      -0.01045504
H        0.66783380       7.94470147       4.67432911      -0.00895697      -0.03825726      -0.01084422
H        2.02160152       9.03881826       4.96997425      -0.02386180      -0.01890320       0.00344539
H        2.98506133       8.81557860       6.78768978       0.03205782      -0.02817351      -0.01979847
H        1.45263275       8.20919244       7.45936405       0.02713317       0.00712523       0.00496736
H        2.15081818       8.26536906       2.67344403       0.00545952      -0.00969638       0.00456179
H        3.52306783       7.63563972       3.61721188       0.00396913      -0.00038085       0.01553532
H        2.16220871       6.56917114       3.18520498       0.02198835      -0.01396438       0.00141011
H        3.32763862       7.61509496       8.92936949       0.02835911      -0.02607764      -0.01142761
H        2.71130101       6.12165934       8.19241523      -0.00218497      -0.01450005      -0.00216886
H        4.20826949       6.86856364       7.58456001       0.00450194      -0.04153351      -0.01873061
O        6.19304783       2.26285452      11.03762560       0.00662398       0.01640111      -0.00565243
C        7.23823012       2.91500012      11.71449862       0.00509334       0.01319909      -0.00007036
C        5.31080021       3.19012667      10.41074935       0.00323111       0.02024226       0.00508407
C        8.21156343       1.87212211      12.22937326       0.00454961       0.01064056      -0.00484893
C        4.18233589       2.43754997       9.75506268       0.00307903       0.02454373       0.00073890
H        7.75063272       3.61640921      11.04137675       0.00548002       0.01838797       0.00551814
H        6.84802465       3.50146379      12.55909365       0.00274983       0.00713617       0.00309750
H        4.92681122       3.89097608      11.16607975       0.00398257       0.01245055       0.01247567
H        5.86887844       3.77944993       9.67142941      -0.00020421       0.02844295       0.00924036
H        9.06032169       2.33790936      12.73227385       0.00102979       0.00759445       0.00362571
H        7.71708736       1.18485394      12.91705768       0.00153302       0.00435415      -0.01328722
H        8.57635052       1.32492380      11.34059296       0.01128451       0.01741808      -0.00643347
H        3.49394104       3.14403610       9.29115556       0.00148595       0.02858642       0.00870281
H        4.55963720       1.76160184       8.99185124       0.00392336       0.03211124      -0.00546223
H        3.63876710       1.83759560      10.48535316       0.00484844       0.01700349      -0.00424117
O        9.74122500       9.91644199       1.16630388      -0.00707620       0.01031916       0.00919656
C       10.30717078       8.61327281       1.24650438      -0.00625160       0.01025528       0.00834495
C       10.71448335      10.93278358       1.08859450      -0.00744320       0.01031071      -0.00002334
C        9.18708130       7.61021694       1.35018216      -0.00415307       0.00854862       0.01563582
C        9.97142432      12.23934216       0.86506446      -0.00758451       0.00900453      -0.00596972
H       10.91834775       8.43576987       0.34736934      -0.00934356       0.00813762       0.00672472
H       10.98184721       8.55523579       2.11188995      -0.00142902       0.01193606       0.00456429
H       11.31428717      10.97838779       2.00659525      -0.00466421       0.01772553      -0.00235242
H       11.39359765      10.74277783       0.24627392      -0.01058120       0.00437719      -0.00084656
H        9.59253722       6.59748221       1.37137924      -0.00062220       0.00993276       0.01596236
H        8.58796903       7.75909044       2.24959685      -0.00003757       0.00844634       0.01837769
H        8.53418911       7.68947218       0.47985519      -0.00929165       0.00391520       0.01891856
H       10.61625725      13.01229780       0.43129250      -0.00901606       0.00792149      -0.01061016
H        9.07709148      12.01321029       0.24224555      -0.00847337       0.00405446      -0.00299251
H        9.54245428      12.64844803       1.78134551      -0.00438085       0.01344576      -0.00648931
O       11.92398850       3.49266678       3.24800300       0.00501773       0.00086862       0.00321317
C       12.15475703       3.96971764       4.56355577       0.00354649      -0.00032547       0.00401175
C       11.74620559       4.54565374       2.32667312       0.00164172       0.00153156       0.00491059
C       12.31664469       2.78463409       5.48199502       0.00581072      -0.00167412       0.00169826
C       11.44108777       3.94369640       0.97556833       0.00002879       0.00314063       0.00452381
H       13.05219489       4.60412940       4.57757801       0.00288397       0.00050452       0.00567538
H       11.30664313       4.59664820       4.87728545       0.00269973      -0.00134096       0.00385678
H       10.92357252       5.19580813       2.65717623       0.00096816      -0.00049493       0.00728364
H       12.65383436       5.16639682       2.28185347       0.00042713       0.00330994       0.00397080
H       12.47817105       3.12767432       6.50453383       0.00494295      -0.00354123       0.00244869
H       11.42246569       2.16178501       5.45971289       0.00744683      -0.00392586      -0.00017645
H       13.16582992       2.17160165       5.18229886       0.00729443       0.00122431      -0.00010210
H       11.29316299       4.72457055       0.22854088      -0.00382926       0.00414877       0.00640214
H       12.25804740       3.29796685       0.65137241       0.00066762       0.00581726       0.00093094
H       10.53148334       3.34528335       1.03802861       0.00159761       0.00080243       0.00516225
O        6.07171335       2.86438627       4.31419510      -0.00297512       0.00022501       0.00086260
C        5.10201525       3.90620940       4.41367718      -0.00653237      -0.00331578      -0.00280356
C        7.10132823       3.04529956       5.26189362      -0.00438178       0.00518212       0.00183165
C        4.06754381       3.70908707       3.33588250      -0.00546610      -0.00996715      -0.00256652
C        8.10265528       1.92433477       5.10106760      -0.00255331       0.00693369       0.00277941
H        4.64433351       3.88423087       5.41323337      -0.00555870      -0.00079671      -0.00216925
H        5.60237754       4.87999097       4.30079379      -0.00985241      -0.00221336      -0.00735691
H        7.56285235       4.03424216       5.12907300      -0.00659174       0.00622016       0.00209188
H        6.67434133       3.03660997       6.27729706      -0.00599486       0.00543560       0.00103742
H        3.29714798       4.47369867       3.43965829      -0.00777715      -0.01208273      -0.00470595
H        4.52287882       3.80955952       2.34922070      -0.00544202      -0.01066137      -0.00273560
H        3.59995728       2.72561857       3.40161839      -0.00258409      -0.01103318      -0.00030812
H        8.89531268       2.01891520       5.84531533      -0.00102989       0.00888273       0.00083297
H        7.61979144       0.95468103       5.23046742      -0.00148378       0.00665687       0.00454986
H        8.55760982       1.95304213       4.10962459      -0.00472825       0.00660709       0.00179069
O        6.01801654       9.14803984       2.26973258      -0.00652352      -0.01104337       0.00004464
C        5.61913804       8.68676278       1.00742945      -0.00727616      -0.00717133      -0.00067681
C        5.99900247      10.55586921       2.38517517       0.00000086      -0.01135415       0.00253320
C        5.49480371       7.18134190       1.03336271      -0.00811921      -0.00701183      -0.00182575
C        6.44660251      10.94364366       3.77103290       0.00045142      -0.01831020       0.00411975
H        4.65877853       9.14960998       0.72112045      -0.00707561      -0.00580826       0.00001718
H        6.36136322       8.98544748       0.24887149      -0.00680435      -0.00643674      -0.00024080
H        6.66670950      10.99975222       1.62746343       0.00307816      -0.01301345       0.00426388
H        4.98347100      10.93257479       2.18708093       0.00189304      -0.00684442       0.00214958
H        5.31815904       6.81043272       0.02089371      -0.00825344      -0.00666264      -0.00167246
H        6.39681237       6.73504593       1.44876585      -0.00812224      -0.00716684      -0.00178638
H        4.67643225       6.87130531       1.67974648      -0.00874829      -0.00716973      -0.00276956
H        6.37335105      12.02721432       3.88799921      -0.00314586      -0.01948057       0.01179899
H        5.82262700      10.44858821       4.51445643       0.00257480      -0.02558337       0.00111204
H        7.46979014      10.61592999       3.95758218       0.00169004      -0.01613800       0.00117619
