150
Lattice="16.284281221699835 0.0 0.0 0.0 16.284281221699835 0.0 0.0 0.0 16.284281221699835" Properties=species:S:1:pos:R:3:forces:R:3 energy=-1118935.375 stress="-0.000909188820514828 -0.0001479997517890297 9.542205589241348e-06 -0.0001479997517890297 -0.0005935964290983975 -2.2214730819314354e-06 9.542205589241348e-06 -2.2214730819314354e-06 -0.0009582130005583167" pbc="T T T"
Cr       5.31700861      14.98873520       7.04743897      -0.00006256      -0.02401096       0.00104141
Cr      -0.77949052      15.42941224       5.11057976       0.00007990      -0.00290951       0.01920728
P        7.40837325      13.99430968       5.91694283       0.01010638      -0.00403604       0.00334543
O        7.40570288      13.92210081       4.32717449       0.01521343       0.01029392       0.00323480
O        6.02084861      13.38620083       6.39195311       0.00338471      -0.00706321      -0.00845400
O        7.04486270      15.45282877       6.37233641       0.01282555      -0.01084721       0.01676530
O        8.63561556      13.38402110       6.42673708       0.00159144      -0.02210617       0.00236905
H        6.54918528      14.17167373       3.95270419       0.02596060       0.04157237       0.00112089
P       10.88993477      15.62190848      13.12625625      -0.01560187       0.01538450       0.00807863
O       10.54424088      16.08669962      11.67032417       0.00592399       0.00337785      -0.00813800
O        9.58375967      15.39987095      14.00849419       0.00183593       0.00892362      -0.00863551
O       10.46157902      16.72616107      14.19102752      -0.00318274       0.00326041      -0.00793916
O       12.08279931      14.79561336      13.18339801       0.00897916       0.00113383       0.00125380
H        9.83190086      16.73938831      11.63240314      -0.00005919       0.00726712      -0.00623028
P       13.29865492      14.25196141       5.40218471       0.00052643      -0.00697156       0.00487001
O       13.53129980      12.92762228       6.22683166      -0.00229931      -0.00796747       0.00364496
O       14.01879215      15.40393101       6.22296027      -0.00594270      -0.00772217       0.01090384
O       11.92593606      14.43924885       4.93229826       0.00284833      -0.00823340      -0.00188947
O       14.45542662      14.29350500       4.24749051       0.00682464      -0.00367765       0.01217151
H       12.76579017      12.32753724       6.18648552      -0.00038457      -0.00976139      -0.00287074
Cl       7.19208289       4.21442877      -0.00800769       0.00011972       0.00780627      -0.00016491
Cl       6.90431285       6.05472449       2.23680306      -0.00834036       0.00324379       0.00204891
Cl       5.41757620       6.52262709      -0.22989168      -0.00161483       0.00523993      -0.00151056
C        6.08861277       5.30933439       0.85757907      -0.00326727       0.00463622      -0.00159492
H        5.27608985       4.70415727       1.24157599      -0.00364339       0.00347701      -0.00468333
Cl      14.38462271       1.85542355       0.07127369       0.00223088       0.00088726       0.00315559
Cl      13.44509687       3.44185100       2.33673755      -0.01208723      -0.00727621       0.00252791
Cl      11.93210577       3.41252552      -0.16582992       0.00664614       0.00558695      -0.00875604
C       12.95485417       2.48544315       0.92164776      -0.00308012      -0.00043319      -0.00506412
H       12.39435666       1.63294859       1.28727321      -0.00701125      -0.00106436      -0.01288404
Cl      14.23840637       6.84457318      17.11098047      -0.01951712      -0.00397930      -0.01748206
Cl      14.45995390       9.57833025      16.10441633       0.00035161       0.00677645       0.01710417
Cl      13.65287771       7.42726156      14.30838118       0.02925483       0.02384228      -0.01918578
C       13.59750579       8.04232539      15.96699282       0.00136703       0.00907309      -0.01502607
H       12.55958889       8.20914951      16.22869644      -0.00235564       0.01034007      -0.03161959
Cl       4.33869714      12.52759573       1.53464220      -0.01162586       0.00357065      -0.01593240
Cl       3.29984761       9.91322040       0.74951529       0.00073057      -0.00758509       0.00667703
Cl       6.07439654      10.18551911       1.60649276       0.00174505       0.01383436      -0.00429782
C        4.42654989      10.77458919       1.81287507      -0.00073744       0.00643730      -0.00322531
H        4.12424140      10.59357770       2.83740232       0.00377826       0.01199164      -0.00107709
Cl      10.12721291       4.35825252      10.60435946       0.00120818       0.00608674      -0.00258449
Cl       8.50361371       4.62620723      13.02419909       0.01636550      -0.01059383       0.00829406
Cl      11.39631069       4.95438125      13.15101087       0.01498699       0.00939097      -0.00990871
C        9.94337038       5.17316440      12.16149791       0.00692000       0.00143382       0.00025251
H        9.82450882       6.23307118      11.97019965      -0.00121868       0.00103685       0.00365340
Cl       1.76926843       5.55393651      16.51636015      -0.00202966       0.00603996       0.00951832
Cl      -0.15234588       4.65610244      14.52057473       0.00337639       0.00350648       0.00601387
Cl       1.42258748       2.70553590      16.02196662       0.00418255       0.00607733       0.00770622
C        0.61086585       4.29737111      16.06234299       0.00142017       0.00401439       0.00696780
H       -0.15887858       4.24585492      16.82500078       0.00017284       0.00237447       0.00546379
Cl       9.72277849      10.77091844       9.33371187      -0.02612375       0.00426769      -0.01181883
Cl       8.64793453       8.78178479      11.18068216       0.01571673      -0.00014611       0.01038870
Cl       9.56400212       7.97270927       8.52813215       0.00058158      -0.00458845       0.00593466
C        9.81004666       9.09967514       9.87333194       0.00002633       0.00641666      -0.00263705
H       10.80178550       8.92236856      10.27100056       0.00675008       0.02151002      -0.01171207
Cl       4.79646312       3.48571181      13.40327787       0.00244313       0.00089733       0.00129849
Cl       3.17542876       5.76786946      12.57516842       0.01119180       0.00191766      -0.01006374
Cl       2.15574269       3.04439583      12.22590858       0.00062199       0.00451975       0.00535405
C        3.16372418       4.12838131      13.22204833       0.00467750       0.00546974      -0.00089253
H        2.71218886       4.15523428      14.20497789       0.00537405       0.01283480      -0.00079685
Cl       3.74398312      11.77342915       5.45060002      -0.00564837      -0.01292494      -0.00644851
Cl       1.17858429      11.31936202       6.75522471      -0.00099459      -0.01072703       0.00382486
Cl       1.35054886      11.32676242       3.84212002      -0.01210265      -0.00798491       0.00346610
C        2.20069393      10.94985758       5.36223645      -0.00713161      -0.01077925      -0.00045363
H        2.38811457       9.88117032       5.36871440      -0.00830200      -0.01081464      -0.00211381
Cl       7.51769355       9.40272807      14.62186273       0.00466669      -0.00670080      -0.00338252
Cl       9.31030956       9.64651010      16.92426513       0.00008899      -0.01150911      -0.00008583
Cl       9.60290949       7.41052612      15.08132417       0.01532052       0.00218073      -0.01397586
C        9.14382158       9.11471535      15.24626481       0.00519432      -0.00165601      -0.00340945
H        9.83247415       9.69365559      14.64389439       0.00270131       0.00600202       0.00132190
Cl      -1.28562308       5.41318731      11.30432503      -0.00410965       0.00652224       0.00809985
Cl      -0.00513725       4.79086572       8.76570628       0.00358764      -0.00777286       0.01574010
Cl       0.50901912       7.36170355      10.07178933      -0.01194267       0.00519276      -0.00430414
C        0.16315653       5.64187936      10.30165814      -0.00347316       0.00564468       0.00925582
H        1.00171945       5.20844696      10.83278409      -0.00237110       0.01392859       0.01400292
Cl      10.81847575      16.69030858       2.71530500      -0.00316133       0.00639483       0.00747190
Cl       9.63686350      14.30184202       1.51052375      -0.00597352       0.01202302      -0.00108671
Cl      12.36732661      15.07520725       0.82755980      -0.00286841       0.00642982       0.00845256
C       11.12285119      15.05193401       2.09560863      -0.00620101       0.00699312       0.00497188
H       11.50070799      14.48048626       2.93671480      -0.00940518       0.00431034       0.00455269
Cl       4.33449765      15.13103380       4.08682610      -0.00859268      -0.02589400       0.00381797
Cl       1.09731212      14.81346976       5.82369690      -0.00018034       0.00596773       0.02694426
Cl       3.99304781      13.75999306       8.38675913      -0.01465249      -0.01914513      -0.01029664
C        4.26604294      15.52316361       5.74439669       0.00982639      -0.00344172       0.00025187
H        3.45497394      16.22358943       5.94344698       0.03501236       0.02673502      -0.00411496
Cl       7.31196094       0.64338014       2.69223301      -0.01052949      -0.00298643      -0.02097762
Cl       5.32552915       2.68094100       3.30705705      -0.01077017      -0.00885468      -0.00175498
Cl       7.93421983       2.71433015       4.65138572      -0.01435037      -0.02577943       0.00465602
C        7.06724635       2.31897401       3.16114993      -0.01105562      -0.00812769      -0.00105289
H        7.45910013       2.95164807       2.37423539      -0.00859794       0.00056645       0.00715399
Cl      13.50918155       3.81769041       5.94481866      -0.00639462      -0.00416651       0.00289604
Cl      10.89595520       3.29032646       7.13884031      -0.01058213       0.01307917       0.00157636
Cl      12.43278514       5.64538149       7.94284388       0.00470452       0.00349627       0.00010151
C       12.03846429       4.54244153       6.62482579      -0.00225269       0.00519639       0.00099654
H       11.56235295       5.11692404       5.83943276       0.00165279       0.00718111       0.00062460
Cl       1.59070497      -0.38713467      11.06761935       0.01616490       0.01538581      -0.01734953
Cl       5.26945060       0.42178683       8.39716215       0.01386273      -0.03264475       0.01277331
Cl       4.22003130      -0.08537671      12.22665934       0.02081770       0.02147940      -0.02954167
C        3.23165099      -0.59945677      11.00549748       0.01515980       0.00656876      -0.01841360
H        3.64974359      -1.13641712      10.15282414       0.00860253      -0.01261604      -0.00909358
Cl       0.20324067       7.79685323       6.64193506      -0.00741022      -0.01901680      -0.00774446
Cl       1.52524621       7.51434682       4.04736897      -0.00842319      -0.00875314      -0.00841326
Cl      -1.33323477       7.00856084       4.30315312      -0.00903061      -0.00457728      -0.01204861
C        0.02012637       7.96412441       4.90300994      -0.00750746      -0.01037906      -0.00691682
H       -0.16475299       9.00682977       4.66940469      -0.00603250      -0.00914985      -0.00164854
Cl       5.53642407       4.95778961       6.14151016      -0.00589740      -0.00057174       0.00163235
Cl       2.79909224       3.98157183       6.35999617      -0.00913088       0.00777540      -0.00528207
Cl       3.54091487       6.53381037       7.58123615      -0.00077989      -0.00216566       0.00972739
C        3.82929394       5.41351459       6.24517533      -0.00412223       0.00467599       0.00345948
H        3.57824164       5.92994208       5.32751572      -0.00208084       0.01085874       0.00652888
Cl       2.50503985       9.79695130      12.35762267       0.00567296      -0.00058886      -0.00123402
Cl       5.15082747      11.02997794      12.46013517       0.00945163      -0.00920112      -0.00777924
Cl       4.76462007       8.51779620      11.01878614      -0.00784333       0.00604242      -0.02962027
C        4.03066491      10.05967223      11.49341592      -0.00025595       0.00373404      -0.00929005
H        3.81338496      10.61384605      10.58848473      -0.00473817       0.01313770      -0.00237590
Cl      13.75621787       9.93233709       9.33960925      -0.00974847       0.01488094      -0.01215717
Cl      16.24444023      11.33674034       9.93794899      -0.00131267      -0.01185397       0.01083021
Cl      13.68590173      12.63289124      10.46103270       0.00511965       0.00160497       0.01751799
C       14.55563554      11.09318105      10.41437496      -0.00382363      -0.00333588       0.00198353
H       14.55140556      10.67310568      11.41379528      -0.01013219      -0.01376864      -0.00249600
Cl       8.04081284       7.65917258       5.22260596      -0.00639156      -0.00211002       0.00669982
Cl       6.86347035       9.95296811       6.60189989       0.00071337       0.00410444       0.00080292
Cl       5.23648493       8.34159697       4.79678953      -0.00385636       0.00471561       0.00463048
C        6.58265338       8.34626896       5.96958432      -0.00430262       0.00379096       0.00489482
H        6.29452970       7.68715935       6.77961103      -0.00643898       0.00682214       0.00630590
Cl      -0.70834173       1.22488804       4.60360111      -0.00403565      -0.00444320       0.01677248
Cl       0.72878146       3.49615868       3.29230850      -0.01122919      -0.00675164       0.00584812
Cl       1.80363676       0.81200118       2.97141288      -0.00562249      -0.00549590       0.01485258
C        0.40992390       1.81402647       3.04806196      -0.00748482      -0.00813419       0.01300395
H       -0.26791671       1.64935775       2.21383957      -0.00814787      -0.01352620       0.01484112
Cl      12.88662041       2.42744866      10.49040011       0.00277078       0.00115614      -0.00388291
Cl      14.46191124       0.19841814      11.50447042       0.01029117       0.01377052       0.01237446
Cl      14.90829201       1.17683522       8.79503568       0.00360087      -0.00744994       0.00415254
C       14.45780547       1.62583942      10.44500187       0.00449380       0.00500052       0.00092045
H       15.19602358       2.32477367      10.82122295       0.00314602       0.01002423      -0.00607494
Cl      10.94809233      10.93377801       5.89344216       0.00822119      -0.01831317      -0.01526490
Cl      11.74413075      11.64953380       3.17761591      -0.00379923      -0.00003581      -0.01328763
Cl       8.96957102      11.00674340       3.75568075      -0.00105023      -0.00527728      -0.00581202
C       10.43405796      11.73605382       4.38137117       0.00116721      -0.00878735      -0.00777995
H       10.24785042      12.77593838       4.63369239       0.00146248      -0.01069653      -0.00045761
Cl       4.44142970       3.73801631       9.71615616      -0.00055030      -0.02613081      -0.01316151
Cl       6.80391859       5.43940705       9.59223394      -0.01020311      -0.01133585       0.01076716
Cl       7.03733226       2.65411667      10.45998500      -0.00135981      -0.01110095       0.00904551
C        6.17713096       3.79224102       9.40845762       0.00175025      -0.01466985       0.00232629
H        6.34099149       3.48412885       8.38403282       0.01351924      -0.01207210       0.00354496
Cl      11.90729454      10.24306142      12.79895703       0.00802759       0.00910538       0.00852154
Cl       9.72845080      12.18673085      12.88979830       0.00613278       0.00614104       0.00039778
Cl      11.59326125      11.97432152      15.12074387      -0.00563811       0.00456016       0.00964224
C       11.39979475      11.85056929      13.37640124       0.00361560       0.00738402       0.00881061
H       12.03254198      12.59373958      12.90762603       0.00534986       0.00887671       0.01350439
