139
Lattice="12.162478544412043 0.0 0.0 0.0 12.162478544412043 0.0 0.0 0.0 12.162478544412043" Properties=species:S:1:pos:R:3:forces:R:3 energy=-966122.4375 stress="5.886057624593377e-05 0.0006143508362583816 -0.00013854597636964172 0.0006143508362583816 -0.00038091218448244035 0.00032746949000284076 -0.00013854597636964172 0.00032746949000284076 0.001324414974078536" pbc="T T T"
Cs      12.35374529      13.40869081       4.85886974       0.00565967       0.00906438      -0.00921665
Cs       3.79058112      14.26458258       9.41906901      -0.02311561      -0.02341826      -0.01170133
O       10.17830501      -0.75470814       0.19446557       0.01312625      -0.00190341      -0.00713921
O       10.86945909       0.26023599       2.87112946       0.00896403      -0.00015101      -0.00763273
O        9.85514193       2.05321552       0.81212446      -0.00256038      -0.00398552      -0.00694790
O       12.52535355       0.94889805       0.56379655       0.00384903       0.00827378      -0.00926340
W       10.83478679       0.62069476       1.09652381       0.00441015      -0.00007708      -0.00982523
O        4.07233882       4.29295915       7.75527945      -0.02613139      -0.01781422       0.01216739
N        2.72724325       5.77809493       6.65855098      -0.00349448      -0.01154425       0.00818758
C        2.62056426       6.70974451       7.76444720      -0.01363437      -0.01679833       0.01503223
C        1.83608387       5.96415280       5.52991838       0.00684291       0.00187110       0.00154418
C        3.47629806       4.67597783       6.73973654      -0.00697374      -0.01021683       0.01185971
H        1.68766743       6.56653379       8.31836038      -0.01928955      -0.01906773       0.00381342
H        2.66218105       7.72469384       7.36957032      -0.00811917      -0.01554477       0.02036680
H        3.46583637       6.56328120       8.42848852      -0.02172422      -0.02035935       0.02402787
H        0.81523736       5.68050987       5.80376072       0.00508019       0.00092465      -0.00693789
H        2.16500647       5.34871082       4.69496136       0.01444165       0.00414571       0.00186247
H        1.82798772       7.00457448       5.21090798       0.01520783       0.00375184       0.01020151
H        3.50507468       4.10501001       5.80027539       0.00389273      -0.00535841       0.00378790
O        2.82164442       2.83781779       3.76062859      -0.00656268      -0.00484151       0.01058424
N        3.50946481       2.13741885       1.69288092       0.00097695       0.00108991       0.01349421
C        2.79621587       3.15451299       0.94467657      -0.00269794       0.00192578       0.01196282
C        4.17097225       1.11330632       0.91894088       0.00281149       0.00305051       0.01120643
C        3.44597567       2.06244428       3.03403147      -0.00476769      -0.00060681       0.01040643
H        2.02973019       2.68008094       0.32407037      -0.00686863       0.00100023       0.01997960
H        3.50410127       3.73199459       0.33678200      -0.00608400      -0.00214636       0.00465064
H        2.31033107       3.83034293       1.64121497       0.00436640       0.00268365       0.01650593
H        3.43558608       0.57589072       0.30948071       0.00387052      -0.00008300       0.01116608
H        4.66428326       0.40783721       1.58324350       0.00623307       0.00670590       0.01285748
H        4.94585970       1.55587916       0.28177279      -0.00019743       0.00373590       0.00857943
H        4.01803475       1.21716122       3.44424460      -0.00297695      -0.00180048       0.01080039
O        3.06128182      11.52651092       5.14442795      -0.02777404      -0.01155084       0.00175886
N        1.44389854      10.44540448       3.93102523      -0.01586637      -0.00970238      -0.00314276
C        1.94372431      10.85917839       2.62896583      -0.01330373      -0.00187678      -0.00250199
C        0.21776065       9.66113015       3.93378655      -0.01097572      -0.01453936      -0.00921427
C        2.08698870      10.77647776       5.05736982      -0.00938261      -0.00450549      -0.00354257
H        1.33537737      11.66501166       2.20260687      -0.01190493       0.00120550       0.00263278
H        1.90008354       9.99848925       1.95910723      -0.01509902       0.00205186      -0.00642978
H        2.97036747      11.19718641       2.75091900      -0.01293489      -0.00454456       0.00030716
H       -0.58246140      10.23722881       3.46186436      -0.01278099      -0.01655674      -0.00677130
H       -0.05091785       9.43585323       4.96549216      -0.01076925      -0.01968157      -0.00944054
H        0.38046388       8.73535312       3.38252982      -0.00584705      -0.01137760      -0.01173718
H        1.61877113      10.33106696       5.95638866      -0.01626550      -0.01818812      -0.00334296
O        5.47002552       8.18579718       7.15518755      -0.01918012       0.00863065       0.00771868
N        6.71355349       9.57158310       8.46309513      -0.00482891       0.00570153       0.00442621
C        6.84629101      10.54682338       7.39538977      -0.00483681       0.00400114       0.00427637
C        7.11123479       9.94453903       9.80424738       0.00121976       0.01019111       0.00162616
C        5.99227321       8.45545129       8.22543250      -0.00813729       0.00926495       0.01671392
H        7.63383834      11.25122498       7.65727139      -0.00218388       0.00288954       0.00134677
H        5.91030992      11.08659799       7.22560997      -0.00375956       0.00573647       0.00588144
H        7.09258188      10.05234879       6.45818152      -0.00904708       0.00155888       0.00367615
H        8.15769558      10.25053440       9.84349817       0.00360143       0.00236791      -0.00136929
H        6.97630195       9.08830758      10.46217553      -0.00331233       0.01566379       0.00664218
H        6.50006055      10.77291686      10.18398740       0.00860572       0.01772878      -0.00467468
H        5.92612271       7.78992160       9.10312020      -0.00977249       0.01084441       0.01282996
O       12.65482929       8.88183467      12.15568420       0.01326358       0.00417686       0.00483954
N       12.14697430      10.10354180      10.28559351       0.00428535       0.00052815       0.00015098
C       11.67842433       8.97173982       9.52568092       0.00897624       0.00181563       0.00951520
C       11.86797456      11.42092489       9.76053280      -0.00837661      -0.00657387       0.00510485
C       12.54060127       9.95031343      11.57833099       0.00861669       0.00855637      -0.00100571
H       12.16357015       8.95171411       8.54469182      -0.00296493      -0.01059150       0.00026187
H       10.59393587       9.02804772       9.37047932       0.00587666      -0.00268914       0.01338128
H       11.91121107       8.05864620      10.07194578       0.00989639      -0.00460356       0.00264403
H       12.31826103      11.53939116       8.76547752       0.00589116       0.01235991       0.02003664
H       12.26639935      12.16885548      10.44629213       0.01673411       0.00962259      -0.00555971
H       10.78968428      11.59659653       9.70011599      -0.00189161      -0.02544079      -0.01871589
H       12.78013570      10.92061837      12.04169078       0.01226120       0.00704658      -0.01595572
O        7.51397861       5.27869665       6.68902937      -0.01308876      -0.01463091       0.01515687
N        9.62827628       6.09833742       6.40068872      -0.00778063      -0.00467229       0.00465541
C       10.26756597       4.80499707       6.46316121      -0.00381300      -0.00106245       0.00420770
C       10.47438040       7.25162138       6.20260900      -0.00981712      -0.00285429      -0.00357847
C        8.28437839       6.20756489       6.50018514       0.00208652       0.00768918       0.00720569
H       10.98950835       4.77489429       7.28571090       0.00281678       0.00326272      -0.00170910
H       10.77532962       4.59531096       5.51699969      -0.01239915      -0.00534074       0.00073430
H        9.49713231       4.05602620       6.62108444      -0.00137410      -0.00310543       0.01478069
H       11.20672279       7.32504695       7.01339830      -0.00829159       0.00399797      -0.00487304
H        9.86356982       8.15153837       6.18562703      -0.01071446      -0.00393523      -0.00874550
H       10.99585306       7.19300139       5.24501494      -0.01058842      -0.00792437      -0.00415713
H        7.94345722       7.24991059       6.39003089      -0.00730324      -0.00620395       0.01015139
O        2.53917175       7.62440673       2.80064028       0.01791251       0.01600003       0.00625443
N        4.68169685       7.02646082       3.32290066       0.00950873       0.00335348       0.00731147
C        4.77950879       6.01575570       2.29396157       0.00729621       0.00899941       0.00104922
C        5.86448629       7.33313427       4.09823086       0.00678548      -0.00654087       0.01371209
C        3.55761335       7.74746373       3.46627976       0.00473201       0.00573540       0.00368443
H        5.07620832       5.06117169       2.73497293      -0.00024234       0.00455558      -0.00300758
H        5.52985637       6.29698267       1.54971931       0.01315147       0.00870395       0.00691448
H        3.80835545       5.91860364       1.81629797       0.00970680       0.01745270      -0.00456138
H        6.27990344       6.42110770       4.52963374       0.00245491      -0.01139843       0.00683995
H        5.60116480       7.99395558       4.91949457       0.00549965      -0.01268315       0.01831654
H        6.62443527       7.81079344       3.47777237       0.01046973      -0.00332920       0.02080011
H        3.64839683       8.48389949       4.28532553       0.01024061       0.00117454       0.01383290
O        9.10966317       7.88556020       3.38948377       0.00362736      -0.00177991      -0.00944692
N        8.83765107       6.73811909       1.42269236       0.00487513      -0.00294891      -0.00876659
C        9.36120053       7.79077327       0.57336796       0.00078879      -0.00117076      -0.00928803
C        8.48638553       5.47222664       0.80094266       0.00300615      -0.00209686      -0.00985940
C        8.79330880       6.87832537       2.75989043       0.00503713      -0.00316823      -0.00911134
H        8.61109047       8.08944391      -0.16469259      -0.00288016      -0.00050269      -0.00537010
H       10.24713534       7.43439256       0.04407489      -0.00154811       0.00040404      -0.01379696
H        9.62867974       8.65273930       1.17937244       0.00286509      -0.00193569      -0.00886205
H        7.58556134       5.57682418       0.18524151      -0.00228301      -0.00369003      -0.00275016
H        8.31513030       4.71901297       1.56853402       0.01038740      -0.00480975      -0.01082304
H        9.30047881       5.12974570       0.16282270      -0.00059119       0.00161253      -0.01605546
H        8.44245058       5.95781835       3.25504486       0.00714818      -0.00333154      -0.00797591
O       11.89595489       5.33634495      -0.40939208       0.00685797       0.00044465      -0.02395415
N       11.89718883       4.72361475       1.79345637      -0.00006323       0.01144877      -0.01989332
C       11.93623406       6.06127292       2.33896508       0.02110938       0.01407225      -0.02901550
C       11.85437379       3.63940958       2.74428027      -0.00677288       0.01605023      -0.01449652
C       11.87220044       4.47782925       0.46519037      -0.00194516       0.00324887      -0.01883745
H       12.87492734       6.22936474       2.86986200       0.02469072       0.00345413      -0.03170596
H       11.10670371       6.19835364       3.03520630       0.02478579       0.03245146      -0.02821551
H       11.87132717       6.78956078       1.53557848       0.03110987       0.01000692      -0.03305987
H       12.54522982       3.87754428       3.56118652      -0.00417702       0.01575269      -0.01638833
H       12.19700819       2.72249084       2.25842930      -0.01419407       0.01113403      -0.00951187
H       10.84035353       3.47802330       3.12798415      -0.00701034       0.02539357      -0.01169796
H       11.82374195       3.39911014       0.24898408      -0.01303893       0.00430691      -0.01361907
O        8.44176859       3.74969655       3.87763292      -0.00469995       0.00072777       0.01356071
N        7.45369449       2.25133484       5.28936157       0.00234935      -0.00097220       0.00036021
C        8.58877038       1.35253647       5.32170941       0.00402760      -0.00013011      -0.00493135
C        6.36335730       1.99180595       6.20059703       0.00247761      -0.00244951      -0.00475428
C        7.49353392       3.37937540       4.55649480       0.02103198       0.00748992      -0.00760365
H        8.22644245       0.32753772       5.34936261       0.00308117      -0.00042343      -0.01086880
H        9.20757891       1.54577924       6.21111385       0.00188889      -0.00543185      -0.00246233
H        9.17849785       1.48185009       4.41488958       0.00552203       0.00476128      -0.00210166
H        5.93778784       1.00575823       6.00519602       0.00339505      -0.00129178      -0.00745190
H        5.59450003       2.75155962       6.07432771       0.00297609      -0.00212790      -0.00537751
H        6.71897016       2.05063942       7.23776223       0.00011630      -0.00427205      -0.00375038
H        6.55258737       3.94783407       4.62383407       0.00470549       0.00486836       0.00276967
O        6.41938143      11.60698525       4.16242074       0.00043792       0.01131892       0.01967895
N        6.27161569      10.68730211       2.07153714       0.00391367       0.00151832       0.00754958
C        7.42470929      11.37755932       1.51841606       0.00399402       0.00048289       0.00984591
C        5.58586100       9.75907959       1.20563998       0.00814239       0.00023414       0.00161938
C        5.89180232      10.85735999       3.35461371      -0.01472190      -0.01625359      -0.01294613
H        7.13218483      11.97532955       0.65085643       0.00819345       0.00237446       0.01025045
H        8.18967059      10.67417157       1.19115712       0.00737247       0.00356311       0.01365270
H        7.85109432      12.03176389       2.27318175       0.00039326       0.00268017       0.01412526
H        5.21668346      10.26843474       0.30931856       0.01384594       0.00001508      -0.00155616
H        4.73484567       9.31973834       1.72186411       0.00416777       0.00101218      -0.00409803
H        6.26046325       8.95764278       0.88828906       0.00941777      -0.00076541       0.00548546
H        5.01424562      10.24508078       3.61797151      -0.00363046      -0.00054508      -0.00221772
