149
Lattice="13.104300944881114 0.0 0.0 0.0 13.104300944881114 0.0 0.0 0.0 13.104300944881114" Properties=species:S:1:pos:R:3:forces:R:3 energy=-1008796.75 stress="-0.0022918672766536474 -5.373201383918058e-05 -7.146706047933549e-05 -5.373201383918058e-05 -0.0008797459304332733 0.0006485528138000518 -7.146706047933549e-05 0.0006485528138000518 -0.0018509395886212587" pbc="T T T"
Er       6.90937906      12.61064389       6.09180952       0.01140706       0.00968474       0.01720667
Er       3.40522714      12.70731104       4.88831353       0.02878332       0.00142484       0.02557150
O        2.09498999      12.27223593       0.96642433       0.01346375      -0.02815872       0.01488876
O        3.34203708      11.17187702       3.26138095       0.04294010       0.00240356       0.01122317
O        0.58750267      11.15518369       2.81191197       0.03486598       0.00769925       0.01921514
O        2.00923188      13.38393867       3.46708025       0.00636683       0.01192147      -0.03355813
Cr       1.90170682      11.97086996       2.49827287       0.02631068      -0.00823022       0.02852035
Cr       5.14886391      11.32484769       2.95486710      -0.00519264       0.00364256       0.03362834
O        5.49164112      12.40269786       4.39999942       0.00185379       0.00249517      -0.00345260
O        5.90426880       9.95634707       3.12337802      -0.00389558       0.02253592       0.01079012
O        5.36437089      12.08307133       1.59350073       0.01615173      -0.01023680       0.02779603
O        4.03639898       5.10757643       9.24615664       0.00980043      -0.01932430      -0.01623869
O        5.90312469       6.95472483      10.08536671       0.00582871      -0.01978725       0.00684512
O        5.60169798       6.02944855       7.39010522       0.03145641      -0.00553310       0.00982761
O        6.54692593       4.38406701       9.15732021       0.01245987      -0.00926328       0.02581865
Cr       5.53237204       5.60529022       8.92959117       0.01212361      -0.01251054       0.00720870
Cr       5.91102762       8.65110775      10.39057387       0.00045201      -0.01570457      -0.01285678
O        6.71963602       8.96461103      11.70439632      -0.00890315       0.00701702      -0.01145744
O        6.51848007       9.48852237       9.05349373      -0.01023974      -0.00907010      -0.01060998
O        4.40277179       9.12501445      10.63569484      -0.00785708      -0.04290730      -0.02083546
O        8.51188194      11.63232266       6.88694719       0.04567134      -0.01550427      -0.01204354
O        8.83100727       9.48759200       8.19377830      -0.01300722       0.00130950       0.01227593
O        6.17036997      11.32131312       7.44679146      -0.01098359       0.02131426      -0.00444350
O        7.96994511      11.69613676       9.45908419       0.01815192      -0.00176913      -0.01486802
Cr       7.71382016      10.77479397       8.22199155       0.01132328       0.00872433      -0.01877521
Cr       9.15148249       7.80933993       8.92010927       0.00195673       0.00477767       0.01772022
O        8.94661834       7.80654101      10.49747352      -0.00355197      -0.02607669       0.01682687
O        8.13635172       6.80515365       8.21838011       0.01531065      -0.00282109       0.01682520
O       10.65952596       7.40338801       8.55928231       0.00115299       0.00297558       0.02406847
C       11.41349818      10.85108983       6.32516398      -0.00044380       0.01036912       0.00429751
C       11.62658305      12.17419108       6.68493004       0.00499955       0.01438695       0.01660635
C       11.59860594       9.84379279       7.25945095      -0.00171865       0.01172948       0.00813971
C       12.00488107      12.49201296       7.98113174      -0.00272841       0.00388154       0.01004727
C       11.98816553      10.15832206       8.55708472      -0.00715056       0.00124520       0.00209720
C       12.18644861      11.48277909       8.92060702      -0.00563155       0.00578151       0.01495032
H       11.11112661      10.60635520       5.31383849       0.00311396       0.01658828       0.00793715
H       11.50809708      12.95760335       5.95286807       0.00715154       0.01349431       0.01425119
H       11.43179922       8.80616859       7.00428497      -0.00692671       0.01030821       0.00060562
H       12.15739606      13.53086254       8.24735349      -0.00169866       0.00484394       0.01866324
H       12.10547244       9.35988492       9.27751637      -0.00878413       0.00268318       0.00418508
H       12.47629604      11.72813196       9.93499687      -0.01185782      -0.00115980       0.01252468
C        3.76992144       7.22077812       5.65079005      -0.01186527      -0.00835061      -0.01022503
C        3.13000060       5.98781691       5.62401443      -0.00753304       0.00862481      -0.00936085
C        3.59244447       8.11772285       4.61071850      -0.01010510       0.00124304      -0.02739353
C        2.32004621       5.65532082       4.54379850      -0.01414917      -0.01314719       0.00057515
C        2.77971105       7.79475882       3.53336526      -0.01691121      -0.02228518      -0.01682599
C        2.14721805       6.55714892       3.49710048      -0.01272206      -0.00481846      -0.01311056
H        4.41719445       7.45357717       6.48350592      -0.01047581       0.00857010      -0.01549351
H        3.27845016       5.31106332       6.45677701      -0.01339298       0.00603950       0.00022297
H        4.10826222       9.06660284       4.64031520      -0.01483931      -0.00800869      -0.03041282
H        1.82546255       4.69106702       4.51303781      -0.00960285      -0.00598788       0.00005969
H        2.65506538       8.49340537       2.71776785      -0.01655383      -0.01647045      -0.02520692
H        1.54014133       6.29352246       2.64114325      -0.02075556      -0.01704000      -0.00521342
C       10.49305129       0.41068329       3.60349729      -0.00911269      -0.01167326      -0.00677448
C       11.50350137       0.54399369       2.65838949      -0.00103158      -0.00383790      -0.00128518
C       10.34628644       1.36648888       4.59913621      -0.00899771      -0.00027649      -0.00625008
C       12.35684978       1.64145119       2.70654348      -0.00812121      -0.01334488      -0.00153065
C       11.21204725       2.45013633       4.66930832      -0.01564571      -0.01031241      -0.00756325
C       12.21360657       2.58857515       3.71468218      -0.00679767      -0.00293522      -0.00047685
H        9.82727255      -0.44246812       3.56942247      -0.00611436      -0.00561678      -0.00681621
H       11.63560392      -0.20991869       1.89304241      -0.00256710      -0.00867334      -0.00271043
H        9.57100173       1.25631610       5.35165539      -0.01520583      -0.00470658      -0.01148139
H       13.14579232       1.74392035       1.97158974      -0.00425288      -0.00720195       0.00165422
H       11.10896757       3.18113320       5.45838475      -0.01553393      -0.00391136      -0.00744861
H       12.88329556       3.43938831       3.76350327      -0.01123559      -0.00746560      -0.00144925
C        6.36594884       3.28523881       3.08907875      -0.01421602       0.00667929       0.00240190
C        7.59190140       3.93952728       3.01901095       0.01388594       0.00746268      -0.00220127
C        6.20292677       2.05059711       2.47505418       0.01443711       0.00153244      -0.00461115
C        8.64300572       3.37073552       2.31171708      -0.01388004       0.01247052       0.01167460
C        7.25716410       1.47871715       1.77203827      -0.01177677       0.00775062       0.00729515
C        8.47100027       2.14444010       1.68383320       0.01825348       0.01054116      -0.00113605
H        5.53160728       3.75849513       3.59010981       0.00046453       0.00155474      -0.00174521
H        7.71766506       4.90325062       3.49560634      -0.00691199       0.01155031       0.00176740
H        5.25110136       1.53452568       2.51946488       0.00079592      -0.00100285       0.00258056
H        9.59268353       3.88301125       2.24144654       0.00274292       0.01264454       0.00689353
H        7.11715481       0.52675410       1.27785509       0.00787568       0.00756754       0.00024772
H        9.28404306       1.71248305       1.11917671       0.00055905       0.01506136       0.00189687
C        1.64840875       0.55061164      10.53769167      -0.01445385       0.00459144      -0.00570957
C        2.68398457       0.53773971      11.46301065       0.00349282       0.00754596       0.01057975
C        0.73369608       1.59872330      10.53059249       0.00115654       0.01121560       0.01306918
C        2.80027798       1.57008536      12.38731908      -0.00650571       0.00070439      -0.00822714
C        0.84604109       2.62735482      11.45696278      -0.00752288       0.00354277      -0.00526868
C        1.87772744       2.60827455      12.38841046       0.01090444       0.00849736       0.00868562
H        1.54641505      -0.26112210       9.82974195      -0.00814976       0.00982623       0.00356270
H        3.38207060      -0.28986449      11.48813832      -0.00629705       0.00371379      -0.00351912
H       -0.07143734       1.61200345       9.80740794      -0.00823204       0.00939162       0.00558352
H        3.59841714       1.54736089      13.11828830       0.00357652       0.00207313      -0.00029331
H        0.13032884       3.44017720      11.45374619       0.00300647       0.00858554       0.00613433
H        1.95818569       3.40378852      13.11727024       0.00673907       0.00655414      -0.00341308
C        4.07164543       5.32475955       0.57068595       0.00579140       0.01809469      -0.00807283
C        5.20135067       5.91559747       1.12339129      -0.00464979       0.01103765      -0.00518765
C        3.12339321       6.11026016      -0.07286013      -0.00217479       0.00340912      -0.00788224
C        5.38015353       7.28962741       1.04946667      -0.00572933       0.02475730      -0.00267264
C        3.30393932       7.48609366      -0.15092886      -0.00421789       0.01589340      -0.00219844
C        4.42753999       8.07622045       0.41571860      -0.01222612       0.00894168      -0.00567545
H        3.95377511       4.24833452       0.62137540       0.00884387       0.01152854      -0.01388818
H        5.95528172       5.29439856       1.58282842      -0.00116283       0.02068543      -0.00238713
H        2.26055077       5.65244223      -0.54050055       0.00420329       0.00697994      -0.01043209
H        6.26847683       7.74511027       1.46517282      -0.01136291       0.02206531      -0.00543033
H        2.59313551       8.09894632      -0.68782497      -0.00853802       0.00566897      -0.00276297
H        4.58723438       9.14135310       0.31644681      -0.01288932       0.01601309      -0.00376981
C        9.51937767       2.83794385      11.46403566       0.00538284       0.00516977      -0.00782786
C        9.42495308       4.21513855      11.64966835       0.00260052       0.00367114      -0.00912244
C        8.36661601       2.06011749      11.40885316       0.00386912       0.00206763       0.00597763
C        8.18231626       4.81916111      11.78970770       0.00677240       0.00322095       0.00065468
C        7.12602536       2.66186292      11.56904146       0.00816229       0.00180421       0.01407144
C        7.03384814       4.03590132      11.75614481       0.00465122       0.00115718       0.00831992
H       10.49125016       2.36866998      11.35441218       0.00294997       0.00531166      -0.01510427
H       10.31712946       4.82972004      11.65213129       0.00306451       0.00528617      -0.01142630
H        8.43736147       0.99193706      11.23402319       0.00581540       0.00153147       0.01533869
H        8.10588067       5.89703290      11.86436058       0.00593687       0.00233755       0.00110186
H        6.22058487       2.07050800      11.51227184       0.00781338      -0.00082075       0.02328984
H        6.06400554       4.50606232      11.83863038       0.00738144       0.00232565       0.01316789
C       10.80191481       4.19322641       8.21634502       0.00967240      -0.00538447      -0.01564783
C       12.01218660       4.66741384       7.72084535       0.00933079      -0.01287122      -0.00549254
C        9.61048324       4.49151241       7.56738485       0.01046610      -0.01141099       0.00762802
C       12.03386986       5.44086211       6.56766791       0.00100350       0.00316149      -0.01976078
C        9.63478432       5.26009126       6.40721257       0.00114328       0.00280347      -0.00747772
C       10.84221276       5.73247971       5.91035106       0.00102512      -0.00503905       0.00249279
H       10.77339771       3.62772030       9.13880325       0.01605411      -0.01585776      -0.00759026
H       12.93398676       4.46888574       8.25532102       0.01033708      -0.00811401      -0.02062515
H        8.66022529       4.19991603       8.00012294       0.00917119      -0.00481404       0.00389630
H       12.97231326       5.83630320       6.19875739      -0.00000761       0.00121549      -0.01225612
H        8.69953014       5.53722233       5.93944228      -0.00089604      -0.00112417       0.00725686
H       10.85431169       6.35693697       5.02524918      -0.00608196       0.00290389      -0.00539257
C        3.23776460      11.48891866       8.19800326      -0.01041365       0.00378060      -0.00136381
C        2.53138323      12.30153124       7.31586862      -0.01818261       0.00236658       0.00161704
C        3.02931457      10.11474568       8.18417055      -0.00808647       0.00163506      -0.00505952
C        1.65329259      11.71749568       6.37697790      -0.01295561      -0.00073181       0.00203025
C        2.17434553       9.54503414       7.25534158       0.00511038       0.00001095      -0.01105238
C        1.51620724      10.33496634       6.31867429      -0.00063278      -0.00366972      -0.01064080
H        3.93992225      11.91383867       8.90140440      -0.01644479       0.00402740       0.00174972
H        2.62203924      13.38621582       7.39170068      -0.04039160       0.00313910       0.02034359
H        3.53631911       9.50322355       8.92041019       0.00896819      -0.00013642      -0.01714921
H        1.03435151      12.33916569       5.72905141      -0.00901976      -0.00506973      -0.00223964
H        2.02229582       8.47492404       7.25694557       0.00158438      -0.00111634      -0.01074081
H        0.87259875       9.89112923       5.57370073       0.00140959      -0.00369250      -0.01081066
C        7.05983913       1.52022417       7.68643617       0.00951099       0.00506631       0.00990501
C        6.04201038       1.20860316       8.59166398       0.00898201      -0.00447148       0.00685403
C        6.79942799       2.36653830       6.60079297       0.00270455      -0.00160182       0.00646286
C        4.78841053       1.79013739       8.44865794       0.00676574      -0.01332056       0.00307995
C        5.53471333       2.93366294       6.46127985      -0.00224063      -0.01719542      -0.00128256
C        4.53782330       2.64992745       7.38676031      -0.00324717      -0.02552257      -0.00358763
H        8.06578907       1.14456620       7.87130551       0.01021120       0.00749846       0.00844562
H        6.25530516       0.54573109       9.41907476       0.01292319      -0.00567757       0.00427383
H        7.59511868       2.66790568       5.92811689      -0.00247172      -0.00802359      -0.00306490
H        4.02425106       1.62823801       9.19880123       0.00316209      -0.03034783      -0.00465408
H        5.35339717       3.67204318       5.69518129      -0.00662185      -0.02116217      -0.00337644
H        3.59055974       3.17004080       7.33007219      -0.00107488      -0.02304006       0.00198988
