138
Lattice="12.687961936804877 0.0 0.0 0.0 12.687961936804877 0.0 0.0 0.0 12.687961936804877" Properties=species:S:1:pos:R:3:forces:R:3 energy=-858944.6875 stress="-0.0006331426557153463 -0.0002367354536545463 -1.654035077081062e-05 -0.0002367354536545463 9.739299275679514e-05 -9.206097820424475e-05 -1.654035077081062e-05 -9.206097820424475e-05 0.0007289703353308141" pbc="T T T"
Er       5.36491715      12.34980631       4.58367372       0.00389889      -0.00137895       0.01175842
Er       3.21381259      11.41859934       7.25896289      -0.03029841      -0.01782899      -0.02016622
S        3.86200491      13.75930487       6.28906235      -0.01245749       0.00102057       0.00194336
S        1.81179818      13.32445133       6.25149197      -0.01341128       0.02283822      -0.00276478
S        3.90788390      10.22092736       5.02646065       0.01509774      -0.00389093       0.01701476
S        5.59864816      10.46164215       6.34542329      -0.00506932       0.02320340       0.03337011
S        9.01404122      10.74404575       9.66434105      -0.02745245      -0.02358302      -0.01582345
S        7.26713307      11.44714816       9.18899156      -0.03206426       0.02258889       0.00993176
O       10.54163244       6.91083508       2.58492137      -0.00065437      -0.00055612      -0.00043622
C        8.67775741       7.64338667       1.29368696      -0.00256914      -0.00428754      -0.00012010
C        9.95788034       8.34775811       0.84346293      -0.00322961      -0.00506938      -0.00343186
C        9.10503503       6.95767079       2.59798368      -0.00066924      -0.00122494       0.00093383
C       11.00558016       7.35209910       1.30809785      -0.00228840      -0.00341025      -0.00203258
H        7.83773200       8.32259453       1.43552538      -0.00245872      -0.00407723      -0.00044005
H        8.37905913       6.89594790       0.55792385      -0.00328507      -0.00609085       0.00195296
H        9.98706317       8.55765017      -0.22566754      -0.00451288      -0.00828353      -0.00409958
H       10.08982920       9.28924284       1.38242236      -0.00302304      -0.00328848      -0.00647561
H        8.79438777       7.51239805       3.48791746      -0.00007094       0.00046164       0.00006667
H        8.70162503       5.94332361       2.67928683      -0.00014943      -0.00126845       0.00357044
H       11.06941847       6.50677657       0.60889245      -0.00268922      -0.00508028      -0.00006777
H       12.00151855       7.77518783       1.44485359      -0.00227472      -0.00255011      -0.00416928
O       12.01535370       2.40897667       1.41430167       0.00041428      -0.00601410       0.00228590
C       11.65303991       3.83159847       3.27160564       0.00063963      -0.00519601       0.00204122
C       10.95611091       2.49590337       3.52248926      -0.00181115      -0.00416105       0.00064641
C       11.80822842       3.79719728       1.75851238       0.00351947      -0.00540973       0.00232583
C       11.69123399       1.59125211       2.54440302       0.00016758      -0.00499598       0.00298235
H       11.09547126       4.70603557       3.59944289       0.00139709      -0.00429234       0.00105770
H       12.63030749       3.83827916       3.76165741      -0.00026754      -0.00675879       0.00387843
H       11.03088360       2.14343611       4.55109429      -0.00549618      -0.00394291       0.00104225
H        9.89850737       2.57276872       3.25106697      -0.00082403      -0.00305171      -0.00291380
H       10.90012347       4.15123762       1.25873146       0.00530761      -0.00310700       0.00064880
H       12.66130499       4.37264811       1.39133918       0.00559494      -0.00733319       0.00414382
H       12.61218981       1.20918033       3.00493973      -0.00006086      -0.00328258       0.00479507
H       11.10405364       0.73887939       2.19820550       0.00139031      -0.00603226       0.00326549
O        7.20175353       0.90406703       5.15433615       0.00129973       0.00084710       0.01095673
C        7.20737050       2.58715407       6.76479665       0.00311238       0.00298318       0.00948042
C        6.81902443       3.25243036       5.42989355       0.00567670       0.00207603       0.00823401
C        7.93117083       1.32497302       6.34912984      -0.00110292      -0.00049757       0.01274104
C        6.92351413       2.12097371       4.40395773       0.00545895       0.00111400       0.00928554
H        7.82606839       3.23221893       7.38443558       0.00500107       0.00176524       0.00873028
H        6.31423609       2.32500838       7.33503746       0.00182235       0.00719140       0.00981486
H        5.80844390       3.65382292       5.47259930       0.00627184       0.00368641       0.00658125
H        7.48160080       4.07826995       5.17316897       0.00719965       0.00109649       0.00832319
H        8.96564606       1.51173812       6.04761689       0.00097805      -0.00598447       0.01676381
H        7.89431073       0.50416308       7.06440285      -0.00779954       0.00092739       0.01367138
H        5.98498443       1.95741059       3.84782773       0.00617974       0.00210416       0.00775470
H        7.71909816       2.26752182       3.67008719       0.00726244      -0.00076947       0.01095632
O        6.57054579      11.49471172       2.77918558      -0.00392744       0.00579713      -0.00338255
C        8.65760111      11.81672186       1.82355747      -0.00576180       0.00250170      -0.01106587
C        7.68501527      11.50693353       0.66859166      -0.01011346       0.00138754      -0.00716561
C        7.97858135      11.18815691       3.01927924      -0.00290293       0.00663880      -0.00719815
C        6.36745009      11.15931059       1.37374005      -0.00739139       0.00150540      -0.00188947
H        9.65865114      11.42338128       1.65765098      -0.00684896       0.00013936      -0.01340362
H        8.74241733      12.89505114       1.97811840      -0.00292372       0.00263605      -0.01461080
H        7.58007455      12.35057969      -0.01242628      -0.01285887       0.00110942      -0.00710768
H        8.02932993      10.67168970       0.05852631      -0.01226060       0.00138780      -0.00856940
H        8.08870945      10.09965188       3.04571918      -0.00243132       0.00684512      -0.00339999
H        8.25462459      11.59980210       3.98801524       0.00018639       0.01065698      -0.00942142
H        5.50557228      11.72263472       1.02550551      -0.00923845      -0.00078359      -0.00131791
H        6.13724807      10.09280022       1.32144566      -0.00548435       0.00100613       0.00142421
O        4.54829037       3.47917324      11.06733125       0.00255805       0.00302791      -0.00241812
C        2.52476424       2.70030828      10.07348187       0.00699180      -0.00615463      -0.00294527
C        2.28664290       3.97005106      10.91171012      -0.00256306      -0.00593161      -0.00600320
C        4.04421728       2.46820304      10.18877415       0.00853831      -0.00046875      -0.00322756
C        3.67121806       4.59546290      10.93056547      -0.00543040       0.00041319       0.00221451
H        1.94394936       1.85557628      10.44294466       0.01619366      -0.01137117       0.00097576
H        2.25228508       2.84910022       9.02838698       0.01029161      -0.01407325      -0.00550815
H        1.52550725       4.62862561      10.49324642      -0.00283663      -0.01187377      -0.01568171
H        1.99567535       3.71312012      11.93232637      -0.00687674      -0.00544079      -0.00708905
H        4.31441003       1.50188874      10.61733129       0.02228189       0.02275139       0.02268695
H        4.52748253       2.55538056       9.20879954       0.00910413      -0.00352586      -0.00158882
H        3.88147227       5.12622638       9.98981772      -0.00511767       0.00445242       0.00589252
H        3.85334197       5.27105324      11.76669595      -0.01481242      -0.00055036       0.00617418
O        3.19373171       3.67899601       1.92478677       0.00145333      -0.00442508      -0.00071666
C        3.32966799       1.32266877       2.32731484       0.00937140      -0.00467950      -0.00372593
C        4.32433520       1.76539636       1.25146318       0.01282946       0.00127354       0.00179362
C        2.50841236       2.60127568       2.58709599       0.00377919      -0.00801796      -0.00393335
C        4.49738996       3.23759028       1.58058030       0.00495066       0.00157332       0.00480318
H        2.70131151       0.48443848       2.02869068       0.01353453      -0.00589548      -0.00899729
H        3.84441150       1.03014584       3.26453133       0.00645213      -0.00637385      -0.00243557
H        5.26797090       1.21679464       1.25259287       0.01506299       0.00514098       0.00572048
H        3.87748454       1.67224497       0.26063476       0.01792927       0.00130746      -0.00070173
H        1.51562260       2.53540225       2.14400893       0.00498343      -0.01083799      -0.00638184
H        2.41339572       2.81452084       3.65649140       0.00041381      -0.00988736      -0.00386161
H        5.18677182       3.37696401       2.42956178       0.00033468       0.00322414       0.00835738
H        4.85444645       3.82725986       0.73875030       0.00622641       0.00450438       0.00735125
O        6.14067630       6.60385881       4.38928012      -0.00078708       0.00239475      -0.00548929
C        3.88329008       5.96453634       4.55029488       0.00057834       0.00132102       0.00325998
C        4.06923210       6.69886535       3.22287992      -0.00582927       0.00209486       0.00275972
C        5.07020956       6.48693366       5.34204295       0.00272810       0.00337648      -0.00147972
C        5.58659351       6.67802494       3.06829836      -0.00620705       0.00609198      -0.00321506
H        2.92891033       6.17682991       5.03124178       0.00207701      -0.00048616       0.00691185
H        3.95652139       4.88411577       4.39582470       0.00200031       0.00138730       0.00288258
H        3.55825546       6.21431087       2.39316747      -0.00774552       0.00132528       0.00436041
H        3.71440775       7.72687138       3.31749138      -0.00780078       0.00126269       0.00461365
H        4.84695563       7.47430211       5.76363731       0.00329845       0.00404549      -0.00267775
H        5.41099219       5.83384283       6.14646243       0.00620492       0.00509045      -0.00165266
H        5.92135848       5.79906823       2.50305412      -0.00594205       0.00909442      -0.00760363
H        5.97390723       7.57098003       2.56897544      -0.01058996       0.00899765      -0.00146791
O       10.84228170       1.16836994       8.42062388      -0.01334521       0.00411692      -0.00112104
C       11.60655386       2.51576018      10.18209701       0.00260122      -0.00743216      -0.00080007
C       11.86357054       3.27811161       8.88000769       0.00475648      -0.00436640       0.00098097
C       11.52309132       1.08460978       9.67539953      -0.00575627      -0.00481373      -0.00600260
C       11.08753908       2.45708600       7.84460678       0.00430426      -0.00005466      -0.00315000
H       12.38079226       2.65641488      10.93510656       0.00438310      -0.01321696      -0.00145227
H       10.65924023       2.81945903      10.62899355       0.00455290      -0.00429624       0.00134999
H       11.53311375       4.31684182       8.91339390       0.00688195      -0.00372234       0.00372915
H       12.92532869       3.27496552       8.63610904       0.00529617      -0.00588492       0.00258246
H       12.53216470       0.66962982       9.52669187      -0.00765020      -0.00634001      -0.01435855
H       10.95253573       0.40385687      10.30921932      -0.00315684      -0.00658414      -0.00586352
H       10.11611633       2.90596918       7.61799934       0.01025367       0.00787808      -0.01245096
H       11.64550587       2.34542202       6.90861667       0.01158544      -0.00781764       0.00215441
O        8.97771225       4.28273679      12.16945120       0.00226824       0.00592294      -0.00204900
C        7.55534473       4.48801802      10.31071855       0.00183004       0.00065561      -0.00280991
C        7.76010782       2.99852095      10.58272195       0.00295410       0.00189143       0.00167489
C        8.77968756       5.07164503      10.98838820       0.00127676       0.00315964      -0.00396767
C        8.28352812       3.02928128      12.01495678       0.00177759       0.00592937       0.00186795
H        7.48149616       4.75888870       9.25788409       0.00249397      -0.00276903      -0.00379682
H        6.64749383       4.82589390      10.81372882       0.00105858       0.00104032      -0.00445622
H        6.85181072       2.40748996      10.48865401       0.00378752       0.00025329       0.00248780
H        8.50882943       2.57565381       9.90623483       0.00362432       0.00023295       0.00337057
H        9.66648202       4.99061251      10.34417302       0.00139394       0.00228511      -0.00376511
H        8.66977485       6.11729646      11.28245115       0.00009210       0.00371647      -0.00640616
H        7.45300337       3.00259052      12.73244531       0.00109518       0.00842153       0.00114259
H        8.97649509       2.21534874      12.24811045       0.00117809       0.00618500       0.00490724
O        8.04541372       6.12665314       7.16256269       0.00303105       0.00083357      -0.00324112
C       10.20159463       6.91853913       7.68868181       0.00093561       0.00741056      -0.00388551
C        9.47453267       8.00439474       6.89528641      -0.00316483       0.00539666      -0.00306287
C        9.39630520       5.68934289       7.29997504       0.00470811       0.00492370      -0.00354789
C        8.02262852       7.56874904       7.03944069      -0.00158882       0.00097007      -0.00175862
H       11.25977341       6.82607359       7.44579232       0.00112897       0.01107641      -0.00407723
H       10.10686271       7.11530615       8.76069384       0.00036229       0.00669098      -0.00375697
H        9.63869211       9.00711023       7.28875446      -0.00659452       0.00596693      -0.00318351
H        9.78836820       7.97624567       5.84820792      -0.00388786       0.00657652      -0.00334987
H        9.75406296       5.27669854       6.34379322       0.00584437       0.00598833      -0.00364667
H        9.42653496       4.89352408       8.04774492       0.00746902       0.00523630      -0.00324148
H        7.58107040       7.99148588       7.94916519      -0.00180180      -0.00130677      -0.00089085
H        7.39816215       7.83308143       6.18691052      -0.00335211      -0.00034519      -0.00101221
