149
Lattice="13.100950728548655 0.0 0.0 0.0 13.100950728548655 0.0 0.0 0.0 13.100950728548655" Properties=species:S:1:pos:R:3:forces:R:3 energy=-347981.84375 stress="-0.0007665851153433323 -0.0005425730196293443 -0.00012169001274742186 -0.0005425730196293443 -0.0017771958373486996 -0.00019938139303121716 -0.00012169001274742186 -0.00019938139303121716 -0.0017745142104104161" pbc="T T T"
Fe       3.59825166      11.23987561       5.86338525       0.00413877       0.02749258       0.00439316
Fe       3.29461346      12.23562637       3.90987642      -0.01080456       0.00127259      -0.00213596
O        1.27858414      12.47445223       0.96015577       0.00664881      -0.00999761      -0.00800598
O        3.29309139      11.09134434       2.46690738      -0.00159568      -0.00677794       0.00313935
O        0.49344701      10.72392724       2.77030049      -0.00100482      -0.02079856      -0.02321604
O        1.74369143      13.00964012       3.58629889      -0.01757368      -0.01589090      -0.00502813
Cr       1.57818311      11.78872070       2.35200895      -0.00154245      -0.01214249      -0.01065469
Cr       5.07641574      10.97893210       2.93421865      -0.00203073       0.01053339       0.00371480
O        4.90072974      11.68722809       4.59548586      -0.00361937       0.02192366      -0.00147548
O        5.57530086       9.49254127       3.02530839       0.00529146       0.01248944       0.01168262
O        5.97396875      11.87694979       2.01466854      -0.00732315       0.01009244      -0.00052607
O        4.22547713       4.84869791       9.81706298       0.00909495      -0.00781167       0.03718579
O        5.87736246       6.95587220      10.39697886      -0.00580502       0.00885418       0.00932992
O        5.21664392       6.17147990       7.78022883      -0.03689367      -0.00081939       0.02107501
O        6.76062817       4.61982358       9.22530095      -0.00226498       0.01526570      -0.00231951
Cr       5.51676009       5.64431027       9.26717772      -0.00955305       0.00408781       0.01721424
Cr       5.66150398       8.71600190      10.47143041      -0.00979012       0.00945914      -0.00346768
O        6.27122555       9.23112070      11.85453875      -0.02411222       0.02365506      -0.00311542
O        6.37241711       9.44378301       9.21397784       0.00471997       0.00413382      -0.00050235
O        4.08021729       9.04723634      10.40926497      -0.00788760       0.00374800      -0.02313107
O        9.47232701      12.00091171       6.69974796       0.00359768       0.00119990       0.00395221
O        9.04834953       9.78097836       8.21096268      -0.00414103      -0.00552139      -0.01530214
O        6.95677711      11.26892943       7.15139237       0.00051522       0.00891920      -0.00472474
O        8.31326587      12.20821971       9.17693961      -0.00088773      -0.01258647       0.00566792
Cr       8.33911524      11.26911190       7.90183255      -0.00223637       0.00053025      -0.00056595
Cr       9.11881434       8.08717577       8.98501433      -0.00346199       0.00442243       0.00279617
O        8.81828741       8.09147516      10.54292449      -0.00273040       0.01801797       0.00235677
O        8.11942972       7.13323313       8.20243365      -0.00688124      -0.00231481       0.01101208
O       10.63668198       7.60827135       8.73177312      -0.00748682       0.00278628       0.00423262
C       11.17777565      10.37429811       6.38765599       0.01176885      -0.01837409       0.02429479
C       10.87352293      11.75719851       6.81334500       0.00037223      -0.00477837       0.00822226
C       11.86848492       9.51226924       7.18434096      -0.00831419       0.01139208      -0.00454587
C       11.40222637      12.13197218       8.14276307       0.00878526      -0.02415031       0.02255577
C       12.28373221       9.92412926       8.45551121       0.01050177      -0.01261067       0.01568714
C       12.07350079      11.23450848       8.91627633      -0.01244299       0.00637931      -0.00719976
H       10.79851180      10.07319051       5.41865958      -0.00541213      -0.00851904       0.00771087
H       11.34286269      12.42724658       6.06546236       0.01168486      -0.00773793       0.01160556
H       12.03735860       8.48966541       6.88036906       0.00413201      -0.01069143       0.00776210
H       11.19127115      13.13833893       8.48538744      -0.00947630      -0.00654573       0.01493809
H       12.75107085       9.20053146       9.10742980       0.00729954      -0.00142565       0.00326249
H       12.42029450      11.51433402       9.90316141      -0.00015257      -0.00760289       0.01616764
C        3.73050103       7.22520109       5.60795819      -0.00830559      -0.01971088      -0.01452500
C        3.14878264       5.96721461       5.54693628      -0.01001196      -0.01642331      -0.01141514
C        3.46236840       8.14696996       4.61197891      -0.01388557      -0.01826725      -0.01933004
C        2.32717521       5.63738875       4.47424880      -0.01208152      -0.02236399      -0.00275079
C        2.63334221       7.83879360       3.54574341      -0.01611981      -0.02576946      -0.01177067
C        2.07341529       6.56935939       3.47234502      -0.01741569      -0.02460948      -0.00896683
H        4.39126218       7.45158008       6.43592254      -0.00713968      -0.01612531      -0.01832181
H        3.35778039       5.27003852       6.34633218      -0.00772155      -0.01483642      -0.00663638
H        3.93497125       9.11939879       4.67249787      -0.01740361      -0.01831573      -0.02092231
H        1.89248367       4.64707487       4.41230795      -0.01518517      -0.02114338       0.00193570
H        2.44236711       8.56771400       2.77171050      -0.02013352      -0.02761346      -0.01505713
H        1.45991920       6.30683451       2.62101063      -0.01947439      -0.02827608      -0.00325108
C       10.50179141       0.37179929       3.62818242       0.00491479      -0.00960138       0.00399125
C       11.48285929       0.53997142       2.65751336       0.00222043      -0.00698817       0.00470623
C       10.37527087       1.29650844       4.65945513      -0.00099221      -0.00966657       0.00344042
C       12.33484845       1.63756726       2.71357041      -0.00145781      -0.00261040       0.00212513
C       11.23254223       2.38947973       4.72289411      -0.00455727      -0.00451563       0.00083186
C       12.20897498       2.55912688       3.74681428      -0.00669098      -0.00268267       0.00167916
H        9.82179759      -0.46944184       3.57763687       0.00833713      -0.01337582       0.00632327
H       11.58841097      -0.18263284       1.85780401       0.00645729      -0.00758703       0.00563836
H        9.60476053       1.16215185       5.40866775       0.00102021      -0.01152702       0.00277123
H       13.10342325       1.75781802       1.95996853      -0.00260098      -0.00068354       0.00286624
H       11.13418222       3.11250478       5.52201813      -0.00877356      -0.00457926      -0.00011893
H       12.87223463       3.41448470       3.79829809      -0.01076712       0.00113566      -0.00004509
C        6.36029093       3.15210198       3.16030437      -0.00272232       0.00368955       0.00076354
C        7.53313949       3.89610670       3.08891483      -0.00250651       0.00821228       0.00545302
C        6.26696724       1.93726985       2.49452349       0.00573412       0.00580344      -0.00216903
C        8.60604757       3.43068524       2.33982312      -0.00162151       0.01267874       0.00960032
C        7.33871939       1.47509544       1.74117831       0.00700098       0.00964269       0.00136508
C        8.50435658       2.22331361       1.66317329       0.00816019       0.01494543       0.00587845
H        5.51721217       3.52312802       3.72668941      -0.00412941      -0.00019314      -0.00074568
H        7.60477292       4.84334614       3.60807155      -0.00858643       0.00666769       0.00902875
H        5.36129699       1.34724361       2.56235435       0.00652510       0.00202593      -0.00610751
H        9.51914222       4.00684010       2.27700938      -0.00136283       0.01625107       0.01373612
H        7.25962463       0.53271745       1.21915853       0.01345100       0.01125425      -0.00084422
H        9.33386254       1.86779690       1.07043818       0.00904733       0.01856850       0.00842875
C        1.70381066       0.45788745      10.47972210      -0.00292351      -0.00805674      -0.00457603
C        2.70970639       0.43876626      11.43770273      -0.00290543      -0.00968802      -0.00438742
C        0.80405734       1.51727307      10.43139067      -0.00094275      -0.00628604      -0.00589329
C        2.81319942       1.48098663      12.35157238      -0.00134201      -0.00780193      -0.00459163
C        0.90563037       2.55557420      11.34926431       0.00095035      -0.00570406      -0.00570611
C        1.90819742       2.53321520      12.31052088      -0.00005842      -0.00744346      -0.00703175
H        1.62229231      -0.35455117       9.76918640      -0.00501865      -0.00793502      -0.00373322
H        3.40193969      -0.39267648      11.47820602      -0.00458832      -0.00978282      -0.00346062
H        0.02636493       1.53601000       9.67737555       0.00006422      -0.00660897      -0.00595733
H        3.59295314       1.46575593      13.10292374      -0.00129552      -0.00836577      -0.00575025
H        0.20730277       3.38293837      11.31451946       0.00194374      -0.00523518      -0.00764816
H        1.98432134       3.33977677      13.02683097       0.00223199      -0.00582650      -0.00825372
C        4.03741889       5.24133106       0.56581135      -0.00376235       0.00421694      -0.00767700
C        5.19035341       5.83541015       1.06599885      -0.00866064       0.00912548      -0.00163525
C        3.06190580       6.02175391      -0.04042049      -0.00427538       0.00087800      -0.01134280
C        5.36143009       7.20863868       0.97808176      -0.01512778       0.00950202      -0.00013763
C        3.22869320       7.39868291      -0.12399745      -0.01056029       0.00091261      -0.00876109
C        4.37018822       7.99161754       0.39839406      -0.01583883       0.00597730      -0.00286368
H        3.93006071       4.16424833       0.61674546       0.00110925       0.00419244      -0.00983413
H        5.97037447       5.21464188       1.48353290      -0.00800577       0.01228986       0.00094777
H        2.18751223       5.55945357      -0.48059180       0.00036524      -0.00297315      -0.01612236
H        6.27545920       7.66863642       1.32518708      -0.01833458       0.01339127       0.00345531
H        2.49998132       8.00844932      -0.64011059      -0.01100436      -0.00236256      -0.01204589
H        4.52890252       9.05328909       0.28214520      -0.02102724       0.00682703       0.00018921
C        9.52559988       2.90048519      11.47855330       0.00811462       0.00666935      -0.00782414
C        9.42002559       4.27310785      11.69638857       0.00835074       0.00713781      -0.00876234
C        8.38127520       2.11253513      11.41016850       0.01032191       0.00503016      -0.00163830
C        8.17380495       4.86412591      11.84349189       0.00599039       0.00431219      -0.00209001
C        7.13647334       2.69937038      11.58644323       0.00967053       0.00352423       0.00440263
C        7.03164460       4.06990181      11.78866303       0.00935167       0.00211138       0.00503497
H       10.50122213       2.44265675      11.35361603       0.00843681       0.00877941      -0.01290701
H       10.30777423       4.89365014      11.71159112       0.00560245       0.00814056      -0.01467005
H        8.45926191       1.05112956      11.20274597       0.01072774       0.00513431      -0.00121329
H        8.07865971       5.93988978      11.92719372       0.00561689       0.00402108      -0.00214865
H        6.23742428       2.10026917      11.52182087       0.01082736       0.00122959       0.00910467
H        6.05665241       4.52972078      11.86709316       0.00779185       0.00047435       0.00951059
C       10.79589657       4.32269813       8.26415107       0.00939070       0.00025837      -0.00695287
C       12.00863668       4.73917161       7.72505882       0.00792307      -0.00157731      -0.01161186
C        9.59613870       4.67028328       7.65696584       0.00819463       0.00110617      -0.00009166
C       12.02517598       5.50546951       6.56628059       0.00217874      -0.00083306      -0.01233347
C        9.61601056       5.43068230       6.49177330       0.00246876       0.00217490      -0.00045597
C       10.82486228       5.84588603       5.94954650       0.00138447       0.00014624      -0.00548807
H       10.77437654       3.75098408       9.18297473       0.01362028      -0.00089223      -0.00691858
H       12.93939604       4.48914492       8.22064083       0.00912429      -0.00257509      -0.01646064
H        8.64710700       4.40907293       8.11346114       0.00954732       0.00213991       0.00277011
H       12.96808755       5.84505610       6.15430475       0.00145486      -0.00239653      -0.01559698
H        8.67910787       5.73420121       6.04591296       0.00108901       0.00278254       0.00493556
H       10.83248811       6.45731451       5.05503425      -0.00269130       0.00035340      -0.00605370
C        4.02525873      11.62332920       7.90776983       0.01292259       0.00885943       0.00707147
C        3.15057358      12.58715747       7.36702056       0.00363839       0.00810274       0.02394053
C        3.73684347      10.25899283       7.77031576       0.02428418       0.00846259      -0.01283753
C        1.97550297      12.18767501       6.69267425       0.00246301       0.00802541       0.02387430
C        2.56236363       9.86550280       7.11214372       0.02345395       0.00890827      -0.01174936
C        1.69452954      10.81728053       6.55045080       0.01162991       0.00732882       0.01032829
H        4.96931643      11.91543269       8.34017655       0.01161188       0.01145466       0.00686783
H        3.43032498      13.62800871       7.38500284      -0.00567519       0.00894129       0.03856792
H        4.46027143       9.53736861       8.12490352       0.03515953       0.01172310      -0.03230584
H        1.35879772      12.91648454       6.18579993      -0.00522359       0.00884561       0.03952048
H        2.36593569       8.81559952       6.96141719       0.03162940       0.00842658      -0.02766831
H        0.87109185      10.49969355       5.92831219       0.00788787       0.01014692       0.01282980
C        6.96378380       1.66878365       7.67379792       0.00231168      -0.00212634      -0.00765565
C        6.01424705       1.38125913       8.64559924       0.01032843       0.00426455       0.00132196
C        6.67664184       2.58206948       6.67002452      -0.00228505       0.00000366      -0.00562735
C        4.78010498       2.01444834       8.61668790       0.01457177       0.01078755       0.01317230
C        5.43196425       3.19694111       6.62678849       0.00153179       0.00685723       0.00704317
C        4.48229969       2.90837330       7.59549181       0.00985035       0.01234926       0.01588197
H        7.93583719       1.19661968       7.72449935      -0.00072353      -0.00744302      -0.01839205
H        6.25813367       0.67460082       9.42887751       0.01455504       0.00306644      -0.00053327
H        7.42952056       2.83547111       5.93506724      -0.00810558      -0.00592545      -0.01283617
H        4.04915477       1.83340662       9.39395688       0.02142075       0.01658921       0.02094705
H        5.22144493       3.94520358       5.87583604      -0.00140865       0.00877973       0.00945170
H        3.52961903       3.42028850       7.59713654       0.01434191       0.02011047       0.02743614
