148
Lattice="11.46963194062541 0.0 0.0 0.0 11.46963194062541 0.0 0.0 0.0 11.46963194062541" Properties=species:S:1:pos:R:3:forces:R:3 energy=-281702.75 stress="-0.004237677901983261 -0.00018068967619910836 0.0014401546213775873 -0.00018068967619910836 -0.00018076409469358623 0.0007747103227302432 0.0014401546213775873 0.0007747103227302432 -0.003462626365944743" pbc="T T T"
Fe       8.35888851      11.70022506       5.82542900      -0.00540525       0.00257604       0.00034876
Fe       8.80606711      11.08292244       8.83336557       0.00104804      -0.00066088       0.00274953
S        3.29545715       6.94423387       5.31633205      -0.00111175       0.01017439       0.00424671
S        1.26938600       5.81430421       1.33228352      -0.00961977       0.00204611       0.00296906
S        1.44093224       7.64355351       4.21204064      -0.00239649       0.00251377       0.00333172
S        2.10766995       7.63992205       2.25999761      -0.00267787      -0.00421360       0.00384088
O        4.36084459       7.59292763       4.58873461      -0.00241309       0.01322889       0.00136936
O       -0.14106390       6.08708265       1.15780565      -0.00870991       0.00594947       0.00382406
O        3.18884197       5.50676332       5.18651139       0.00557818       0.00779760       0.00159346
O        3.01472506       7.47882768       6.63790630      -0.00084531       0.00676656       0.00074315
O        2.05806299       5.89126893       0.12124607      -0.00995034       0.00581285       0.00189078
O        1.57945913       4.72984956       2.24032087      -0.01153514      -0.00139713      -0.00254267
S        4.94044558       2.06014689       6.22296404      -0.00341266      -0.01101613       0.00518525
S        6.85796627       1.20003947      10.05272926       0.00268233      -0.00522909      -0.00190783
S        6.18824626       0.18617538       6.69501827       0.00312805      -0.00480381       0.00285956
S        7.56541610       1.25961793       7.92232378       0.00388086       0.00219950       0.00207224
O        5.78734237       3.14097138       6.69318727      -0.01589555      -0.00821978       0.01746124
O        5.73286351       0.29504274      10.11994025       0.00004238       0.01401597      -0.00573611
O        3.75302058       1.82812815       7.02129003      -0.00856054      -0.02582441      -0.00359350
O        4.74260340       2.00944874       4.79308105       0.00632149      -0.00402297       0.00423360
O        8.13462621       0.58099271      10.51847955      -0.00222909      -0.00303954       0.00217800
O        6.63845590       2.53542176      10.53569942       0.01029579       0.01044285       0.00264671
S        8.96215112      10.62712431       3.34462469       0.00134885       0.00835159      -0.00027323
S        9.31829639       7.95571495       6.99824922      -0.00729519       0.00253057      -0.00240876
S       10.23876229      11.72080363       4.53809667      -0.00353384       0.01064211       0.00363025
S        9.52747432      10.14773513       6.98898921      -0.00439896       0.00089099      -0.00147311
O        7.73611536      10.84629925       4.24267757      -0.00121146       0.00354035      -0.00194246
O       10.68166507       7.55782543       6.63638410      -0.00597072       0.00061011       0.00372508
O        9.32835715       9.23242116       3.27477299       0.00505942       0.01138330      -0.00119971
O        8.73443429      11.25174610       2.04990227       0.00211549       0.01103222       0.00132442
O        9.01078561       7.57926661       8.38167910      -0.01173161       0.00290781      -0.00263584
O        8.31208770       7.61095519       6.01964352      -0.00279653       0.00329491      -0.00459397
N        0.89509032       8.12064158       9.24410071      -0.01146310      -0.00458957       0.00551786
H        1.19750864       7.38711534       9.87921545      -0.01270921      -0.00042614       0.01066563
H        1.74504929       8.50297689       8.84037245      -0.01053475      -0.00053632       0.01176661
H        0.42131538       7.66155588       8.47160769      -0.00293061      -0.00955902       0.00346215
N        6.50921233       1.96766947       2.40736476      -0.00872383       0.00210427      -0.01143467
H        6.03857017       2.48108420       1.66220142      -0.00411977       0.00437345      -0.01171502
H        5.77661771       1.64317430       3.02753922      -0.01281442      -0.00174938      -0.01848488
H        6.98658698       1.16436642       2.01301740      -0.00544196       0.00403953      -0.01178707
N        7.31627406       9.75167674       8.95111229      -0.00082687       0.00285617       0.00939310
H        7.71304821       8.80783527       8.95798233      -0.00188099       0.00194067      -0.00375015
H        6.67655031       9.78632932       8.16050961      -0.01248991       0.01143661       0.02016172
H        6.73902502       9.89678942       9.77460967       0.01345405      -0.00363287       0.01939180
N        9.17497139       5.63576877       2.91953723      -0.00414944      -0.00563847       0.00336096
H        8.86293683       6.25427049       2.12148882      -0.00384508      -0.00284326       0.00502247
H        8.37048949       5.42170731       3.57399298      -0.00382558      -0.00640144       0.00253257
H        9.48071070       4.75052611       2.47518653      -0.00396234      -0.00436854       0.00147991
N        4.25143190       3.58611549       0.75649617      -0.01138777       0.00334507      -0.00079051
H        4.04229008       4.14886817      -0.06089510      -0.01915409       0.00652218       0.00410074
H        3.50013207       3.77102755       1.41343788      -0.00798929      -0.00244950       0.00537682
H        4.16394758       2.60036834       0.49554241      -0.01066125       0.00457078      -0.00396097
N        9.12049526       3.22791597       1.34793339       0.00037449      -0.00027688      -0.00163098
H        9.47739801       2.30870927       1.11138355       0.00043713      -0.00137243       0.00229381
H        8.94762606       3.71117725       0.46999985       0.00614199      -0.00158341      -0.00286356
H        8.20569211       3.04763660       1.75898286      -0.00160111       0.00159892      -0.00664168
N        5.57795005       6.14498080       1.95243409      -0.00664685      -0.00030065       0.00689735
H        4.72634390       6.67930636       2.07716901      -0.00314182       0.00451902       0.00946578
H        5.31641777       5.26020677       1.51539541      -0.01185525       0.00274763       0.00502510
H        6.16184362       6.65775119       1.30752802      -0.00408903      -0.00228077       0.00772420
N        8.35875067       4.89107926       9.77246395       0.00498756       0.00833301       0.00182457
H        9.22713920       4.45875676       9.47318165       0.00274470       0.00573908      -0.00232539
H        8.12199331       5.58954593       9.07529273       0.00915116       0.01418847       0.00517049
H        7.63769463       4.18029570       9.75692338       0.00273293       0.01384836      -0.00215110
N        3.57819223       8.62051008      -0.14785700       0.01369116       0.00426243       0.00017931
H        2.86781860       9.24885716      -0.50668491       0.00403082      -0.00116017       0.01004174
H        3.56392320       7.74080596      -0.65217963       0.00165701      -0.00074759       0.01004687
H        4.47908684       9.05720398      -0.29199094       0.00750437       0.00358412      -0.03227498
N        6.01585242       6.26367830       7.37768678      -0.00172414       0.00124743       0.00375906
H        6.77719860       6.52420690       6.76001932      -0.00351945       0.00414097       0.00276653
H        5.22637716       6.85711178       7.15859909      -0.00434580      -0.00134999       0.00535152
H        5.73422884       5.30711733       7.19673691       0.00143094       0.00085968       0.00399606
N        0.35510527       2.46990814      11.16516055       0.00751421      -0.00629425      -0.00045092
H        0.18397961       3.18174337      10.45224490       0.00845110      -0.00694679      -0.00074691
H        1.36578273       2.40217785      11.25445424       0.00695695      -0.00506204       0.00258076
H        0.03577784       2.87414929      12.04027663       0.00499063      -0.00633716      -0.00113651
N        1.74254243      10.86808685       6.04605693       0.01256227      -0.00012436      -0.01507371
H        0.88167629      10.63434856       5.56154235       0.01443034       0.02304728      -0.02816060
H        1.75253130      11.87512447       6.16815748       0.02333235      -0.00482905       0.01177852
H        1.69495457      10.46541531       6.97531956      -0.00241965      -0.02353503      -0.02741775
N        5.33196192       6.18669776      10.23610254      -0.00432795      -0.01130782       0.00386867
H        5.78597238       5.39937446      10.68396621      -0.00878704      -0.01466554       0.00121668
H        5.58877107       6.99733720      10.78434865      -0.00368412      -0.01498190       0.00917235
H        5.75141673       6.28913598       9.30599406      -0.00116953      -0.00713591       0.00603303
N        9.76156718       9.88962866      -1.32451213       0.00764775      -0.00262102      -0.00205904
H       10.23856978       9.07396390      -1.71443046       0.04377857       0.02132598      -0.00345843
H        9.09620866       9.55975201      -0.63153592       0.00609177      -0.03893076      -0.02236757
H       10.45869317      10.40274811      -0.79512555      -0.02253050       0.01036188       0.02421719
N        0.38751019      10.57500096       1.96789757       0.00585549       0.00983042       0.00170578
H        1.10745803      10.41539244       1.27128269       0.00322068       0.00582986       0.00043310
H       -0.30399250      11.19462941       1.56165253       0.00847358       0.01316914       0.00246586
H       -0.08037301       9.69556204       2.14998053       0.00134489       0.01241738       0.00262246
N        3.76213220       0.58549646       0.84967061      -0.00863945       0.00522183      -0.00068352
H        3.16889431      -0.07282771       0.35556494      -0.00515938      -0.00018981       0.00254765
H        3.32527303       0.78405886       1.75400248      -0.00990026       0.00785107      -0.00139120
H        4.66317416       0.15162619       0.99061660      -0.00785619       0.00991499       0.00264577
N        8.05930018       2.07384452       5.05100995      -0.01596762      -0.00092667      -0.00355397
H        7.46899621       2.70028246       5.59696385      -0.01225507      -0.00051799      -0.00113878
H        7.64222056       2.03224461       4.10900398      -0.02339038      -0.00472743       0.00037631
H        8.95650953       2.53120146       4.92958816      -0.01866093       0.00118230      -0.01384375
N        1.43582876      -0.58817801      10.54288874       0.00768833      -0.00384124      -0.00672062
H        2.02031091      -0.37388405       9.73538556       0.01232181      -0.01259016      -0.00483625
H        0.87066633       0.21264149      10.79830930       0.01505326       0.00258163      -0.01118839
H        0.87694322      -1.38984050      10.26659988      -0.00193229       0.00328773      -0.00619921
N        0.39361543       6.39382064       4.42698597      -0.00190022       0.00461602       0.00856164
H        0.83029095       5.47083401       4.50174149      -0.00567207       0.00327095       0.02260055
H       -1.50232692       6.07654144       3.38043844      -0.00421500      -0.00692780       0.00455210
H       -0.18096993       6.62569404       5.25106874      -0.00723691       0.01345713       0.00250223
N        0.77515292       3.53153240       5.80415785       0.00899442       0.02016698      -0.01585851
H        0.63097870       2.63590674       5.35089539      -0.00627945       0.01899672      -0.00725754
H        0.62274232       3.40713818       6.79958321      -0.00149529       0.03511669      -0.01625054
H        1.76219658       3.74787710       5.70306737       0.01373826      -0.00241160      -0.00913702
N        8.60322905       7.11846140       0.58982101      -0.00464779       0.00457266       0.01091078
H        8.42568981       6.49354760      -0.19854791       0.00090201       0.00724675       0.00870696
H        9.54846876       7.46811018       0.50238155      -0.00573149       0.00908391       0.01650262
H        7.94013608       7.88616597       0.60854533      -0.00845550       0.00143640       0.01446407
N        2.90915800       4.69059137       8.51937336       0.00365606      -0.00504684      -0.00724626
H        3.37313175       3.79177210       8.45342732       0.00238481      -0.00535193      -0.00816242
H        3.42791463       5.25072758       9.19373382       0.00475846      -0.00650389      -0.00720406
H        3.02230756       5.14419245       7.61997750       0.00411435      -0.00446787      -0.00688630
N        4.68791303      10.65486703       5.08640995       0.01881491      -0.00037778       0.00671035
H        4.80822331      11.17379162       4.22740626       0.03100013      -0.00649274       0.00508954
H        3.69545285      10.67896671       5.35352811       0.01683186       0.00644503      -0.00248921
H        4.96657144       9.69093838       4.93766759       0.01462103      -0.00245193       0.01524782
N       11.39262758       4.79245413       9.02694641       0.00506234      -0.00282375      -0.00293950
H       11.00645937       5.29001249       8.23042547       0.00393356       0.00591704       0.00305066
H       12.41724313       4.78619486       8.90565059       0.00439499      -0.00310845      -0.00469098
H       11.19852223       5.38048184       9.83231942       0.00738335      -0.01015949       0.00283152
N        3.48169589      -0.80505709       8.42978226       0.01008511      -0.04232876      -0.00879575
H        3.73829256      -1.60659544       7.86653035      -0.00014593      -0.04762881      -0.00671726
H        3.56453821       0.01899089       7.84359885       0.01195106      -0.04544169      -0.01246882
H        4.17405433      -0.69092806       9.16024431       0.01284473      -0.04429271      -0.01257578
N        6.81986771       4.89955599       4.22231288      -0.00714698      -0.00421353       0.00461119
H        6.52312163       3.98085913       3.90673635      -0.01313549      -0.00255239       0.00624837
H        6.30477305       5.54744027       3.60518563      -0.00486980      -0.00247511       0.00499131
H        6.45838089       5.01448132       5.15975150      -0.00522335      -0.00108366       0.00499076
N        2.11136562       1.49928682       3.21023474      -0.00064594       0.01243834       0.00441116
H        1.42945575       0.74703194       3.24330951      -0.00033569       0.01218116       0.00233248
H        1.64702713       2.37612090       3.01154456      -0.00119373       0.01365247       0.01293001
H        2.59201303       1.58592828       4.09451871       0.00330186       0.00498396       0.00271052
N       10.38765470       0.87896488       8.86831465       0.00361824      -0.00517073      -0.00004224
H       10.26792181       1.70241040       8.28598842       0.00637836      -0.00716463      -0.00362584
H       10.62671906       1.24853880       9.79656279       0.00363663      -0.00224079      -0.00131565
H       11.22574552       0.41217347       8.53118013       0.00199795      -0.00851914       0.00289251
N        6.28333785       9.13230339       1.65471787       0.01286594       0.00029898      -0.01320010
H        5.27140564       9.10361695       1.73730943       0.01229028      -0.00241222      -0.02926643
H        6.57914075      10.09582161       1.75754099       0.01000383       0.00191408      -0.02052224
H        6.65013885       8.63859740       2.46279793       0.00342873       0.01012444      -0.00331418
