147
Lattice="12.95380826811813 0.0 0.0 0.0 12.95380826811813 0.0 0.0 0.0 12.95380826811813" Properties=species:S:1:pos:R:3:forces:R:3 energy=-323141.46875 stress="-0.00029320502653717995 0.0007957008201628923 3.403182563488372e-05 0.0007957008201628923 -0.0010349743533879519 0.0005159509310033172 3.403182563488372e-05 0.0005159509310033172 -0.0010512160370126367" pbc="T T T"
Fe       9.51970385      12.93735106      10.31081883      -0.01220734      -0.01286271      -0.01166344
Fe      10.04909276      10.73325429       6.18758466      -0.00069080       0.00523375       0.00964348
S        8.29764016      11.75261219      -0.08560096      -0.02745007      -0.00258474      -0.01681014
O        9.11937505      12.00697878       1.09265992      -0.03237057       0.01925930      -0.01608884
O        7.71539340      10.41596235      -0.11043223      -0.01786321      -0.00639820       0.00122726
O        7.30788505      12.79313974      -0.34593503      -0.03097475      -0.01243520      -0.03594291
O        9.32308171      11.77424024      -1.29378426      -0.02291709      -0.01350516      -0.01289713
S        8.51094555      11.34646467       8.59993053      -0.02110005      -0.00740576      -0.01007332
O        9.91885938      11.38010774       9.13527712      -0.02078772      -0.01574676      -0.01215996
O        8.00291918      12.64229387       9.23978802      -0.01369831      -0.00473899      -0.01067477
O        8.52481765      11.50953146       7.12105683      -0.01901530      -0.00873684      -0.01036680
O        7.74739850      10.19933408       9.00516965      -0.02825814      -0.00303513      -0.00996047
S       12.28636427      11.63874929       5.38365605       0.01169123       0.00372296       0.04374249
O       13.39935083      11.91864609       6.25727474      -0.01269150      -0.00045234      -0.01570493
O       12.51747085      11.92140532       3.98517136      -0.00855643       0.00987837      -0.01674664
O       11.77748035      10.18582733       5.57814136      -0.00169268       0.00511110       0.00466144
O       11.01531339      12.34751010       5.89193291       0.00083256       0.00376904       0.01151609
S       11.02910287       1.67473735       2.25476856       0.00215137      -0.00487256      -0.01111668
O       10.62616580       2.85100947       1.40951106      -0.00331610      -0.00388336      -0.00550318
C        9.63142380       1.27077843       3.29966204       0.00569230      -0.01451930      -0.01082075
C       12.06305882       2.36440493       3.56640250       0.00179461      -0.00705642      -0.01011735
H        8.86600776       0.87558933       2.63578923       0.00574257      -0.01146065      -0.01242575
H        9.29226493       2.16982367       3.81632560       0.00550272      -0.01839074      -0.00449817
H        9.94023206       0.49878665       4.00486726       0.00847810      -0.01860455      -0.01671489
H       12.31445113       1.56586336       4.26307969       0.00363628      -0.00857422      -0.01275211
H       11.51069226       3.16906998       4.05468404      -0.00039589      -0.01021175      -0.00771017
H       12.96523011       2.75430326       3.09784230       0.00055613      -0.00329151      -0.00916114
S        8.06436861       9.85301413       4.01141224       0.00709659       0.01043785       0.00376341
O        9.17106484      10.80380244       4.54823818       0.00791013       0.00858736       0.00429970
C        8.81183038       9.18817842       2.53048755       0.00785017       0.01747230       0.00167173
C        6.89508416      10.98230556       3.29490747       0.00310817       0.00948995       0.00928740
H        9.55658829       8.46519423       2.85278330       0.01600479       0.02542916       0.00076117
H        9.24910369      10.02313809       1.98379131      -0.00151147       0.02124122       0.00011487
H        8.04577656       8.71249849       1.91841071       0.01113637       0.00963594       0.00395352
H        6.23534822      10.40514524       2.64759810       0.00121033       0.00845011       0.01221163
H        7.44836933      11.71138848       2.70707544      -0.00138444       0.01043475       0.00638387
H        6.32262684      11.44274710       4.09376323       0.00583966       0.00786272       0.01206802
S        3.36036882       3.77623033      10.83401775      -0.00404179       0.00714710      -0.00551617
O        4.69613886       4.39367020      10.60921741      -0.00386024       0.00553727      -0.00906447
C        3.54713645       1.98793064      10.61974858      -0.00477700       0.00630611       0.00268672
C        2.43556383       4.05633216       9.30881352      -0.00506210       0.00074250      -0.00578845
H        4.06029132       1.60519843      11.49898406      -0.00399372       0.01015665       0.00378419
H        4.14582607       1.80313773       9.72754327      -0.00582752       0.00208998       0.00294767
H        2.56354897       1.52632772      10.53666544      -0.00491847       0.00630223       0.00568815
H        1.50010629       3.49912111       9.34891591      -0.00471135       0.00061381      -0.00285029
H        3.04955595       3.74390722       8.46404197      -0.00575285      -0.00266467      -0.00500478
H        2.24036770       5.12550258       9.26065369      -0.00528088       0.00042218      -0.01010100
S        4.49157222       1.47814761       3.62950353       0.00205597      -0.00108528      -0.00035596
O        4.87899992       0.23378379       2.90890340      -0.00378352       0.00302732      -0.01113009
C        2.85122248       1.23595115       4.35054174       0.00454986      -0.00324403       0.00164151
C        3.99856137       2.63036777       2.34501221       0.00016290       0.00977275       0.01074916
H        2.91993824       0.41809934       5.06406794       0.00296605      -0.00868447      -0.00507897
H        2.13321606       0.96674501       3.57737801       0.00278185       0.00422235       0.00082529
H        2.55769399       2.16503441       4.84043565       0.00601992      -0.00702950       0.00882341
H        3.59481515       3.55017108       2.76241622       0.00412466       0.00727464       0.01995592
H        3.26649150       2.13910743       1.70249654      -0.00415935       0.01651849       0.01065976
H        4.88831932       2.87524405       1.77171212      -0.00266077       0.01206012       0.00807518
S        7.56008979       4.48865715       3.08462272       0.02145076      -0.00368959      -0.00103712
O        8.03457856       4.14043265       4.46637012       0.02597696      -0.00827885      -0.00373948
C        8.91158369       5.38340847       2.31268250       0.01263756       0.00975367      -0.00113156
C        6.44474405       5.88909204       3.21736587       0.01215979      -0.01135790       0.00768161
H        9.66878653       4.64341692       2.04969554       0.01850550       0.01646572      -0.00236551
H        9.29294308       6.09010399       3.05201270       0.00681569       0.01334123      -0.00150412
H        8.55285976       5.91423171       1.42946577       0.00599118       0.00645924      -0.00068812
H        6.17785804       6.17501297       2.20207619      -0.00415502      -0.01752372       0.01020744
H        6.93109063       6.70769881       3.74895439       0.01227771      -0.00509523      -0.00221311
H        5.54534197       5.58970077       3.74896703       0.02159354      -0.01684088       0.02043645
S       11.54935226       1.90191649       9.04429767      -0.00412166      -0.01473379      -0.00242352
O       10.22240622       1.16865272       8.90114222      -0.00268173      -0.01724321      -0.00994626
C       11.14635861       3.65424868       9.15196014      -0.00478995      -0.01515132       0.00203842
C       12.19508664       1.90193563       7.38085879       0.00234165      -0.00598734       0.00088006
H       10.79300384       3.84915244      10.15964226      -0.00488918      -0.01629316       0.00184816
H       10.37943028       3.88365984       8.41190837      -0.00354594      -0.01289950       0.00156954
H       12.05384731       4.22639808       8.95823565      -0.00390136      -0.01596093       0.00335458
H       13.03189453       2.59950758       7.33237566       0.00039075      -0.00349152       0.00860536
H       11.39054313       2.19031463       6.70530553       0.00459313      -0.00554534      -0.00138303
H       12.52814943       0.88960158       7.15677512       0.00698925      -0.00464571      -0.00194863
S        8.36478858       2.21289501      12.21038398      -0.00469065      -0.01077133      -0.01097453
O        9.49969397       1.54226948      11.38474496      -0.00630718      -0.01327628      -0.01107746
C        6.94354052       2.22464056      11.13099198       0.00034320       0.00837965      -0.01724517
C        8.78477986       3.93921953      11.99507931       0.00932873      -0.01250374       0.00435141
H        6.53450407       1.22120087      11.16700387      -0.00738985       0.01133290      -0.02758852
H        7.26189750       2.48630780      10.12306346       0.00704585       0.01417220      -0.01350452
H        6.24140938       2.97104982      11.49998237       0.00372660       0.01025501      -0.01464089
H        8.00358591       4.53069449      12.47465060       0.01344171      -0.01084920       0.00878096
H        8.82210181       4.17645452      10.93293057       0.01122321      -0.00399136       0.00652213
H        9.73738413       4.10952641      12.48990241       0.01006556      -0.02483882       0.00681822
S        9.74435770       7.78011654       5.82457952       0.00248326       0.00363332       0.00415677
O        9.42448090       8.97480128       6.73699549       0.00603654       0.00225139       0.00697839
C        8.57942934       6.54330990       6.34443315      -0.00046504       0.00645849       0.00469965
C       11.26972975       7.10140979       6.47327465       0.00153556      -0.00030304       0.00143650
H        7.59496453       6.97015053       6.15889490       0.00110245       0.01022325       0.00575201
H        8.70396466       6.34179501       7.40551428      -0.00004385       0.00752184       0.00487518
H        8.69147589       5.64399075       5.73051015      -0.00267749       0.00534573       0.00590663
H       11.51118852       6.19536902       5.91809087      -0.00149717      -0.00023685       0.00020385
H       11.14913973       6.89689901       7.53625844       0.00261343      -0.00109613       0.00138241
H       12.02021781       7.87155451       6.30646166       0.00291315      -0.00186652       0.00127499
S        3.66839424       6.40636039       0.23505457       0.00452811      -0.00200129       0.00087833
O        4.25641214       5.19660303       0.88369905       0.00578618      -0.00325382      -0.00279093
C        4.30679629       7.83049449       1.13232578       0.00269875      -0.00497144       0.00638455
C        1.96580240       6.52059845       0.82899420       0.00425828      -0.00613141       0.00027373
H        5.34746617       7.95762620       0.83233540       0.00333093      -0.00468301       0.00921483
H        4.22901552       7.63810453       2.20345887       0.00014942      -0.00778101       0.00568387
H        3.75069150       8.71987188       0.84422419       0.00397304      -0.00388592       0.00752666
H        1.51232079       7.43488088       0.44685767       0.00225642      -0.00746937       0.00005691
H        1.96278028       6.50022540       1.91869805       0.00359735      -0.00617703       0.00021079
H        1.43908802       5.65526848       0.43244494       0.00672540      -0.00740980      -0.00003058
S        4.08477800       9.24860045      10.91915585      -0.00457406      -0.00974184       0.00265169
O        2.96310997       9.22096166       9.92295179       0.00220001      -0.02275954      -0.00412190
C        5.09271336      10.70203895      10.60685900      -0.02080899       0.00327593       0.01099652
C        5.29471510       8.02663489      10.38988006       0.01383775       0.00633180       0.00868458
H        4.50899811      11.57418167      10.89437757      -0.03176600      -0.00442629       0.01187073
H        5.36172232      10.73961888       9.55281734      -0.01748125       0.00927235       0.01220518
H        5.99285867      10.64147906      11.22305348      -0.02226324       0.01178971       0.01367164
H        6.12049733       8.01404437      11.10392977       0.01098219       0.01756911       0.01198067
H        5.65206121       8.28739371       9.39368278       0.01487140       0.01181021       0.01057886
H        4.79762590       7.05706474      10.38696645       0.02624038       0.00003406       0.00608762
S        3.19832365      10.36918947       3.26132826      -0.00876760       0.00143576      -0.00737166
O        3.34159484      11.07025117       4.56709421      -0.00344105      -0.00067854      -0.00895047
C        2.30740907      11.45240691       2.12726236      -0.01242244       0.00282758      -0.00376016
C        1.87428069       9.16232551       3.48628213      -0.00957716       0.00263426      -0.00440539
H        2.98477055      12.28200040       1.93580018      -0.01254834       0.00239745      -0.00635686
H        1.37322024      11.77193755       2.58981935      -0.00976729       0.00337616      -0.00007692
H        2.12019713      10.90010057       1.20575023      -0.01652322       0.00336282      -0.00313602
H        1.53611514       8.81016768       2.51370361      -0.01041956       0.00019134      -0.00297483
H        1.05819245       9.65145457       4.01752200      -0.00858372       0.00411178      -0.00444412
H        2.30254187       8.33875120       4.05796656      -0.00953642       0.00387130      -0.00249502
S        4.00356387       7.38593134       6.56818760      -0.00053358       0.00598654      -0.00283980
O        4.08219784       7.20002065       5.08141609      -0.00566776       0.00355081      -0.00313187
C        2.28138974       7.07785218       7.02536022      -0.00089991       0.01953355       0.00328793
C        3.97227222       9.14222417       6.91290867       0.01251510       0.00635624      -0.00455095
H        2.09728238       6.01213016       6.90034428      -0.01033104       0.02139464       0.00218200
H        1.64599169       7.65500033       6.35382009       0.00080835       0.02619150       0.00752102
H        2.13100623       7.38978557       8.05970523       0.00695195       0.01879719       0.00459248
H        3.66856921       9.27464145       7.95480719       0.01170551       0.00771691      -0.00511405
H        3.28317526       9.63883715       6.23041625       0.01705502       0.01050910      -0.00603706
H        4.97636599       9.52880431       6.74618216       0.01555893      -0.00091650      -0.00173045
S        9.25583260       7.15436158      11.64894057       0.01331186      -0.00572020       0.00629145
O        8.04250378       7.22656791      12.52598624       0.01419950      -0.01119336       0.00755239
C        9.99919128       8.78196504      11.54561737       0.00351600      -0.00140762       0.00814288
C        8.66488745       7.12059066       9.94241146       0.01172107      -0.00529531       0.00677150
H       10.36265295       9.04934308      12.53428702       0.00327593      -0.00120142       0.00803034
H        9.25701794       9.50602103      11.22358662      -0.00200924      -0.00555280       0.01153899
H       10.82896168       8.72831140      10.84019665       0.00243750       0.00656072       0.00642234
H        9.53695778       7.00537999       9.29867016       0.01139717      -0.00260421       0.00581930
H        8.15491633       8.05229478       9.69943465       0.00855193      -0.00671753       0.00785202
H        7.99881092       6.26442079       9.84507372       0.01386957      -0.00676392       0.00666295
