147
Lattice="12.698140365360596 0.0 0.0 0.0 12.698140365360596 0.0 0.0 0.0 12.698140365360596" Properties=species:S:1:pos:R:3:forces:R:3 energy=-216572.03125 stress="-0.00011756031744880602 -0.00040907667425926775 0.0014249912928789854 -0.00040907667425926775 -0.0023650515358895063 0.000110936576675158 0.0014249912928789854 0.000110936576675158 -0.0028988532721996307" pbc="T T T"
Fe       4.91698193      12.03030356       4.56244339      -0.02804877      -0.00399306      -0.01319661
Fe       2.80793904      12.29248389       4.80422598      -0.01898062       0.00250348      -0.00975798
S        2.65547683      11.48659496       0.97377335      -0.01570177       0.03281102       0.00515300
S        3.68022876      12.56360453       2.97795066      -0.02335660       0.01301223      -0.01355737
O        2.62356541      12.73000725       0.24513968      -0.00485431      -0.04417062       0.00931853
O        1.42408564      11.01387462       1.55131531       0.00351906      -0.01069576       0.00897276
O        3.64886627      10.50592537       0.62397655       0.01816797      -0.01468420       0.02782574
S        0.22789596      11.96927062       5.40567668      -0.01045436       0.01078209       0.03332980
S        1.65389199      10.55935962       4.80996708      -0.02126577       0.00386512       0.01849729
O       -0.56070424      12.38870736       4.27431236      -0.02392709       0.00816572       0.03910351
O        1.36040555      13.00233380       5.72083954      -0.00205374       0.00834325       0.00996718
O       -0.50140618      11.59629473       6.58843798       0.00486219       0.01989013       0.04067719
S        6.32325837      11.00196650      10.05659312       0.01866275       0.01080573      -0.00938931
S        7.52525861      12.39078431      11.08034333       0.00849450       0.01745224      -0.00168943
O        6.27849816       9.81365832      10.89377198       0.03799310       0.00530529      -0.01400506
O        7.19016426      10.88061616       8.86742820       0.00866544       0.02412170      -0.01570952
O        5.04439755      11.61520211       9.77830299       0.01099944      -0.00089860       0.00711185
O       12.18906004       9.10458315      11.04851811       0.00937739      -0.00931048      -0.00014079
C       11.45144199      10.55570651       9.33089860       0.00026846      -0.00393862       0.00947994
C       10.93390582      11.06636904      10.67134133       0.00871706      -0.00733265       0.01363118
C       11.79334605       9.11384369       9.67390324       0.00022237      -0.00507194       0.00295681
C       11.88759890      10.38172940      11.63846633       0.01505446      -0.00988179       0.00510229
H       10.72960271      10.63463234       8.52107097      -0.00330411      -0.00037887       0.01314239
H       12.34370482      11.10151921       9.02588271      -0.00108156      -0.00423661       0.00696746
H       10.96066025      12.15304729      10.75377943       0.00949388      -0.00777981       0.01594562
H        9.90022664      10.75086017      10.82708968       0.00982553      -0.00738160       0.01880223
H       10.91906392       8.46079858       9.55301359      -0.00134420      -0.00314796       0.00658560
H       12.60879488       8.70832539       9.06674659      -0.00428903      -0.00410742      -0.00360969
H       12.81388694      10.95489732      11.75689804       0.01630443      -0.01119855      -0.00050641
H       11.47095666      10.20750806      12.63243424       0.02286625      -0.01184350       0.00769228
O        7.11552274       8.34249505       7.41206687      -0.01002705      -0.00162143       0.00801075
C        9.15991750       7.29846922       6.87739881      -0.00762552      -0.00092059       0.01648781
C        8.06100716       6.23821192       6.94942227      -0.00758940      -0.00085664       0.01073800
C        8.51749784       8.44581913       7.65020290      -0.01107037      -0.00073299       0.01310846
C        6.82536321       7.10585198       6.76576779      -0.00624219      -0.00064099       0.00498624
H       10.11501975       6.98824924       7.30372771      -0.00969158      -0.00083659       0.02084638
H        9.32511184       7.58834290       5.83587329      -0.00246779      -0.00114843       0.01744863
H        8.13552642       5.45452942       6.19666867      -0.00373424      -0.00032565       0.01087761
H        8.04741799       5.76647228       7.93458296      -0.01252082      -0.00159431       0.01019850
H        8.70104825       8.36252956       8.72781186      -0.01553376       0.00027885       0.01378447
H        8.85958393       9.43506292       7.33963348      -0.01103926      -0.00081545       0.01402341
H        6.63749183       7.28563532       5.69761622      -0.00012994       0.00044543       0.00431657
H        5.91833044       6.69926116       7.20696578      -0.00866514      -0.00078580      -0.00092614
O        7.59957903      12.42959072       0.91543420       0.00178017      -0.01788232      -0.00531092
C        8.01962328      10.12286358       1.02524245       0.01349498      -0.01550025      -0.01244128
C        6.60983838      10.35721399       1.57056304       0.01415211      -0.02384144      -0.00662988
C        8.65248067      11.49416693       1.16582058       0.00686845      -0.01295149      -0.00977732
C        6.33177621      11.79892866       1.16819123       0.00607666      -0.02335528       0.00174111
H        8.56794841       9.35252379       1.56665133       0.01910325      -0.01378830      -0.01649217
H        7.96083609       9.85096313      -0.02902687       0.01127858      -0.01182367      -0.01287398
H        5.86648704       9.69264806       1.14112361       0.01528695      -0.02441411      -0.00706847
H        6.59302095      10.24493551       2.65720366       0.01804790      -0.02878616      -0.00762111
H        9.04183178      11.68048591       2.17317208       0.00701752      -0.01378095      -0.00998604
H        9.44441720      11.70423964       0.44633387       0.00471491      -0.00661765      -0.00987068
H        5.73686962      11.88285258       0.26057522      -0.00139627      -0.01995207       0.00701547
H        5.84247892      12.38635873       1.94689505       0.00969046      -0.02955496       0.00880146
O        3.62263749       6.93739430       6.19876820       0.00427136       0.00785688       0.00113210
C        1.60640739       6.08066135       5.36044122       0.00590867       0.00310707       0.00367066
C        2.02385541       7.24351844       4.47228514       0.01243031      -0.00972506      -0.01022539
C        2.38734261       6.37428153       6.62899098       0.00180653       0.01602763       0.00276339
C        3.48228633       7.45282075       4.86544995       0.00958246      -0.00263495      -0.00300649
H        0.53522417       6.04687188       5.53186765       0.00543535       0.00775870       0.00040738
H        1.91411011       5.12487424       4.93326120       0.00433441      -0.00309369       0.01733299
H        1.89456211       7.07052876       3.40517946       0.02119544      -0.02689560      -0.00807536
H        1.43156055       8.11792180       4.73268271       0.01006012      -0.00580984      -0.03017192
H        1.84881257       7.09096885       7.26394932       0.00121573       0.02385226      -0.00726399
H        2.60720972       5.48643336       7.22639284      -0.00201446       0.02273008       0.01381126
H        4.16103100       6.89721119       4.20980966       0.01580590      -0.00499028       0.00580186
H        3.77905749       8.50467283       4.85624121       0.00544991      -0.00181073      -0.00944105
O        7.59691985       2.88077926       8.99430187       0.00851488       0.00433916      -0.00476497
C        8.56644247       0.84527441       8.32590623       0.00501683       0.00506687      -0.01016964
C        9.53940702       1.97082027       8.01901607       0.00686634       0.00403650      -0.00625032
C        7.25858052       1.60068755       8.42105652       0.00665331       0.00700802      -0.00915720
C        9.01839741       3.03160305       8.97782493       0.00854069       0.00137152      -0.00292972
H        8.53363884       0.03271985       7.61106420       0.00413556       0.00786631      -0.01294468
H        8.80490221       0.39819695       9.29391125       0.00386079       0.00110389      -0.01197359
H       10.58574005       1.71150436       8.17267093       0.00623336       0.00157864      -0.00802945
H        9.42636070       2.29572901       6.98110846       0.00671782       0.00723960      -0.00497031
H        6.83929508       1.76994821       7.42039663       0.00825210       0.01105259      -0.00872672
H        6.50654417       1.11886323       9.04648993       0.00511643       0.00666064      -0.01133412
H        9.41483823       2.86396900       9.98935817       0.00740635      -0.00358814      -0.00340092
H        9.25483864       4.05838982       8.68746337       0.01081747       0.00200248       0.00157130
O       11.00550407       4.18719338       0.55945183      -0.00107318      -0.00487387      -0.01023467
C        8.97888253       3.44937211       1.51845072       0.00040042      -0.00679168      -0.01061690
C        9.67487175       2.24610358       0.88138685       0.00260434      -0.00674772      -0.00765155
C        9.65645668       4.60425839       0.79604032      -0.00230211      -0.00780836      -0.01408884
C       11.09747895       2.75682251       0.68596504       0.00146338      -0.00450611      -0.00840274
H        7.89895550       3.44234361       1.37960048       0.00070667      -0.00928375      -0.01015167
H        9.18043771       3.49004542       2.59169469       0.00122188      -0.00328523      -0.01098603
H        9.63981620       1.35553623       1.50326202       0.00416890      -0.00538269      -0.00585142
H        9.20191616       2.00203224      -0.07175772       0.00317051      -0.00962398      -0.00706017
H        9.15955449       4.80817109      -0.16098286      -0.00177583      -0.01343670      -0.01528049
H        9.68431616       5.53230613       1.37232299      -0.00591424      -0.00552118      -0.01812452
H       11.72479055       2.52356769       1.55203780       0.00175378      -0.00187682      -0.00802130
H       11.59444268       2.34971604      -0.19807962       0.00226104      -0.00476021      -0.00754106
O       11.81175038       2.66445170       5.76475303       0.00205290       0.00757474      -0.00321111
C       11.73872135       4.13831484       3.91676549       0.00298661       0.00535214      -0.00425905
C       10.95695782       4.74277194       5.07819943       0.00224739       0.00668871      -0.00549610
C       11.79260765       2.67426682       4.32808933       0.00202255       0.00596184      -0.00282088
C       11.54402498       3.97646523       6.25388988       0.00042102       0.00735056      -0.00434506
H       11.28492403       4.29633713       2.94249499       0.00415313       0.00391572      -0.00493911
H       12.74440922       4.55670215       3.87726853       0.00303054       0.00490657      -0.00344407
H       11.05527066       5.82301148       5.17235133       0.00285183       0.00659072      -0.00575098
H        9.89357539       4.50923919       4.97464606       0.00238910       0.00693470      -0.00656101
H       10.90430121       2.12851340       3.98702556       0.00208837       0.00572914      -0.00228113
H       12.66875364       2.13656124       3.96679938       0.00199527       0.00598329      -0.00202273
H       12.47989833       4.43477507       6.59917724      -0.00054681       0.00777996      -0.00269009
H       10.87307616       3.90707040       7.10963325      -0.00103059       0.00717388      -0.00575522
O        5.98851119       3.44522367       5.47944837       0.00511456      -0.00578617       0.00884183
C        4.15588929       2.93446428       6.87203348      -0.00073382       0.00670302       0.00372821
C        3.74624198       2.72109614       5.41927917       0.00146407       0.00494950       0.00355414
C        5.32610485       3.88534332       6.68748221       0.00188354       0.00273967       0.00314662
C        5.10035807       2.61230387       4.74162995       0.00194699       0.00018004       0.00539822
H        3.36402160       3.34733200       7.49487155      -0.00057420       0.01031713       0.00103714
H        4.47713414       1.99069986       7.31987027      -0.00368929       0.00730741       0.00666989
H        3.10616233       1.84887810       5.26565469       0.00061962       0.00596023       0.00433886
H        3.19913708       3.58764349       5.04286666       0.00390206       0.00504529       0.00122263
H        4.96447739       4.90770592       6.53725308       0.00402814       0.00231659      -0.00346971
H        6.05703690       3.86916761       7.49499104      -0.00120649       0.00606310       0.00565970
H        5.45862254       1.56106761       4.79374639      -0.00251998      -0.00037864       0.00302424
H        5.10628638       2.90045671       3.68752264       0.00451800       0.00371791       0.00658444
O        7.63635146       9.82796665       4.83938090      -0.02448285      -0.00167516       0.00399409
C        7.37261918      12.15702628       5.11158513      -0.02236852      -0.00038013      -0.00307963
C        8.88402450      11.84812285       5.07170168      -0.02309555      -0.00101727      -0.00850557
C        6.77573921      10.78690440       5.43124321      -0.02508098       0.00111067      -0.00306991
C        8.94961715      10.38611554       4.64409933      -0.02489427      -0.00367022       0.00077689
H        7.12677305      12.92366903       5.84870292      -0.02014138      -0.00082555      -0.00238504
H        7.06965909      12.51692988       4.10949896      -0.02413956       0.00185613      -0.00143556
H        9.44662363      12.50169455       4.40746118      -0.02771060      -0.00507553      -0.01598418
H        9.31806908      11.96748936       6.06249489      -0.01674286       0.00604927      -0.01261526
H        6.65763640      10.61388468       6.51019255      -0.03172005       0.00283612      -0.00384623
H        5.74582812      10.54668914       4.96053322      -0.02231159       0.00154594      -0.00917942
H        9.21462882      10.26489440       3.59307589      -0.02509528      -0.01089184       0.00171399
H        9.67396048       9.82560965       5.24083363      -0.02587125      -0.00040564       0.00459230
O        4.33703728       5.48215672      11.32413861       0.00115633       0.01110759       0.00373843
C        1.99946007       5.57038395      10.97687472       0.00172579       0.01090360       0.00183386
C        2.54414380       6.99702602      11.06114544       0.00192237       0.01055503       0.00077859
C        3.12931771       4.78147492      11.62851392       0.00088060       0.01094837       0.00275353
C        4.01789934       6.77350819      10.76350176       0.00139081       0.00954264       0.00090034
H        1.04471702       5.42802691      11.48129930       0.00165954       0.01160232       0.00116909
H        1.88040650       5.27045450       9.93136564       0.00220402       0.01039426       0.00198036
H        2.07319189       7.69129388      10.36806894       0.00172409       0.01014224       0.00103195
H        2.40881271       7.40173189      12.06597761       0.00245296       0.01085081       0.00076351
H        2.99586298       4.74817378      12.71837842       0.00001450       0.01162409       0.00256354
H        3.21456995       3.75132679      11.27344535       0.00126182       0.01114339       0.00349298
H        4.20033204       6.74407932       9.68139124       0.00092079       0.00720362       0.00112760
H        4.68066339       7.52281249      11.19525372       0.00201693       0.01003337      -0.00100088
