149
Lattice="11.503228143531047 0.0 0.0 0.0 11.503228143531047 0.0 0.0 0.0 11.503228143531047" Properties=species:S:1:pos:R:3:forces:R:3 energy=-232720.34375 stress="-0.00013827712973579764 0.0009811587515287101 0.00025912720593623817 0.0009811587515287101 0.00032779734465293586 -0.000362778315320611 0.00025912720593623817 -0.000362778315320611 0.0021111182868480682" pbc="T T T"
Fe       3.15401751      11.44421248       3.26892231       0.00320649      -0.00108254       0.00154996
Fe       2.48542306      10.24106280       1.85510511       0.00132311       0.00372402      -0.00102749
S       11.09973530      11.96322108       7.03031703      -0.00331193       0.00584221       0.00161171
S        9.48623069      10.68003720       6.76717860      -0.00074208      -0.00118526       0.01425467
S        2.94417844      10.66655444       5.09775070      -0.00765681      -0.00328106       0.00001124
S        1.39465200      11.11269324       7.18132802      -0.00090724       0.01051027       0.00097570
S        8.42897464      11.56738460       9.88568386      -0.00258428       0.00510141       0.01286580
S        8.82326345       9.97057431       8.64194788       0.00736281       0.00289753       0.01796287
O        8.44120533       6.53289889       6.64233456       0.00141880       0.00139426       0.01242697
H        8.17957494       6.34795539       7.56355518      -0.00274378      -0.00854646       0.00896823
H        9.37468140       6.26341904       6.57721638       0.00145534       0.00126806       0.01430624
O       11.03850808       5.70859617      -0.14284200       0.01507120      -0.00806463      -0.01625315
H       10.46451670       6.49683480      -0.18020041       0.00672414      -0.01424628      -0.01711295
H       11.94091019       6.06983307      -0.16262818       0.01225533       0.00090338      -0.01131361
O        8.81695357       3.33142483       9.08827187      -0.00721274      -0.02066088      -0.01727329
H        8.33652346       2.96458937       8.31849011      -0.00928485      -0.01033765      -0.01703317
H        8.96753103       2.55009650       9.64113906      -0.00898564      -0.03046724      -0.02523661
O        7.88915884       5.91286388       9.35908601      -0.01118128      -0.02702552      -0.00025506
H        6.96833098       5.68343735       9.61342893      -0.01347101      -0.02612145      -0.00533618
H        8.32326113       5.03962082       9.40175095      -0.01322886      -0.02760810      -0.00347797
O       11.14621376       0.82953042       3.40714348       0.00154911       0.01003295       0.00290459
H       10.68597703       1.04641599       2.57813948       0.00073865       0.01510766       0.00551173
H       11.75584850       1.55313660       3.61110608       0.00172153       0.00962621       0.00876125
O       10.85853072       4.01387470       2.00865401       0.00429153      -0.00524970      -0.00931344
H        9.95287143       3.68532757       2.10272178       0.00387800       0.00162473      -0.00763782
H       10.81632370       4.71128096       1.31827066       0.00850276      -0.00591050      -0.01140211
O        1.65787017       7.16150543      10.23130795       0.00878738       0.00740732      -0.00026108
H        2.51350917       6.97993697       9.78968433       0.00820048       0.00781567      -0.00126728
H        1.04115572       7.37113905       9.49177294       0.00669674       0.00254121      -0.00004505
O        3.94600568       6.73916810       8.77122178       0.00469856       0.00530970      -0.00788102
H        4.52580850       7.52880348       8.81611604       0.00612855       0.00472946      -0.00819729
H        3.69379224       6.59718703       7.83210344       0.00237627       0.00587876      -0.00693054
O        0.18000382       0.00053237      10.48431764       0.00220177       0.00955912       0.00308931
H       -0.79144976       0.01306589      10.36909963       0.00189987       0.00962891       0.00589249
H        0.50931492       0.73088257       9.92236230       0.00184324       0.00939107       0.00277478
O        1.53858750       2.38627530       5.04643730       0.00789146      -0.00431082      -0.01162097
H        1.84363948       2.74842022       5.90736654      -0.00147769      -0.00458825      -0.00851627
H        1.91068647       1.48868007       5.05985597       0.00987616      -0.00412431      -0.00991812
O        8.96059373       9.82347819       3.09548574       0.00274187       0.00297052       0.00125587
H        8.78949509       8.85748231       3.07812162       0.00399454       0.00242239      -0.00010462
H        9.02106790      10.07867846       4.02363162      -0.00511546       0.00256539       0.00207734
O        5.23162232       2.41164636       8.38842280      -0.01065329      -0.00869179      -0.01170698
H        6.01353843       2.24965476       7.83432995      -0.01237814      -0.01048891      -0.00981642
H        5.11977507       1.60442153       8.92962208      -0.00952601      -0.00702795      -0.00548759
O        0.74526098       9.97191488       2.74782280      -0.00200051       0.01089899      -0.00530636
H        0.32867682      10.82505580       3.04851655       0.00048806       0.01034963      -0.00352306
H        0.17061881       9.59443191       2.06754036      -0.00273514       0.01488680      -0.00940025
O       10.96889532       6.91799025       3.85376379       0.00322115      -0.01291789       0.01032238
H       10.13129202       6.97442592       3.36361373       0.00303346      -0.00707128       0.01018819
H       10.86473076       6.21501142       4.52674036      -0.00006513      -0.01271453       0.00939666
O        3.15261356       6.06423757       6.25292494       0.00326725       0.00182404      -0.00906903
H        3.85696005       6.20624204       5.59153762       0.00786428       0.01304678      -0.00298685
H        2.41828844       6.67193167       6.00361859       0.00302667       0.00384125      -0.00462067
O        5.37112371       3.20232654       2.54081645      -0.02345502      -0.00299582       0.02110653
H        4.72850396       3.61017167       3.15867756      -0.04016837      -0.00383379       0.00658168
H        4.98934103       3.52223180       1.67895569       0.00020073       0.00071628       0.01376116
O       11.38157243       7.64860423       8.20451495       0.00601374       0.00688827       0.00345790
H       10.88229463       8.46874964       8.31790049       0.01708044       0.01309979       0.00385189
H       11.82716824       7.76369197       7.33863000       0.00549422       0.00144604       0.00247476
O        3.03219338       8.52099688       2.50109486      -0.00583449       0.00187724      -0.00027668
H        3.74578637       8.08377184       1.98437539      -0.00333042      -0.00087859       0.00448929
H        2.34248169       7.77874264       2.51658975      -0.00609405       0.00351550      -0.00042302
O        2.99368286       4.21678547       3.59787894       0.01183461       0.00657903       0.02610809
H        2.41721455       3.52772863       3.99989800       0.01334902      -0.00329361       0.00923994
H        3.22114512       4.78924588       4.34120556      -0.01426470       0.00514213       0.03607485
O        7.64123925       1.93909939       6.95225283      -0.01776534      -0.01800922      -0.01787974
H        8.04797368       1.13213502       7.31144017      -0.00999218      -0.01569659      -0.01840271
H        8.29179677       2.25023551       6.27386158      -0.01749253      -0.01162206      -0.01537530
O        8.41447756       7.16621051       2.73796599       0.00733268       0.00096899       0.00266564
H        8.03561341       6.48232113       3.33956535       0.00438675       0.00295514       0.00352996
H        7.97788354       7.06635036       1.88355435       0.01585396      -0.00520676       0.00006697
O        1.18282268       2.50806430       9.61121753       0.00585115       0.00206064      -0.00049549
H        0.60076852       3.22752553       9.26877762      -0.00000232      -0.00133187       0.00155898
H        1.91520880       2.55670870       8.97654124       0.00147317       0.00342588      -0.00565553
O        6.65863021      11.48005977       4.64034095       0.01259196       0.03285684       0.01690823
H        6.41904545      10.61630942       5.01320241      -0.00025205      -0.01988792       0.00361300
H        6.78581388      12.07815332       5.39088404      -0.00852320      -0.01887016      -0.01595709
O        1.18401498       7.89329991       5.74428471       0.00114521      -0.00153083       0.00047350
H        1.56436444       8.78124861       5.64062576      -0.00083643      -0.00170735      -0.00604231
H        0.55947340       7.78579830       5.00012559      -0.00176525      -0.00762243       0.00321977
O        5.62174868       8.83638911       9.31076420       0.00232190       0.00752440      -0.00602056
H        6.42788747       8.98179831       8.79334538       0.00464073       0.00987907      -0.00315122
H        5.94576865       8.55693665      10.19703482      -0.00002573       0.00755580      -0.00574933
O       10.82689779       5.17555810       5.93767240      -0.00170067      -0.01520205       0.00811006
H       10.46419928       4.31602317       5.66378341      -0.00490930      -0.01339936       0.00994412
H       11.15864096       5.04718315       6.84898233      -0.00429169      -0.01240273       0.00984514
O        1.91752875       0.36648136       0.90159580       0.00818874       0.00545136      -0.00175872
H        1.88428840       1.34100929       1.10453163       0.01460916       0.00575402      -0.00364378
H        1.12922193       0.22144496       0.31518322       0.00604796       0.00842620       0.00041500
O        4.73516895       6.63909151       1.58921930       0.00358282       0.00966813       0.01035911
H        4.31800930       5.83512651       1.19692588       0.00996210       0.00782962       0.00829773
H        5.48377185       6.87063656       1.00852375       0.00234821       0.01597356       0.00988244
O        4.10856260      10.24826049       0.80059110       0.00243071      -0.00024921       0.00034556
H        4.24227728      10.93452752       0.11329697       0.00169858      -0.00096899       0.00001267
H        4.93414921      10.22967954       1.34507867       0.00306791       0.00020927      -0.00003523
O        8.27063211       2.77189619       2.71523307      -0.01421517       0.00824246      -0.00024116
H        7.31873032       2.95947001       2.63019276      -0.01654735       0.00156685       0.01301626
H        8.43620897       1.93096159       2.23651362      -0.01404820       0.00740713       0.00038929
O        6.26454779       9.67896405       2.25398391       0.00635689       0.00105938      -0.00333798
H        7.11818940      10.07840268       2.49326938       0.00560609       0.00037611      -0.00359143
H        5.94553811       9.29223351       3.11572312       0.00430660       0.00604113      -0.00023399
O        4.81219824       0.71412532       2.83770403       0.00529841      -0.00426588       0.00410849
H        4.95248194       1.71131850       2.69781194      -0.00037661       0.00033247       0.00934763
H        5.51823724       0.41251324       3.47190353       0.00374961      -0.00449027       0.00308061
O        5.38580021       4.77828094       9.85579012      -0.01220118      -0.01006232      -0.01724231
H        5.40110727       3.96405979       9.31214856      -0.01955333      -0.01033073      -0.01628592
H        4.81709134       5.43183763       9.37934056      -0.00910321      -0.00418006      -0.01351434
O        6.68553738       7.98048890      11.74085422      -0.00414160       0.00439718      -0.00747119
H        7.63473649       8.00143699      11.47782854      -0.00438580      -0.00863437      -0.00570899
H        6.57363545       8.65089350      12.45530064       0.00343002       0.00435921      -0.00543785
O        1.37801118       9.28484406      11.76163187       0.00112569       0.00745207      -0.00353026
H        1.04504267       9.89723393      11.08356440       0.00081263       0.00840762      -0.00243509
H        1.61758001       8.45218915      11.26512138       0.00368957       0.00868289      -0.00439133
O        3.98250387       4.26882038       0.58190806       0.01653728       0.01246391      -0.00023848
H        4.34003795       4.33546983      -0.33176380       0.01792821       0.01097265      -0.00049439
H        3.08369953       3.87880212       0.59137511       0.01643667       0.01312014      -0.00486517
O        9.50422578       2.74785092       5.16411122      -0.01837519      -0.00756490      -0.00825816
H        9.13042408       2.64645676       4.26006007      -0.02161109       0.00198981      -0.00764605
H       10.22953462       2.10461531       5.21380187      -0.02343443      -0.01631483      -0.01616173
O        7.58770165       5.31347218       4.52286446       0.00584328       0.00646931       0.00588197
H        8.03093112       4.46664226       4.41896950       0.00135677       0.00694340       0.00773282
H        7.87785367       5.70340733       5.40526104       0.00506505       0.00652793       0.00734660
O        5.07422159       6.19557831       4.26076743       0.01197916       0.02709277       0.01276752
H        4.94665427       6.30192086       3.28869508       0.00457028       0.01785555       0.01275308
H        5.91475837       5.69902845       4.36058691       0.00449111       0.01615036       0.01113531
O        9.21160349       0.51467807       1.49308049      -0.00369826       0.01041442       0.00747912
H        9.08607681       0.29358820       0.54947522      -0.00266294       0.00938462       0.00743046
H        9.09542270      -0.32576171       1.97904613      -0.00087571       0.00952530       0.00735574
O        9.19314816       7.70519247      10.86708952      -0.00654432      -0.02861243      -0.00689238
H        9.50078618       8.45536554      10.33502451      -0.00531569      -0.03155714      -0.01144433
H        8.77667653       7.08084695      10.21833770      -0.01216551      -0.03002188      -0.00191608
O        1.58088404       6.40221356       2.29389553      -0.00026385      -0.00512663       0.00157268
H        2.02657473       5.60450449       2.63122211       0.00764102       0.00053658       0.00340074
H        0.74624890       6.46567095       2.81074001       0.00171504      -0.01014400       0.00494716
O        2.79898573       3.38413107       7.33102908      -0.00621405      -0.00042915      -0.00874126
H        3.68767798       3.03489551       7.53197004      -0.00786732      -0.00528302      -0.00956735
H        2.91792712       4.31811355       7.08956226      -0.00167271      -0.00012086      -0.00585902
O        5.15560699      11.56674491      10.05030054      -0.00261647       0.00324821      -0.00045813
H        5.06282260      10.69259042       9.62670090       0.00105438       0.00271302      -0.00161313
H        6.12921905      11.61828377      10.16838696      -0.00324523       0.00581735       0.00256792
O        1.56673874       2.93829917       0.78261696       0.01897728       0.00751881      -0.00480788
H        0.76024257       3.28614811       1.23007979       0.01668161       0.00209462      -0.00596044
H        1.35418357       2.84637111      -0.17620736       0.01896289       0.00587482      -0.00483464
O        5.55083878       8.84511277       4.66349919       0.00795937       0.01542227       0.00515695
H        4.63702139       9.15617310       4.79410160       0.00670773       0.01635951       0.00666661
H        5.47710153       7.86376991       4.62961430       0.01019363       0.01851021       0.00715429
O       11.20635662       4.54834774       8.61514009      -0.00923422      -0.00709659       0.01139614
H       10.33156319       4.12385062       8.74222335      -0.00663880      -0.01486030      -0.00020178
H       11.24859801       5.22663174       9.30925538      -0.01474479      -0.02270532       0.02739130
