146
Lattice="12.170398471140928 0.0 0.0 0.0 12.170398471140928 0.0 0.0 0.0 12.170398471140928" Properties=species:S:1:pos:R:3:forces:R:3 energy=-1469028.25 stress="0.0006724291015416384 0.00019363107276149094 5.902110024180729e-05 0.00019363107276149094 -0.0014771311543881893 0.0004209165781503543 5.902110024180729e-05 0.0004209165781503543 2.698159369174391e-05" pbc="T T T"
Fr       5.54202348      11.75628696      10.53226831       0.02330855       0.00461048      -0.03938323
Fr       2.69774112      12.42482163       1.41151204      -0.00920381       0.00936520      -0.01116077
P        9.64348314       1.06748827       2.90225251      -0.01359779      -0.01712676      -0.00863315
O       11.27511739       0.83538985       2.83453895       0.00079811       0.02094002       0.00390388
O        9.05742283      -0.04516764       2.08259793       0.01240060       0.02763492       0.01322764
O        9.39892041       2.48927613       2.46385736      -0.00422722       0.02046549       0.00800118
O        9.25077492       0.94330930       4.41854882      -0.00242119       0.00713801       0.00378537
H       11.68204338       1.70226925       2.71051900      -0.00445525       0.01673181       0.00966293
O        5.45909566       8.79496891       8.64199714      -0.00666600       0.00102031      -0.00174761
C        5.47351858       8.73321963       7.21443279      -0.00355840       0.01608921      -0.01478453
H        5.23112486       7.71935377       6.88974880       0.00806374       0.02287948      -0.01662271
H        6.45526144       8.99730174       6.81567826      -0.00405011       0.02829617       0.00191820
H        4.71266656       9.40097978       6.81624111      -0.00873715       0.01750742      -0.00209484
H        5.99867423       8.04196293       8.92361962       0.01436788       0.01078171      -0.01690109
O        8.72592328       6.84826662      10.63983714       0.00294366       0.00506943      -0.00395226
C        7.84137414       7.88652626      11.05183366       0.01204116       0.01028430       0.00792940
H        6.82827964       7.50241047      11.23008197      -0.00049257       0.00944065       0.01209704
H        7.79343447       8.67855262      10.30137793       0.00002881       0.00113073       0.01194206
H        8.21887076       8.30629048      11.98055195       0.01860671      -0.01071110       0.01296139
H        8.51935764       6.69323208       9.70223765       0.01289666       0.00583700      -0.00665069
O        7.07187805      10.79484853       1.09618981      -0.00953563       0.01423305       0.01061898
C        7.26459037       9.67035718       1.94033921      -0.00694080       0.00390503       0.00799179
H        7.12967423       9.92616618       2.99267980      -0.01056079      -0.00676987       0.00294912
H        8.28243623       9.28195405       1.85221359      -0.01101199       0.00356549      -0.00262159
H        6.56229577       8.88435152       1.66712417      -0.00421619      -0.02042608       0.02348083
H        7.78261937      11.43205985       1.39352429       0.00043948       0.01110845       0.01855679
O        9.57461825      11.01203929       5.77993478       0.00444698      -0.00886510      -0.00282553
C       10.98126694      10.94489590       5.76890571       0.00382948       0.00075691      -0.00746119
H       11.39446779      11.49130015       4.91395368      -0.00116906      -0.00238073      -0.01127595
H       11.34795623       9.90870259       5.71019541       0.01141238       0.00263166      -0.00180735
H       11.41899547      11.39044408       6.67717638       0.00273970       0.01007736      -0.01108795
H        9.33455726      12.19776219       4.91105718      -0.00267615      -0.00012509      -0.00380634
O        6.98230492       4.69335149      10.71513711       0.00735521       0.00314617      -0.00446487
C        6.04390577       4.62379453      11.78841892       0.00801188      -0.01189719      -0.00459897
H        5.72297105       5.61616146      12.12266905      -0.00291377      -0.01563063      -0.00135875
H        6.46584118       4.08349057      12.64145182       0.01479252      -0.00956847      -0.00541493
H        5.17418328       4.08377424      11.41995704       0.01519823      -0.02086316      -0.00476124
H        7.71839817       5.27925220      10.97533101       0.00655812      -0.00331789      -0.00142649
O        6.98314113       6.32857676       8.55422607       0.00165422       0.01447827      -0.00270879
C        7.11654222       5.79759793       7.23504587       0.00670258       0.00593627       0.00148100
H        6.19586868       5.29848740       6.91518654       0.00949162       0.00215474       0.00124120
H        7.94520742       5.08766529       7.17460472       0.00813296       0.00660372       0.01094551
H        7.32652900       6.63255361       6.56855889       0.00909178       0.00139263      -0.00386639
H        6.79192158       5.60639556       9.18944747      -0.00331636       0.01726532      -0.00041142
O        3.10416974       3.34855683      10.03395391       0.01588440      -0.03636393      -0.00373517
C        3.43517937       4.18217656       8.92177069       0.01536725      -0.01049331      -0.00944658
H        2.64898820       4.91304369       8.71556047      -0.01086706      -0.02193418       0.02889009
H        3.63071517       3.59392684       8.02068569       0.01648747      -0.00270855      -0.04133092
H        4.34114036       4.72381441       9.19019798       0.01230139       0.01143390       0.01736686
H        2.30105962       2.86954064       9.81275673       0.00146365      -0.01645075      -0.00453615
O        9.11480932      10.41328682       8.16298194       0.01575780       0.00479907       0.00096453
C       10.00688179       9.35813818       8.45871513      -0.00519523       0.00562903      -0.00441720
H        9.85363966       8.50641471       7.78882808      -0.02275373       0.01587692      -0.00560260
H        9.83589239       9.01532368       9.48118874       0.00730842       0.00506316      -0.01250857
H       11.05630949       9.67234585       8.38530744      -0.00634027      -0.01315536      -0.02228598
H        9.25650542      10.70175798       7.16456414       0.00022168       0.01030133       0.00132635
O        5.92874892       6.70949447       2.62393576      -0.02185851      -0.01499003       0.01050715
C        5.73338960       7.46668949       3.83039726      -0.01330872      -0.01942705       0.01507189
H        5.26340028       6.85118464       4.60527908       0.00261913      -0.02462664       0.01984602
H        5.05590458       8.28757503       3.59583579      -0.02341881      -0.02586806       0.02387810
H        6.66621176       7.88618355       4.21379480      -0.01203296      -0.01219499       0.00302698
H        6.78584891       6.27879793       2.68949396      -0.02690771      -0.02375638       0.00694741
O        2.17229490       3.13195652       1.89760554       0.01221716      -0.00102377       0.01625819
C        3.27128889       3.76144767       1.25337499       0.01366593      -0.00012678       0.01679987
H        4.09264026       3.04292786       1.24055859       0.01486638       0.00209081       0.01480472
H        3.59681301       4.65552759       1.78786087       0.01161097      -0.00077379       0.01968068
H        3.03391802       4.04783192       0.22799404       0.01087211       0.00416871       0.01824209
H        1.36287319       3.66018461       1.77239629       0.01830295       0.00200480       0.02378968
O        2.67343451       9.88841795       5.70068629      -0.01005382      -0.00456804      -0.00593072
C        2.14201249      10.83306559       4.79381284       0.00152238       0.00748283      -0.00128931
H        2.99043710      11.28792588       4.27935834       0.00643450       0.01851413       0.01782315
H        1.58774712      11.62868252       5.30310151      -0.00984472      -0.00310123       0.00318170
H        1.47044216      10.36533359       4.06091081       0.01331520       0.01489833      -0.01733425
H        1.93398734       9.39039241       6.09180700      -0.01072811       0.00307053      -0.00536714
O        8.48487697       8.64582143       5.25043490       0.00437027       0.00117844      -0.00361802
C        9.51666519       7.70906910       5.02043228      -0.00212246      -0.00324881      -0.00612769
H        9.95003510       7.32481022       5.95519849       0.00765651       0.00317496      -0.00721502
H       10.33344115       8.11832513       4.42044327      -0.00668532      -0.01257798      -0.01931739
H        9.10867190       6.85357957       4.47331154      -0.01181772      -0.00737610       0.00642624
H        8.89483686       9.54359369       5.40748296       0.00972106       0.00008385      -0.00328522
O       11.62919683       6.45463942       8.45408729      -0.01033324      -0.00327748       0.00314924
C       12.04649069       6.39745799       9.82794114      -0.00281338       0.00583873       0.00104343
H       13.09477469       6.68703347       9.94358250       0.00162604      -0.00517564      -0.00891751
H       11.89507314       5.39775784      10.23835653      -0.01276996       0.01236317       0.01318981
H       11.41476352       7.09029362      10.37772369       0.00928000       0.01947141      -0.00240247
H       11.91535615       5.64863686       8.01620434      -0.01299407      -0.00626808       0.00693595
O        4.84942259       3.57619478       4.49978572       0.01001766       0.01582569      -0.00645036
C        6.24134799       3.86340068       4.26404265       0.01501094      -0.00657471       0.00407623
H        6.51660565       3.69840803       3.21912094       0.01943558      -0.00748371       0.00447324
H        6.81670282       3.18033216       4.88492245      -0.00039847      -0.01834843       0.00524907
H        6.47388924       4.89094166       4.54704857       0.03034371      -0.01171428       0.00982291
H        4.32303388       4.17385032       3.95750366       0.02260634       0.02476370      -0.01016364
O        1.03720517       7.92457288       6.66847374       0.00379276      -0.00318025       0.00132582
C        2.15691721       7.09142526       6.92587774       0.00490016      -0.00709619      -0.00685243
H        1.93198979       6.03484551       6.73817805      -0.00338003      -0.00640363      -0.00068785
H        2.52315978       7.20475999       7.95198332       0.01418529      -0.00459884      -0.01040784
H        2.95226835       7.39827861       6.24890162      -0.00153193      -0.01328042      -0.01451516
H        0.33658829       7.66803664       7.29351926       0.00454971      -0.00344470      -0.00087692
O        4.72499305       1.00697228       3.47195526      -0.00985494       0.02200651      -0.00326851
C        6.05516185       0.54280928       3.72084508      -0.01626775       0.00683738       0.00525872
H        6.22688235       0.39844120       4.78920121      -0.02104066       0.01704825       0.00714973
H        6.80301396       1.23791147       3.34285355      -0.00830150      -0.00311324       0.00065590
H        6.18457980      -0.40353916       3.20528187      -0.02505572       0.00121841       0.01492147
H        4.64639688       1.89262515       3.87918391      -0.00201601       0.02647112      -0.01267548
O        8.57848273      11.86501218      10.27378980       0.01284820       0.02015733       0.00967655
C        9.74599634      11.63480689      11.06150192       0.01307568      -0.00222776       0.00124586
H       10.64059013      11.88881309      10.48504229       0.01545620      -0.01324658      -0.00235799
H        9.81901802      10.58584837      11.36230220      -0.00401011      -0.00623125      -0.00621333
H        9.71951825      12.23303116      11.97229591       0.01916040      -0.00882927       0.00462395
H        8.73907189      11.37019333       9.42152725       0.00763348       0.02049552       0.00474522
O       11.19158898       6.49590037       2.46810169      -0.02140427      -0.00027323      -0.01047972
C       10.01062784       6.19615567       1.73196419      -0.03140864       0.00509089      -0.00367753
H       10.20006418       6.16657497       0.65542963      -0.03428113       0.00414490      -0.00587201
H        9.30203510       7.00110769       1.93340011      -0.02986415       0.00235459       0.00010170
H        9.58051852       5.24125459       2.04712531      -0.02509807       0.00348917       0.00020023
H       11.90245977       5.88552519       2.21029636      -0.03242079      -0.00110550      -0.00295316
O       11.52722402       3.49082000       1.41228814       0.00397888       0.01403525       0.01262206
C       11.23946160       3.23413737       0.04717587       0.01796908       0.00553897       0.00888711
H       10.51413453       3.95331953      -0.35266354       0.01796782      -0.00061071      -0.00028533
H       10.82703716       2.23001284      -0.08993549       0.02676013       0.00246948       0.01149012
H       12.16311617       3.31938544      -0.53113458       0.02316847       0.00856414       0.01688109
H       10.68415229       3.20631434       1.89879591       0.00506604       0.01856758       0.00490767
O       12.30992540       8.79527898       1.65852545      -0.01688887      -0.02259570       0.01384158
C       11.25796064       9.74258827       1.83882891      -0.00043879      -0.00160344      -0.00484732
H       11.60316327      10.73491198       1.55876893       0.02036767      -0.01146084      -0.01714002
H       10.93474049       9.78521184       2.88197238      -0.00855326       0.01901488      -0.00912163
H       10.39198790       9.49708898       1.21940006      -0.00079146       0.00630452      -0.00894508
H       11.95987796       7.92503967       1.96432669      -0.03899054      -0.01734552       0.00300850
O        1.63847163       5.98984073       2.12643042      -0.00982936      -0.01501855       0.00254470
C        2.04554191       6.43139981       3.41400113      -0.00811398      -0.01197513       0.00252694
H        1.84205495       7.49586056       3.56781553      -0.02491565      -0.01603335       0.00489166
H        3.11750285       6.25666436       3.57760362      -0.00497007       0.00434581      -0.00295309
H        1.47483837       5.87339569       4.15475133       0.00483324      -0.02396631       0.00319780
H        1.96475188       6.63738411       1.46351528      -0.01334222      -0.01273769       0.00344153
O        6.88424476       1.04878226       7.71311351       0.01543057      -0.01971722      -0.00507510
C        7.29995246       2.19670932       8.43955408       0.01107572      -0.00610427      -0.02069285
H        7.79249590       2.92353712       7.79185391       0.00248718      -0.00892854      -0.03323060
H        7.97689415       1.94310476       9.25784236       0.01862895       0.00734678      -0.02260551
H        6.40748571       2.66589597       8.85300272       0.00912341      -0.00890833      -0.01928629
H        7.65239868       0.67378485       7.26429081       0.02123600      -0.02609464       0.00869921
O        2.42582834       8.02500752       0.49841231      -0.01398182       0.00042334       0.00209908
C        3.52248806       8.60736727       1.18827048      -0.01736428      -0.00267955      -0.00463071
H        3.24044784       8.92422767       2.19795983      -0.00748155      -0.00013656      -0.00472057
H        3.93584599       9.47084778       0.65735060      -0.01553112      -0.00419900      -0.00622711
H        4.30894001       7.85885636       1.27734025      -0.01393542      -0.00784141      -0.00744734
H        1.60102622       8.48980244       0.75996461      -0.02523686      -0.00415841       0.01674756
