142
Lattice="12.888122278447906 0.0 0.0 0.0 12.888122278447906 0.0 0.0 0.0 12.888122278447906" Properties=species:S:1:pos:R:3:forces:R:3 energy=-1482414.625 stress="-0.000190958016901277 0.00015782161062816158 0.0004300057626096532 0.00015782161062816158 -0.0004246835014782846 -0.00019548353884601966 0.0004300057626096532 -0.00019548353884601966 0.000127728286315687" pbc="T T T"
Fr       4.43588683      13.62391178       4.51136452      -0.01912408       0.01945570      -0.00448939
Fr      12.24592610      13.04161024       4.40183780      -0.02088878       0.00712761       0.01753640
O       11.15725220       0.13148790       0.05391520       0.00503777       0.00421953       0.00597763
O       10.19724428       0.25251182       2.58071623      -0.00553131       0.00883341       0.00335407
O       10.24034770       2.44785738       1.01108197       0.01746964       0.01346350       0.00383741
O       12.52839208       1.38150721       2.02814242       0.00598025      -0.01537049       0.01435408
Cr      11.00643497       1.06957856       1.36625699       0.00306919       0.00455599       0.00581604
C        4.97137454       4.97360869       8.48525266      -0.00295924      -0.00450149      -0.00519205
C        6.32165874       5.30055067       8.34500386      -0.00255707      -0.00600502      -0.00872977
C        4.56563551       3.67689163       8.16885219      -0.00446177      -0.00522894       0.00030157
C        3.98429607       5.99834114       8.96139388      -0.00140390      -0.00255111      -0.00644417
C        7.24453381       4.36424666       7.90068896      -0.00478695      -0.00908387      -0.00567694
C        5.49418093       2.72891353       7.74267050      -0.00674165      -0.00813271       0.00291813
C        6.83403034       3.07068157       7.60454107      -0.00624362      -0.01006269       0.00015686
H        6.65526929       6.30086497       8.60100441      -0.00169660      -0.00496729      -0.01310358
H        3.52561992       3.39977500       8.30787601      -0.00449982      -0.00391948       0.00277612
H        3.08030794       5.52571726       9.34459906      -0.00717987       0.00039922      -0.01611124
H        4.41073286       6.61495107       9.75503443      -0.00443436      -0.00985089       0.00083049
H        3.70067856       6.67036185       8.14652684       0.00924180       0.00412515      -0.00444865
H        8.28802245       4.63598427       7.80210896      -0.00449410      -0.01054017      -0.00845712
H        5.18044709       1.70180484       7.58585806      -0.00764027      -0.00831500       0.00633058
H        7.56619260       2.33557843       7.30533889      -0.00738890      -0.01155264       0.00233304
C        5.15644397      10.50701275       7.80911550      -0.00728140       0.01549918      -0.00451230
C        6.43739627      11.01473354       7.57867486       0.00220624      -0.01126029      -0.00226118
C        4.40331078      10.09986821       6.70663502      -0.01033351       0.01199536      -0.00353480
C        4.60752440      10.40221166       9.20055562      -0.00113457       0.00203495      -0.00393134
C        6.95009546      11.11664078       6.29001061      -0.00962947       0.01410528      -0.00281493
C        4.90701817      10.20251912       5.41356671      -0.00398993       0.00009651      -0.00383106
C        6.18381889      10.71962981       5.19409763      -0.00414495       0.00362028      -0.00472099
H        7.04608590      11.30690688       8.42602903      -0.00053047       0.00726525      -0.00074749
H        3.42020961       9.67159489       6.86526731      -0.01136212       0.00603774       0.00005747
H        3.90354428       9.57471219       9.29073310       0.00218181      -0.00223912      -0.01142875
H        5.40426497      10.25609687       9.93032162       0.00004321       0.00166456      -0.00353254
H        4.07540857      11.31597491       9.48057306      -0.00394233      -0.00161237      -0.00200327
H        7.96547049      11.47004068       6.14291880      -0.00250222      -0.00128653      -0.00640974
H        4.32227809       9.81673096       4.58440556      -0.01086552       0.01211543      -0.00230536
H        6.62139117      10.71591039       4.20167521      -0.00476802      -0.00125889      -0.00981659
C        1.06884100       8.05946921       5.02105426       0.00154584      -0.01075640      -0.00455692
C        1.61913406       7.24316458       6.00745924       0.00776473      -0.00103381       0.00291985
C        0.75189916       7.49343310       3.78586621      -0.00286780       0.00373166      -0.00990891
C        0.82065070       9.51708626       5.26937219      -0.00360007      -0.00392839      -0.00724149
C        1.83712857       5.88947971       5.77428518       0.01275027       0.00347929       0.00336034
C        0.97414747       6.14420364       3.54602657      -0.00015094       0.00743354      -0.01508127
C        1.51147543       5.33686046       4.54286728       0.00867217      -0.01507558      -0.00892011
H        1.85172567       7.66638015       6.97898057       0.00586698       0.00275779      -0.00082022
H        0.32112386       8.11949483       3.01284082      -0.00479914      -0.00529399      -0.01129700
H       -0.09676381       9.83887028       4.77439208      -0.00079346      -0.00736979       0.00147671
H        0.73651521       9.72993373       6.33589789       0.00599946      -0.00351806      -0.01537535
H        1.63412315      10.12633538       4.86486162      -0.01373640      -0.00502740      -0.01119880
H        2.25522273       5.26774858       6.55723198       0.01076704       0.00205119      -0.00722577
H        0.71355427       5.71490759       2.58643837       0.00488354      -0.00249761      -0.00473736
H        1.66537623       4.28197943       4.35775322       0.02671639      -0.02808852      -0.00684731
C        3.19116935       9.81051260       1.42576365       0.00354511      -0.00313257      -0.00507823
C        2.02981780       9.46742146       0.73674820      -0.00194390      -0.00238727       0.00347760
C        3.29134529      11.10030687       1.95343448       0.01201742       0.00303304      -0.01854677
C        4.33871137       8.85344453       1.51568619      -0.00337598      -0.01006636       0.00481816
C        0.99703539      10.38202865       0.56956005       0.00566569       0.00196207      -0.00661907
C        2.26545682      12.02253302       1.77194725       0.01715129       0.00515679      -0.02348670
C        1.11194997      11.66811655       1.07921302       0.01297532       0.00742652      -0.01853076
H        1.94751004       8.47485159       0.31002935      -0.01347237      -0.01007555       0.02192986
H        4.21512009      11.36337102       2.46289193       0.01471699       0.00291321      -0.02237365
H        4.91247705       8.97034341       2.43577186      -0.00340024      -0.00471391       0.00409620
H        4.00241847       7.81892372       1.44647192      -0.01092535      -0.00847736       0.01513701
H        5.03514844       9.03289960       0.69396381      -0.00132288      -0.02392841       0.00359461
H        0.10114465      10.10465228       0.02595414       0.00256266       0.00297996      -0.00278777
H        2.34491224      13.04334306       2.13431996       0.02225557       0.00775361      -0.03063346
H        0.32343158      12.39326906       0.92117447       0.01549074       0.00810076      -0.01909776
C       10.44359575       8.47258212       9.70001954       0.00102330       0.00677496       0.00424543
C       11.38658129       8.26072376       8.69289987      -0.00054888       0.00414255       0.00291826
C        9.75526701       7.36440834      10.19571469      -0.00226305       0.00813643       0.00364967
C       10.14469201       9.85121295      10.21098291       0.00654819       0.00708202       0.00588843
C       11.63049829       6.98705405       8.19156587      -0.00512052       0.00457950       0.00188565
C        9.99351126       6.08867294       9.69966032      -0.00721798       0.00861957       0.00248852
C       10.93470584       5.89507161       8.69552524      -0.00836581       0.00570886       0.00128192
H       11.93351904       9.10947691       8.29556649       0.00194647       0.00314343       0.00352631
H        9.02257851       7.50742462      10.98262688      -0.00111820       0.01024447       0.00472024
H        9.80399677       9.83159561      11.24591235       0.00840714       0.00753228       0.00650990
H       11.01515138      10.50432410      10.15763713       0.00855812       0.00434113       0.00489536
H        9.35233401      10.31622342       9.61581456       0.00715472       0.01040340       0.00788994
H       12.35930607       6.84608873       7.40341023      -0.00587715       0.00253247       0.00115896
H        9.44633899       5.24190240      10.09210656      -0.00953960       0.00966686       0.00206742
H       11.11660127       4.90088561       8.30476706      -0.01202117       0.00578883       0.00096217
C        7.76391201       8.14593943       1.38109302       0.00890427      -0.00531721      -0.00221381
C        7.85220632       9.43691441       0.85633387       0.01257724      -0.00665462      -0.00518604
C        8.29517330       7.90804846       2.64948710       0.00487062      -0.00252385       0.00025126
C        7.14138606       7.02702164       0.59552484       0.01035418      -0.00658411      -0.00122313
C        8.46863589      10.46104632       1.56617598       0.01280818      -0.00620973      -0.00676982
C        8.91475020       8.92763750       3.36306266       0.00360261      -0.00178713      -0.00066781
C        9.00839153      10.20447192       2.82173325       0.00765410      -0.00303563      -0.00371253
H        7.43435725       9.64058030      -0.12488128       0.01536506      -0.00886693      -0.00698200
H        8.22933957       6.91345705       3.07734401       0.00215323      -0.00148492       0.00254282
H        6.58870421       6.34799986       1.24662755      -0.00155247       0.00143734      -0.00300431
H        6.45621239       7.40290049      -0.16484651       0.02148800      -0.00738843      -0.01156908
H        7.90404910       6.43238234       0.08546662       0.01226121      -0.01516770       0.01172163
H        8.57187940      11.45517023       1.14798492       0.01589169      -0.00743774      -0.00918391
H        9.32572477       8.71950488       4.34438168       0.00010389       0.00027024       0.00136830
H        9.50131038      11.01807995       3.33882864       0.00632963      -0.00222822      -0.00435009
C        7.44201873       1.50157284      10.73719048      -0.00151671      -0.00879105       0.00014997
C        7.75661230       2.65327730      11.45826734      -0.00214803      -0.00683086      -0.00329441
C        8.45211986       0.88325075      10.00435869       0.00085042      -0.01031981       0.00241740
C        6.05035928       0.94706263      10.77374187      -0.00057170      -0.01039834       0.00053767
C        9.04923746       3.15149487      11.47247984      -0.00402975      -0.00525412      -0.00283800
C        9.74812361       1.38704602      10.00632841      -0.00091659      -0.00847419       0.00223058
C       10.05135871       2.51704587      10.74776977      -0.00150955      -0.00632584      -0.00125323
H        6.98339367       3.14388798      12.04040033      -0.00421748      -0.00539962      -0.00563428
H        8.22596523      -0.01896991       9.44734743       0.00176312      -0.01233407       0.00539385
H        6.01376099      -0.06394491      10.36801172      -0.00311918      -0.00337277      -0.01620012
H        5.67260471       0.91579156      11.79744158       0.00649342      -0.02826209       0.00279409
H        5.35985847       1.57030816      10.20120259      -0.00497027      -0.00116383       0.01610304
H        9.29542725       4.00670085      12.08608976      -0.00440865      -0.00366935      -0.00517420
H       10.53136826       0.86926186       9.46452193       0.00063948      -0.00927208       0.00382817
H       11.06885769       2.87581436      10.81354041      -0.00279987      -0.00463882      -0.00144693
C        8.57133150       3.00960389       3.60669445       0.00457913       0.00594536       0.00851239
C        9.55217697       3.96805215       3.34859252       0.00361086       0.00873676       0.01079813
C        8.70194480       2.22033073       4.74327355      -0.00214538       0.01366620       0.01347530
C        7.46984764       2.78831710       2.61981229       0.01277542      -0.00160525       0.00087446
C       10.63564126       4.12744165       4.19782370      -0.00513579       0.01772223       0.02068269
C        9.77729319       2.38426713       5.61259076      -0.00999017       0.02169547       0.02223329
C       10.75189451       3.33794481       5.33768045      -0.01149103       0.02486397       0.02511692
H        9.48485987       4.56271449       2.44743470       0.00973550       0.00249828       0.00698066
H        7.96682602       1.44719717       4.94128926      -0.00192168       0.01280479       0.01268075
H        6.68100571       2.16229962       3.03954110       0.01765075      -0.01361689      -0.00763495
H        7.02717164       3.73213357       2.29310221       0.00426412      -0.00485940       0.00299485
H        7.88251151       2.29144785       1.73857882       0.02382571       0.00775351       0.00098085
H       11.40079775       4.85626026       3.96569871      -0.00669782       0.02116038       0.02380846
H        9.84567332       1.78190956       6.51270502      -0.01572342       0.02879133       0.02666403
H       11.58951488       3.48007741       6.01122644      -0.01859854       0.03214716       0.03243800
C        1.68760263       4.58313493      11.67143190      -0.00471227       0.00056073       0.00190638
C        2.84773670       4.29434830      12.39233122      -0.00556011      -0.00119148       0.00249706
C        1.08777590       3.55377365      10.94625219      -0.00663409       0.00038176       0.00299014
C        1.09708157       5.96227513      11.67468401      -0.00220212       0.00145781       0.00025960
C        3.38211558       3.01094332      12.39803888      -0.00787339      -0.00149164       0.00394237
C        1.60965285       2.26616894      10.95986760      -0.00944018      -0.00007747       0.00512088
C        2.75884872       1.98949565      11.68945047      -0.00977882      -0.00191092       0.00498213
H        3.32835639       5.08323557      12.96148112      -0.00429827      -0.00117147       0.00196072
H        0.18822231       3.76729896      10.38070591      -0.00628994       0.00188406       0.00287184
H        0.02765094       5.93678192      11.46587137       0.00000110       0.00444971      -0.01085250
H        1.24858780       6.44631334      12.63977557      -0.01157871      -0.00208867       0.00349557
H        1.55938432       6.59895968      10.91441638       0.00729391       0.00354564       0.00787915
H        4.28550066       2.80681734      12.96241491      -0.00829712      -0.00293610       0.00402486
H        1.10643892       1.47296505      10.42096974      -0.01122683      -0.00037059       0.00662874
H        3.15696052       0.98303857      11.71082126      -0.01172719      -0.00224019       0.00644065
