144
Lattice="12.527354087187136 0.0 0.0 0.0 12.527354087187136 0.0 0.0 0.0 12.527354087187136" Properties=species:S:1:pos:R:3:forces:R:3 energy=-1502609.25 stress="-0.0038921074010431767 -0.001818227639887482 -0.00032967822335194796 -0.001818227639887482 -0.00036793397157453 -0.0004746547347167507 -0.00032967822335194796 -0.0004746547347167507 -0.0030152967665344477" pbc="T T T"
Fr       8.42397704      12.61400099      10.41955013       0.05042715      -0.05668527       0.05754697
Fr      12.25475087      12.05072934      -0.82519637      -0.00363543       0.04003465      -0.01460290
P       12.05248169       1.81141216       1.70679630       0.00783034       0.01803541       0.00148183
O       12.53102791       1.87198129       3.25439031       0.01458308       0.00592817      -0.00662357
O       11.62561138       3.32903205       1.45538755       0.02601547       0.02832294       0.00238653
O       10.91201960       0.85267551       1.55185788      -0.01405895       0.04541445       0.01054952
O       13.28496827       1.45137874       0.91871642       0.01413900      -0.00475986       0.02255940
H       11.81649674       2.18245968       3.82042449       0.04171669       0.04877175       0.00082147
O        7.76280555       2.23876508       1.85625388       0.00168002      -0.01719704       0.00051947
O        7.17694488       1.55771086       3.87951792      -0.02571926      -0.00912130      -0.00372042
C        9.11173620       2.98183510       3.63836305      -0.02158910      -0.02002493       0.02465880
C        7.95622266       2.18779413       3.15431010      -0.01448908      -0.01389509       0.00183296
H        9.88487592       3.01894242       2.87846341      -0.01970927      -0.00252170       0.02749528
H        8.77548749       4.01370556       3.78339222      -0.03246754      -0.02441114       0.03314343
H        9.46732907       2.61910631       4.59914518      -0.03484261      -0.04224597       0.02158324
H        6.88380118       1.81125289       1.64575003       0.00354424      -0.02052106      -0.01170346
O        7.30258700       9.39946579       0.91206123      -0.02863380      -0.01911068      -0.00740373
O        9.15962572      10.21051389       1.87296753      -0.04930639      -0.04754490      -0.01863254
C        7.02128908      11.15153117       2.45486079       0.00479418      -0.02080137      -0.00422317
C        7.95345209      10.22029692       1.75393252      -0.00065768      -0.02603182      -0.01896441
H        6.62836478      11.86810652       1.72680603       0.01099847      -0.01420694       0.00010802
H        6.17078824      10.60442886       2.85849854       0.00015779      -0.00910915      -0.00217713
H        7.53548585      11.68598425       3.24506661       0.01544783      -0.02995902      -0.00530420
H        7.94352102       8.88519337       0.38476264      -0.03738788       0.00654350      -0.04822947
O        4.47134610       1.73778441       3.08311044       0.02032065       0.00881058      -0.00348628
O        5.41638341       1.45131599       1.07679066       0.01700470      -0.01414089      -0.00222561
C        3.38253864       2.69595187       1.21448957       0.01741397      -0.00370473       0.00129506
C        4.50497195       1.90885695       1.76536188       0.01961383      -0.00369491      -0.00330824
H        3.14560842       3.53823034       1.86314510       0.02473569      -0.00154994       0.00284410
H        3.63061439       3.01290360       0.20470280      -0.00184281      -0.01126016      -0.00475277
H        2.46361207       2.09062291       1.17907609       0.02187982      -0.00877282       0.00681383
H        5.33589149       1.36990650       3.37490879       0.02392459       0.02118185       0.00447392
O        7.08036907       5.76917061       1.30299616       0.01365894      -0.01857117      -0.00299331
O        7.35589318       6.19387832       3.49458693       0.00758217      -0.01732700      -0.00214028
C        5.44996748       4.96112625       2.77819143      -0.00268745       0.00440580      -0.01052427
C        6.71041992       5.71083970       2.57495498       0.00694138      -0.01068929      -0.00428522
H        4.64659447       5.44671435       2.22629622       0.00521393       0.01467447      -0.01273996
H        5.59001402       3.96588154       2.36426276      -0.01305898       0.00353426      -0.01086567
H        5.21778253       4.89412485       3.83492403      -0.00785676       0.00554587      -0.01178634
H        8.02357501       5.99875732       1.21826802       0.01360446      -0.01932997      -0.00092624
O        9.52984795       4.23128644      12.71970797       0.01729852      -0.00493824      -0.05068684
O        9.51765286       2.85338307      10.95125837      -0.02340853      -0.08642423       0.01538634
C        7.45251783       3.83839582      11.60178430      -0.00091612      -0.00136572      -0.01832463
C        8.95203516       3.62318747      11.78031333      -0.00194383      -0.03238940      -0.01706737
H        6.93423464       3.74206028      12.55120136      -0.00348430      -0.00385849      -0.01960595
H        7.25030002       4.85504093      11.25639529       0.01888246       0.00391261      -0.01281008
H        7.03424091       3.13672548      10.88311145      -0.02096740       0.01362917      -0.01926143
H       10.82566318       3.55468116      13.40648800       0.03611340       0.00900649      -0.01070335
O       11.64044164       5.32048111       7.47484412       0.00867516       0.01646556      -0.01447599
O       11.40806331       4.65544435       5.34358224      -0.01678210      -0.03356791       0.00467312
C        9.57624543       5.77598556       6.45502523      -0.00267148      -0.00584754       0.00062540
C       10.94027641       5.19053856       6.32215683      -0.00495219      -0.00927210      -0.00304765
H        9.04901327       5.25625854       7.25179756       0.00194429      -0.00076914       0.00659840
H        9.64495472       6.82737115       6.72854151      -0.00079715      -0.00468147      -0.00551640
H        9.02361130       5.68602063       5.52716393      -0.01056366      -0.01369592       0.00639881
H       12.52693764       4.96448043       7.32205254       0.00451130       0.00735366      -0.01633695
O        1.76684452       6.73523980       1.90676833       0.01042622      -0.00053000      -0.00458455
O        3.85396899       7.50295121       1.67417160       0.00681734       0.00678381      -0.01186362
C        2.31369391       8.71839916       3.07181873       0.00627685       0.00347233      -0.01030725
C        2.75264221       7.61816202       2.16204484       0.00744915       0.00363821      -0.00904578
H        1.47287159       9.24583441       2.62688767       0.00784230       0.00333210      -0.01324269
H        1.98877003       8.29563794       4.02189714       0.00340289       0.00441140      -0.01113704
H        3.13474954       9.40693895       3.23516948       0.00598843       0.00318229      -0.00874613
H        2.13087055       6.05583400       1.32155093       0.01052842       0.00284860      -0.00827178
O        6.54575889       8.73764600       9.08621549      -0.00588584       0.01100081       0.01531237
O        6.20989959      10.39435487      10.54374756      -0.01708661       0.01725786       0.00375921
C        5.36457233      10.66362186       8.32717741      -0.01181126      -0.00060439      -0.00012648
C        6.06081148       9.93000844       9.43349935      -0.01174711       0.01066110       0.00513649
H        6.05157831      11.40626768       7.90508984      -0.01570001       0.00151698       0.00302717
H        5.03378561      10.00165642       7.53310083       0.00562547      -0.00554676      -0.00178845
H        4.52322457      11.21844112       8.74371810      -0.02180468      -0.01018559      -0.00957329
H        7.03865679       8.37577230       9.85068339      -0.00616524       0.01995067       0.01963979
O        1.86469293       9.24732550      -0.15463266       0.00597602      -0.01396108      -0.00253773
O        3.50725300       8.62976282      -1.54364201       0.00962468      -0.00655255       0.00041753
C        3.97980592      10.28201472       0.14422640      -0.00119326       0.00530174      -0.00889036
C        3.14980172       9.30110079      -0.61099901       0.00605875      -0.00719628      -0.00095093
H        4.11277139      11.17358612      -0.47103901      -0.01712851      -0.00551780      -0.02663636
H        3.52135135      10.56363204       1.08817723      -0.02146587       0.01681426      -0.02238500
H        4.96857183       9.85854450       0.29966079       0.00466770       0.01668836       0.00299245
H        1.39113612       8.60706005      -0.71015452       0.00390646      -0.00093353      -0.01748371
O        1.82481779       9.66211738       6.97706463      -0.02101874      -0.00692225      -0.00005106
O        0.71722779       8.16428177       8.22491958      -0.00979006       0.01790527       0.03570294
C        3.05182025       7.79535820       7.76981515      -0.01561981       0.00259307       0.01390348
C        1.74555320       8.51444738       7.68999858      -0.01390243       0.00662950       0.02005532
H        3.70507484       8.03900149       6.93786599      -0.02382813      -0.00001906       0.00717849
H        3.54142425       8.08931857       8.70035580      -0.00456250      -0.00199096       0.00930610
H        2.87487876       6.72380210       7.80893083      -0.01922462       0.00339146       0.01464370
H        0.94668858      10.07789788       7.01311128      -0.01974458      -0.00400229       0.00624767
O       10.74886312       7.69063660      11.70384538      -0.04084200       0.01134568       0.04281372
O        8.58581338       8.00328935      11.23629363      -0.03941349      -0.01491793       0.01769967
C        9.82579170       6.38081190       9.96012470       0.00435144       0.02644989       0.00778717
C        9.63395530       7.41633588      11.00469833      -0.02416471       0.00729806       0.02226640
H       10.48200618       6.73861858       9.16550153       0.03435361       0.03016696       0.03481330
H       10.31340315       5.50291832      10.38279783      -0.01469687       0.01792307       0.01224881
H        8.86339361       6.10304832       9.53883879       0.01651171       0.04091491      -0.02893207
H       10.49756179       8.28963906      12.42644158      -0.05735412      -0.00890958       0.05508906
O        9.36249326       7.29087981       2.42964337       0.01731211      -0.01719452       0.01427269
O       10.03450399       8.07167348       4.42075584       0.00613050       0.00587755       0.00925624
C       11.60989677       7.94341555       2.63337308       0.00379539       0.01357171       0.00975558
C       10.26892753       7.78449897       3.25614578       0.00868237       0.00171724       0.01086771
H       11.69370402       7.36877606       1.71463468       0.01412443       0.01267672       0.01284622
H       11.77685850       9.00438151       2.43463273      -0.01087747       0.02152047      -0.00021720
H       12.36034816       7.59785005       3.33752324       0.01185231       0.03575790       0.00863752
H        8.53989708       7.02789462       2.95425516       0.01765303      -0.02038335       0.01081851
O        6.47700158       2.51414080       6.17324035      -0.01023939      -0.00916910       0.00774407
O        8.59245272       2.82591096       6.85506065      -0.00696766       0.00183919      -0.01235907
C        6.77369802       3.87639300       8.04386738       0.00350279      -0.00011253       0.00054747
C        7.40013872       3.02595654       6.97974492      -0.00643694      -0.00515610       0.00120711
H        6.36263718       4.77758715       7.58122892       0.00321449       0.00076203       0.00346118
H        5.95282265       3.32075186       8.50110434      -0.01796831       0.04423012      -0.01064041
H        7.50364976       4.16438349       8.79332065       0.01154947       0.00442152      -0.01104612
H        6.91149888       2.06287414       5.39886500      -0.01775396      -0.01264012       0.00651005
O        3.07879810       4.19014061       8.45078102       0.00666545       0.01110524       0.00245577
O        4.03099981       2.94529034      10.05601613      -0.01378110      -0.00775260      -0.00107308
C        3.56676580       5.28702308      10.46702806       0.00111953      -0.00817597       0.01391315
C        3.58793650       4.00976022       9.68980966      -0.00299597      -0.00189996       0.00414541
H        4.33406314       5.95431171      10.06562138      -0.00122935      -0.00479496       0.01595498
H        2.61791432       5.80791383      10.34153125       0.00080979      -0.00703967       0.02259318
H        3.78227353       5.10612280      11.51575803       0.00506737      -0.01631196       0.01145427
H        3.23518675       3.38184163       7.93878375       0.00330007       0.01323819      -0.00159839
O        3.78445353       4.47004684       5.75830158       0.00946313       0.00350523       0.00694311
O        2.51223254       6.12575407       4.94882733       0.01902253       0.01342714       0.01303746
C        1.87626274       3.83633540       4.52991602       0.01161051       0.01923859      -0.00373796
C        2.71648003       4.93878847       5.06975327       0.01437471       0.01209390       0.00625327
H        2.48297763       2.99092557       4.21301355       0.00843383       0.01936553      -0.00999451
H        1.20889434       3.48847289       5.32367204       0.01032539       0.01473892      -0.00701824
H        1.23908509       4.20002521       3.72950922       0.01429516       0.02933984      -0.00123402
H        4.25782214       5.23837939       6.11589734       0.01028188      -0.00092816       0.01486817
O       11.76746263      11.25281692       7.13462205       0.01477522      -0.00364637      -0.00621171
O        9.73120759      11.94420947       7.72420993       0.00192201       0.02245159      -0.08531098
C       10.12216273       9.57715040       7.46082397       0.00753008       0.00749815      -0.00954194
C       10.46822537      11.02102662       7.45822700       0.00327647       0.01110052      -0.03547318
H       10.64303237       9.04954184       6.66360337      -0.00310859       0.00109079      -0.01359585
H       10.46049414       9.13980214       8.40521697       0.02455386       0.00854813      -0.01531753
H        9.04671812       9.44327421       7.36357751       0.00849208      -0.00247250       0.00376503
H       11.89010264      12.21349145       7.16666185       0.01423268      -0.00359833      -0.02196387
O        7.50552742       8.85888449       4.78349994       0.00030994      -0.00556889      -0.00813558
O        6.64877285       7.30437211       6.18215920       0.00873092       0.00258493       0.00420833
C        5.20146395       8.50218688       4.67695224       0.00010139      -0.00551957       0.00679037
C        6.50968795       8.13228208       5.31028555       0.00369680      -0.00216508       0.00108659
H        4.91652026       9.51380154       4.97790762       0.00105537      -0.00509056       0.00520398
H        5.30928837       8.50194476       3.59219015      -0.00571527      -0.00817930       0.00644284
H        4.41868027       7.80538547       4.96174293       0.00233652      -0.00499643       0.01320516
H        8.39411526       8.46017721       4.94591177       0.00159313      -0.00016552      -0.00160351
