137
Lattice="13.027820103887148 0.0 0.0 0.0 13.027820103887148 0.0 0.0 0.0 13.027820103887148" Properties=species:S:1:pos:R:3:forces:R:3 energy=-1036443.1875 stress="0.0006022208835929632 -0.0001795530697563663 0.000994206639006734 -0.0001795530697563663 0.0005695222062058747 -0.0003059223818127066 0.000994206639006734 -0.0003059223818127066 0.004115123767405748" pbc="T T T"
Gd       2.29064661      12.17715523       5.75565640      -0.00973400       0.04885902      -0.00156969
Gd      12.31699635      12.75431914      11.84644683       0.02093750       0.03148747       0.02045825
O       11.23797448      12.50589184       7.96995420       0.00348485       0.03726763       0.00510669
O       12.87050129      11.46325983      10.08097323      -0.01011889       0.02060467       0.01104666
O       12.57570602      14.04270964       9.98318340       0.01028071       0.01998889       0.01238054
O       14.00902387      12.81663824       7.49650741       0.00592101       0.00776653       0.02740206
Mo      12.72847712      12.70867558       8.75616351       0.01886955       0.02261452       0.02059758
O        4.20682044      13.03390685       5.66021284      -0.01312222       0.03977370      -0.00564766
O        3.56276947      11.25240737       7.45670013       0.01415771       0.01645577      -0.01204300
O        5.54720060      13.27447205       8.32452002      -0.01386905       0.02225339      -0.02092373
O        6.38192571      11.13596149       6.67332609       0.00900054       0.02885026      -0.03578842
Mo       5.07579891      12.18451375       7.08573154      -0.01072681       0.02983654      -0.01866239
O        0.60044922      10.29043214       1.98356646       0.00739297      -0.01384211       0.00159632
O        1.39745374      12.44412559       3.69065551      -0.01346314      -0.00522918       0.00753444
O        0.49337758      12.80722278       0.61308433       0.00333991       0.01008728       0.03672508
O        2.98502202      11.59189361       1.47608958       0.00838649      -0.00879659       0.01241845
Mo       1.36545812      11.82984508       1.96000360       0.00250307      -0.01371425       0.01279778
O        6.92783644      11.54172002      10.90374187       0.00100313       0.00298822      -0.00631031
C        8.09164729      10.77157968      10.71360531       0.00164050       0.00185584       0.00898981
C        5.89017242      10.82522359      11.55372758      -0.00228399       0.00642484      -0.00523319
C        9.10932590      11.62656221       9.99579074       0.01082355       0.00241581       0.02041826
C        4.61212976      11.61559716      11.44282662      -0.00153393       0.00849020      -0.00344554
H        8.47695883      10.40015007      11.67541324      -0.01036443       0.00231270       0.01375920
H        7.85269834       9.88986758      10.09907109       0.00925893       0.00076938       0.00751090
H        5.78074721       9.83673279      11.07912779      -0.00469052       0.00528187      -0.00252089
H        6.16092390      10.65509139      12.60724031       0.00004475       0.00647712      -0.00617272
H       10.03684128      11.07424073       9.82825964       0.01158754       0.00014448       0.03250628
H        8.72310705      11.94142448       9.02634743       0.02061932       0.00140990       0.01612493
H        9.32061552      12.54453381      10.56413760       0.00484273       0.00066355       0.02487994
H        3.81398265      11.11077732      11.98711364       0.00090230       0.01385293       0.00584432
H        4.73949402      12.60921927      11.87029112       0.00116867       0.01067279      -0.00911774
H        4.32914196      11.73148848      10.39704139      -0.00846325       0.00392032      -0.00229660
O        8.25345383       6.43025269       7.57894578      -0.00285894       0.00031209      -0.00174952
C        9.66237159       6.44027094       7.64244853      -0.00247017      -0.00163168       0.00014727
C        7.71184309       7.74230161       7.65990656      -0.00092036       0.00096035      -0.00185785
C       10.16694282       5.01805093       7.60016497      -0.00345454      -0.00215739      -0.00365241
C        6.20851598       7.66322552       7.59163799      -0.00119233       0.00438921      -0.00340831
H       10.07058523       7.02496343       6.80337051      -0.00068027       0.00072980       0.00245112
H        9.99098757       6.93959897       8.56738579      -0.00312115      -0.00485629       0.00231463
H        8.03447193       8.21138374       8.60059437      -0.00074956       0.00041176      -0.00115258
H        8.10533560       8.36128328       6.84386078       0.00126679       0.00079569      -0.00171638
H       11.25611981       5.00097596       7.65916571      -0.00344782      -0.00304952      -0.00167038
H        9.76476898       4.44411837       8.43505393      -0.00563321      -0.00454960      -0.00607674
H        9.86296773       4.52906573       6.67471102      -0.00235695       0.00109177      -0.00599043
H        5.78599836       8.66858988       7.62384942       0.00077990       0.00565606      -0.00447932
H        5.89037100       7.18667784       6.66327770      -0.00124393       0.00475041      -0.00379375
H        5.81701526       7.08257859       8.42850878      -0.00333578       0.00469551      -0.00365043
O        2.54342617       7.73922144       5.84404581      -0.00816172      -0.00673497      -0.00015840
C        2.31321338       9.07686947       5.44261480      -0.00835338      -0.00527662       0.00197572
C        2.03455625       7.45009781       7.13472760      -0.01408734      -0.00658190      -0.00333887
C        3.32526869       9.41029924       4.36387946      -0.00400317      -0.00063565       0.00992119
C        2.46067997       6.05196666       7.50707784      -0.01099940      -0.00547677      -0.00118324
H        1.27467417       9.19639083       5.07882988      -0.00578791      -0.01345876      -0.00466114
H        2.45687536       9.70898567       6.33857829      -0.01735173       0.00086527      -0.00085649
H        2.42718115       8.17942425       7.85743805      -0.01529947      -0.00234860      -0.00750926
H        0.93746172       7.53914351       7.13997281      -0.01486272      -0.00725057      -0.00699420
H        3.26209432      10.43767744       3.98187997      -0.00660846       0.00255529       0.02118080
H        4.33716188       9.25133220       4.73190255      -0.00498223      -0.00313415       0.01339690
H        3.17386987       8.77162525       3.49639866      -0.00035299       0.00456731       0.00547068
H        2.06502744       5.78434895       8.48719950      -0.00357906      -0.00804849       0.00124748
H        2.09684933       5.33070498       6.77467848      -0.01160499      -0.00777330       0.00101733
H        3.54811379       5.98323259       7.54266820      -0.01026499      -0.00018355      -0.00870810
O        5.54410558       2.36649842      11.05385177      -0.00963748       0.00898027       0.01098322
C        6.71787715       2.78568962      11.70815757      -0.00203997       0.00218409       0.00122052
C        5.03426124       3.35177922      10.17784054      -0.00508326       0.00599450       0.00399566
C        7.28313711       1.61689633      12.47927464      -0.00814410       0.00203001       0.00578895
C        3.86311504       2.77434488       9.42275661      -0.01116306       0.00952378       0.01110691
H        7.44775312       3.14450985      10.96535639      -0.00282830      -0.00936739      -0.00535119
H        6.49691285       3.63228222      12.37924271       0.01058739       0.00885946      -0.00319093
H        4.73785829       4.24378123      10.75434871       0.00339712       0.01290548      -0.00232279
H        5.82538804       3.66522689       9.47964823      -0.00441074      -0.00655608      -0.00071511
H        8.19850049       1.91546014      12.99461787      -0.00244400      -0.00343808      -0.00081978
H        6.56698457       1.26368238      13.22180660      -0.00719680       0.01326896       0.01213931
H        7.49177836       0.78996842      11.79987800      -0.01899659      -0.00435467       0.01009983
H        3.44612724       3.52399858       8.74887445      -0.00560966       0.00742961       0.00480160
H        4.19380046       1.91212574       8.84505765      -0.01868916       0.00200060       0.01745649
H        3.08199159       2.45163233      10.11192019      -0.01330161       0.02304982       0.01465976
O        9.78024104       9.58768476       0.68748678       0.00691283      -0.00144425      -0.00852149
C       10.50514668       8.36010814       0.66992801       0.00735161      -0.00155157      -0.01042756
C       10.62303625      10.67589168       0.96602906       0.00503751      -0.00101590       0.00011028
C        9.53941289       7.22963644       0.41858881       0.00706032      -0.00124362      -0.01354620
C        9.81248855      11.95516291       0.99347028       0.00305226      -0.00224480       0.00235574
H       11.27197026       8.40897250      -0.11614103       0.00778821      -0.00083334      -0.01004934
H       11.02948147       8.23478361       1.62640500       0.00674318      -0.00386681      -0.01031250
H       11.16436057      10.52390439       1.90671338       0.00041981      -0.00508662       0.00216591
H       11.42575091      10.69954886       0.18687603       0.00822732       0.00375688       0.00370547
H       10.08367945       6.28847821       0.33447975       0.00745568      -0.00133011      -0.01363959
H        8.82272632       7.14049858       1.23367377       0.00540952      -0.00232778      -0.01477793
H        8.98707633       7.39319770      -0.50717015       0.00871749      -0.00043567      -0.01465587
H       10.45268122      12.81029174       1.24295250       0.00158811      -0.00379221       0.00941050
H        9.28921625      12.13308937       0.04740082       0.01019774       0.00186590      -0.00025569
H        9.04852445      11.89725791       1.77082117      -0.00272271      -0.00591275      -0.00257409
O       11.86569121       2.90780164       2.94022126       0.00508106      -0.01676542      -0.00621161
C       12.21395620       3.56622669       4.14872023       0.00343364      -0.01279753      -0.00791061
C       11.72623254       3.80583779       1.85957564       0.00197139      -0.01930428      -0.00885886
C       12.43440995       2.52959314       5.22392311       0.00590706      -0.01015323      -0.00507244
C       11.40131395       3.00878083       0.61320537       0.01649219      -0.02400321      -0.00974900
H       13.12210302       4.16661494       3.99202011       0.00212955      -0.01056513      -0.00910418
H       11.41070970       4.26286507       4.43533377       0.00230742      -0.01448527      -0.00765178
H       10.92995558       4.53598169       2.07304491      -0.00620016      -0.02709451      -0.01332620
H       12.65747473       4.37479255       1.71973526      -0.00268474      -0.01101793      -0.00540992
H       12.69704900       3.01650992       6.16481551       0.00674988      -0.00799288      -0.00639045
H       11.53197244       1.93856881       5.38257478       0.00527628      -0.01019361      -0.00331491
H       13.24243097       1.84940307       4.94099533       0.00529136      -0.01071002      -0.00499354
H       11.31467218       3.66368238      -0.25620719       0.01634648      -0.02719358      -0.01272395
H       12.20792100       2.28730519       0.43635179       0.02476318      -0.01731540      -0.00078411
H       10.45755234       2.47291704       0.74113995       0.02020934      -0.03219322      -0.01381133
O        6.18070833       2.99687229       4.42103130       0.00119658       0.00042772       0.00216597
C        5.22125314       4.02532472       4.54991107      -0.00026721      -0.00024356       0.00340879
C        7.22546675       3.12310567       5.36690215      -0.00322902      -0.00335613       0.00748923
C        4.08564430       3.75285414       3.59392661       0.00053209       0.00037391       0.00182229
C        8.16478609       1.95295317       5.20915931      -0.00009683      -0.00095886       0.00391810
H        4.85244468       4.06195623       5.58615695      -0.00104196      -0.00250326       0.00319010
H        5.68624053       5.00138997       4.33854410      -0.00070986       0.00064546       0.00565511
H        7.75095038       4.07881621       5.21237875      -0.00291139      -0.00096422       0.01513605
H        6.80700806       3.14508027       6.38345449      -0.00654739      -0.00908525       0.00503457
H        3.34224999       4.54835114       3.66011257       0.00017592       0.00036375       0.00255771
H        4.45321982       3.70430790       2.56851697       0.00106509       0.00117001       0.00167328
H        3.60925395       2.80145486       3.83465620       0.00092597      -0.00035544       0.00096775
H        8.97634311       2.02039972       5.93445255      -0.00264040      -0.00405974       0.00825612
H        7.63467503       1.01572659       5.38059294       0.00177935      -0.00481799      -0.00424460
H        8.59456090       1.93310092       4.20672805       0.00417035       0.00441287       0.00639005
O        5.94381801       8.78793373       2.56535553       0.00117791      -0.00475684      -0.00688076
C        7.27889219       8.78006944       3.04125971       0.00128996      -0.00576812      -0.00758159
C        5.81425381       8.12889158       1.32305659       0.00039339      -0.00561687      -0.00692296
C        7.36121114       9.65146959       4.26471275       0.00194724      -0.00439486      -0.00757366
C        4.39769843       8.29206472       0.82872972      -0.00060105      -0.00740837      -0.00538042
H        7.58188105       7.74609500       3.27760453       0.00075956      -0.00584680      -0.00666051
H        7.94812509       9.14861327       2.25359280       0.00177372      -0.00641441      -0.00783676
H        6.52746901       8.56235936       0.60642483      -0.00082174      -0.00501922      -0.00812736
H        6.07313952       7.06276712       1.43267916       0.00147381      -0.00542921      -0.00667027
H        8.38665545       9.69754080       4.63408805       0.00183228      -0.00622050      -0.00676633
H        7.03005913      10.66565565       4.04332110       0.00376873      -0.00402573      -0.00829621
H        6.73310138       9.28109049       5.07133852      -0.00020207      -0.00241345      -0.00830026
H        4.30476079       7.89082599      -0.18140580      -0.00124794      -0.00940001      -0.00482118
H        3.69627896       7.76150266       1.47275454       0.00062959      -0.00673814      -0.00320446
H        4.11733158       9.34621269       0.81910784      -0.00140490      -0.00743499      -0.00680520
