140
Lattice="12.245842140718045 0.0 0.0 0.0 12.245842140718045 0.0 0.0 0.0 12.245842140718045" Properties=species:S:1:pos:R:3:forces:R:3 energy=-855596.0 stress="-0.0011880960082635283 3.5916746128350496e-06 0.0007882559730205685 3.5916746128350496e-06 -0.0019293653313070536 0.0004645654553314671 0.0007882559730205685 0.0004645654553314671 -0.0010872980346903205" pbc="T T T"
Gd      12.66489470      12.99783324       6.98071913      -0.00459617      -0.00739454       0.00296733
Gd       4.43246555       9.05544919       5.70423150       0.00174558      -0.01232454       0.00089411
S        5.40452805       5.55642829       4.97755865       0.01250458      -0.01059389       0.00356078
S        7.35975259       9.17986006       4.81769713       0.00153814      -0.00636762       0.00251903
S        7.42833254       6.01299878       5.57676397       0.01448101      -0.00647672      -0.00569341
S        8.14666113       7.25680564       4.19324360       0.00597697      -0.00193995      -0.00542876
O        5.40043388       5.18031294       3.58854243       0.00773563      -0.01292485       0.00516164
O        6.87531874       9.04630952       6.20683158       0.00101944      -0.01274011       0.00161022
O        4.67062509       6.85146815       5.19654822       0.00989878      -0.01297188       0.00589209
O        5.11312530       4.55593886       5.97070284       0.02000025      -0.01090539       0.00702679
O        8.43311565      10.09602426       4.55394963      -0.00092036      -0.00145739       0.00734250
O        6.12293264       9.42933028       4.00349535       0.00202262      -0.00684081       0.00252271
S        3.80953445       7.41154499       8.73761477      -0.00516373       0.00230189       0.00696671
S        0.74261137       9.47324664       6.35872552       0.00076675      -0.01180659      -0.00872564
S        2.06603488       6.81472499       7.54372767      -0.00506659      -0.00334268       0.01153506
S        0.72220614       8.20710112       8.05844094      -0.00306997       0.00196671       0.00068985
O        3.29325000       7.85882959      10.00544927      -0.00270092       0.00546297       0.00531650
O       -0.06125221       8.93827003       5.30232076       0.00441965      -0.01995239      -0.00676158
O        4.39403009       8.53141381       7.93692399      -0.00283757      -0.00403547       0.00319710
O        4.58225611       6.20008774       8.69287919      -0.00458986      -0.00191271       0.01119266
O        0.22189851      10.72831242       6.96490839      -0.00286797      -0.00675786      -0.02057579
O        2.16522542       9.63825803       5.97481861       0.00159943      -0.01406542      -0.00512457
S        1.08329837       3.41428027       5.02322183       0.02148189       0.00792658       0.02330833
S        4.05863781       0.44458613       6.53092733      -0.00431451      -0.01409104      -0.00545436
S        1.80045667       1.38410508       4.34539791      -0.00345699       0.00597176      -0.00111769
S        3.78980993       1.44588755       4.63897179      -0.00301967      -0.00723204      -0.00219287
O        2.24713319       4.12027500       5.47267080       0.00335991      -0.00605711       0.00694087
O        4.64155744      -0.86080287       6.17379469      -0.00149230      -0.01067122      -0.00817972
O        0.21315950       2.93276554       6.14876559       0.01276979      -0.00011085       0.02183610
O        0.34370794       3.92379824       3.90558942      -0.00564259       0.01446706       0.02052516
O        4.91150786       1.26176193       7.34720575      -0.00644520      -0.01493017      -0.00018182
O        2.69073451       0.28915309       7.06858848      -0.00478722      -0.01711079      -0.00716772
O        6.98635396       8.49455674      10.16895149       0.00501156       0.00017476       0.02300042
N        6.17680568      10.61037300       9.89393361      -0.00490705      -0.00679564      -0.00049132
C        7.12800632      10.98684764       8.87107005      -0.00056197      -0.01075698       0.00253922
C        5.28992162      11.63055134      10.39701880      -0.01148295      -0.00651029      -0.01281036
C        6.17575223       9.36812458      10.42422200      -0.00124967      -0.00111020       0.01115847
H        7.88413204      11.67312797       9.26988656      -0.00019577      -0.01202333       0.00364423
H        6.60321671      11.48961022       8.05825976       0.00370568      -0.01105200      -0.00006148
H        7.60862127      10.09295290       8.48292540      -0.00077288      -0.01232451       0.00572344
H        5.82518394      12.33953905      11.04095548      -0.01836124      -0.00211942      -0.01237664
H        4.48687876      11.16726555      10.97066643      -0.01510175      -0.00533268      -0.01678035
H        4.85524174      12.18168939       9.56207155      -0.00607488      -0.01195668      -0.01866269
H        5.34638025       9.21370169      11.13223869      -0.00313199       0.00056076       0.00844139
O       13.37771944      11.12808263      11.28056660       0.00795233       0.01507103      -0.02515534
N       11.33395156      10.55673363      10.43037908       0.00270605      -0.00003671      -0.00089339
C       10.94528926      11.91921953      10.17656491      -0.00218664      -0.00406119      -0.01402507
C       10.42378978       9.51848917       9.98202082       0.00319058      -0.00762400       0.01646643
C       12.55025108      10.28786964      10.95598663       0.00818902       0.00995123      -0.00824478
H        9.94397129      12.10471861      10.57158429      -0.00197873      -0.00336195      -0.01457953
H       10.91605576      12.11874366       9.09082863      -0.00546843      -0.01540206      -0.01585749
H       11.66500088      12.58699689      10.63985851      -0.00358805       0.00322789      -0.02267238
H        9.44376085       9.62878300      10.45235632       0.00570196      -0.00465022       0.02026820
H       10.82212169       8.54151013      10.24691445       0.00683707      -0.00331970       0.02586882
H       10.28854707       9.55166664       8.89834115      -0.00350973      -0.02069997       0.01688957
H       12.72425208       9.20691975      11.07866872       0.01216316       0.01172668       0.00250127
O        9.76095422       8.06162255       7.22570058      -0.00583643       0.00428391       0.00685182
N        9.74492050       5.94951461       8.09837989      -0.00201148       0.00450695       0.00612789
C        8.76681998       6.24529896       9.12392259      -0.00343598       0.00074528       0.00574838
C       10.15016759       4.57780806       7.95043708       0.00016937       0.00575426       0.00499140
C       10.11694068       6.89747953       7.20671793      -0.00442219       0.00607395       0.00654801
H        9.17307703       6.03278707      10.11625551      -0.00452386      -0.00093910       0.00552449
H        7.86483036       5.64560744       8.97331158      -0.00210387      -0.00058517       0.00285179
H        8.48704602       7.29023225       9.06003908      -0.00532489       0.00025603       0.00818420
H       10.54416977       4.19127722       8.89590749       0.00814119       0.00721110       0.00204971
H       10.92271891       4.48454300       7.18970182      -0.00546843       0.00655491      -0.00076652
H        9.29418957       3.95846136       7.66030945      -0.00082740       0.00407755       0.01212100
H       10.80696128       6.50097352       6.44038207      -0.00381094       0.00714129       0.00632364
O        4.57724372       7.87543214       1.46605231       0.00753170       0.01823080       0.00564492
N        3.03269904       8.90124919       2.83447154       0.00917825       0.00472257       0.00358711
C        2.23158276       7.68052071       2.92522561       0.01642928      -0.00218880       0.00226235
C        2.27208197      10.15561517       2.80809156       0.00630634      -0.00387655       0.00438732
C        4.12031359       8.86451703       1.98707451       0.01056123      -0.00961757      -0.00027168
H        1.58807254       7.57394369       2.04545241       0.01698956      -0.00516673      -0.00063995
H        1.60637609       7.73081703       3.81354490       0.00965491      -0.00329838       0.00055885
H        2.89813085       6.82496718       2.98239287       0.01608282       0.00076079       0.00563795
H        1.76874543      10.29611595       1.84523670       0.00535014      -0.00482735       0.00090230
H        2.94830096      10.99483157       2.97820230       0.00055978       0.00047286       0.00355280
H        1.52449754      10.13840681       3.59582198       0.00317226      -0.00437546       0.00111377
H        4.55592728       9.87089699       1.84795706       0.00783336       0.00928319       0.00495128
O        9.32491710       6.35624972       0.83882559       0.00834060       0.01549911      -0.03392403
N        8.68432555       8.52370652       1.14162932       0.00882541       0.01147598      -0.00699671
C       10.01705049       8.99328576       1.44973569       0.00698347       0.00869088       0.00306783
C        7.62873976       9.50651278       1.04616403       0.00866424       0.01247629       0.00498818
C        8.45966555       7.22242308       0.86066933       0.00998878       0.01502001      -0.02493144
H        9.98556442       9.64377347       2.32444633       0.00542247      -0.00880593       0.01579651
H       10.43831270       9.55490387       0.61043792       0.00596794       0.02657428       0.01483506
H       10.64872140       8.13268036       1.65490504       0.00890583       0.00633174      -0.01385542
H        7.60183628      10.12311590       1.94478362       0.01075532       0.00339091       0.01079735
H        6.67599088       8.98975387       0.94440794       0.00805634       0.01319042       0.00295774
H        7.78010983      10.15420027       0.17679053       0.00535364       0.02100891       0.01140106
H        7.39716058       7.01107131       0.66561030       0.01027644       0.01796021      -0.03202660
O       11.25379791       1.29945140       2.28089662      -0.00274754       0.01022607       0.01127458
N        9.63647181       2.76035109       1.56318255      -0.00040057       0.00567418      -0.00156333
C        9.66097026       3.60016053       2.74532916      -0.00071657       0.01500563      -0.00859211
C        8.70763698       3.13635257       0.51291626      -0.00042222      -0.00166294      -0.00397348
C       10.45265779       1.70011037       1.44536498      -0.00201309       0.00394660       0.00754285
H        8.63821369       3.76324703       3.09291362       0.00010934       0.01152625      -0.00507730
H       10.09823183       4.57085241       2.51218998      -0.00824516       0.01576191      -0.01940005
H       10.25880778       3.11155074       3.50896616       0.00570762       0.02560353      -0.00718026
H        7.68136817       3.08608567       0.88277479      -0.00147948      -0.01235615      -0.00854808
H        8.80957909       2.44026460      -0.31902266       0.01007622       0.00193265      -0.00536193
H        8.91435442       4.15566295       0.18293472      -0.00827056       0.00088936      -0.00063552
H       10.31874320       1.18883251       0.47386002      -0.00191277      -0.00468209       0.01221418
O       10.67009606       0.54656372       5.81246004      -0.02137893       0.01898384       0.04005527
N        8.58853606       1.42165990       5.36569896      -0.01460076       0.01196488       0.00877544
C        8.36746748       0.79432754       4.07086219       0.01070935       0.00412229       0.00884119
C        7.54552957       2.31569651       5.84135944      -0.02787715       0.00667310      -0.01332702
C        9.66963760       1.24734260       6.09127464      -0.02587092       0.01813760       0.02612266
H        8.06496049       1.55774745       3.35667644       0.01176942      -0.00211805       0.00224759
H        7.56507415       0.06495341       4.16518796       0.01761830      -0.00400379       0.00006568
H        9.27507618       0.29864063       3.74536423       0.02010038       0.01312502       0.02232945
H        7.61146196       3.28074504       5.33982578      -0.03659448      -0.00203148      -0.02979754
H        7.63486972       2.45479331       6.91568786      -0.03765818       0.02747633      -0.01565811
H        6.57247193       1.87988133       5.64314579      -0.02076325      -0.00849001      -0.01314185
H        9.64524597       1.81010818       7.03702046      -0.03889844       0.01966800       0.02358454
O        0.94447384       1.61902543       9.03088315       0.00105870      -0.01330459       0.00021236
N        2.66004291       2.88936895       9.81101113       0.00186720      -0.00928406      -0.00961687
C        2.01192488       4.13425585       9.43456452       0.00608380      -0.01150393      -0.02296048
C        4.05590574       2.98660373      10.21202388      -0.00037789      -0.00741005      -0.00439146
C        2.08287769       1.73417865       9.57062461       0.00040150      -0.01080984       0.00044649
H        2.27786438       4.38648050       8.41046957       0.01448099      -0.02003831      -0.02294141
H        2.36479224       4.92646634      10.09086659       0.00166537      -0.00767620      -0.02557455
H        0.93455022       4.02292725       9.51242852       0.00554979      -0.00958129      -0.03161383
H        4.64736663       3.31876279       9.35821696       0.00128064      -0.00323085      -0.00143471
H        4.40500953       2.01847348      10.55604667       0.00093846      -0.00744659      -0.00669165
H        4.15524283       3.71713215      11.01210527      -0.00473242      -0.00948071      -0.00205597
H        2.64413032       0.84553350       9.86556932      -0.00283290      -0.00937185       0.00980394
O        5.71831295       1.58592784       1.37609912      -0.00745010      -0.00511259      -0.00135693
N        3.45967734       1.97894532       1.22425158      -0.00624031       0.00361499      -0.00098670
C        3.53484845       3.38279760       1.57804896      -0.00127726       0.00132278       0.00567881
C        2.16240277       1.44404982       0.85709377      -0.00711563       0.01016236      -0.00521001
C        4.57116656       1.21887780       1.16515407      -0.00897622      -0.00021166      -0.00427140
H        3.02094633       3.57562950       2.52210826      -0.01059665      -0.00040329       0.00084880
H        3.04950744       3.98640739       0.80773967       0.01076582       0.00790986       0.00342351
H        4.57435812       3.67635314       1.68478197      -0.00101799      -0.00506631       0.01804123
H        1.43741094       1.56684461       1.66054031      -0.00703970       0.00646600      -0.00453055
H        2.24654581       0.38698251       0.61466503      -0.01051424       0.01196280      -0.01307411
H        1.77881160       1.96411247      -0.02412934      -0.00514512       0.01804689      -0.00144118
H        4.32953505       0.17468492       0.89447610      -0.01198469       0.00240201      -0.00974581
