137
Lattice="13.000070651303037 0.0 0.0 0.0 13.000070651303037 0.0 0.0 0.0 13.000070651303037" Properties=species:S:1:pos:R:3:forces:R:3 energy=-794376.6875 stress="0.0009665252291597426 2.0826612399105215e-05 0.00027496468101162463 2.0826612399105215e-05 0.0004392822738736868 6.97215781997329e-06 0.00027496468101162463 6.97215781997329e-06 0.0015367520973086357" pbc="T T T"
Gd       2.01239110      11.22440430       5.72293973      -0.00936190      -0.01365043      -0.01582548
Gd      13.92140819      11.94069638       9.44388893       0.03599656       0.01550859      -0.02339906
S       12.26480243      12.14034849       6.74746504      -0.00042063       0.00098715      -0.00321446
S       11.49417832      11.26315462       8.41551364       0.01780677       0.03402691       0.02231257
O       12.63576338      11.11664222       5.72855458      -0.00294222      -0.01629817       0.01313571
O       13.69996632      12.59367083       7.23250683      -0.00062907       0.01263524      -0.02403143
O       11.49568184      13.23675263       6.26179308      -0.01236554      -0.01478267      -0.02150269
S        4.34239905      11.14577331       8.51963364      -0.00528840       0.00294143      -0.00730342
S        5.79430029      11.47168833       7.00236081      -0.00450575       0.00973223      -0.00419192
O        2.97496074      11.48866765       7.90728280      -0.00473265      -0.00310131      -0.01436513
O        4.66860201      12.10401170       9.54453084      -0.02256645       0.00110953      -0.00149638
O        4.38164662       9.74258472       8.84722752       0.00003756      -0.00009976      -0.01151178
S        4.63082438      12.06653782       4.03505438      -0.01380176       0.00870627      -0.00303721
S        5.04320217      10.41603125       5.42965592      -0.00552137       0.00881629      -0.00329074
O        5.76488512      12.93404303       4.04956973      -0.01630378       0.01202899      -0.00245984
O        3.41683123      12.66954612       4.68825478      -0.01688501       0.00319707      -0.00454926
O        4.30439577      11.33006190       2.83735954      -0.01170431       0.00641403      -0.00269775
O        1.52416407       9.18147118       9.34775317       0.00270209       0.00422561       0.00372021
O        2.30356128      10.32896534      11.00359903       0.00347006       0.00098228       0.00403270
O        2.80140958       8.10972504      10.90948146      -0.00089410      -0.02146196       0.01712310
C        1.52449070       8.00937636       8.45858216      -0.01457521       0.00255150       0.00634652
C        1.65820123       8.47063942       7.02470464      -0.01485629      -0.00207206       0.00530359
C        2.27415456       9.07524820      10.45898145      -0.02261168       0.03268123      -0.01109332
C        3.23842267      10.46470934      12.12174110       0.00337648      -0.00382063       0.00260437
H        2.35624071       7.37721269       8.75747782      -0.01859292      -0.00843060       0.00515620
H        0.58344236       7.48987836       8.60970508      -0.01779521       0.00926380       0.01224433
H        1.54139587       7.59166033       6.38682622      -0.02570167       0.00312546       0.00077326
H        0.84006505       9.16042263       6.76872681      -0.00982863       0.00770979       0.01643203
H        2.65652810       8.89574813       6.83908893      -0.01296788      -0.00615122       0.00621055
H        2.91807907       9.81282267      12.92756162       0.00131658      -0.00367633       0.00497736
H        3.18092756      11.50887095      12.41683355       0.01391724      -0.00484045       0.00388020
H        4.23769887      10.21466317      11.77400806       0.00314555      -0.01522446       0.00435638
O        1.34714465       9.32685121       2.01750635       0.00258099      -0.00738627      -0.00911719
O        0.95510011      11.31173512       1.30939970       0.00442828      -0.00722526      -0.01342130
O        1.36427928      11.01632377       3.51093177      -0.01532941      -0.00593342      -0.01057667
C        1.61759792       8.35294792       3.07235353      -0.00070824      -0.00494616      -0.00555313
C        1.32094037       7.00067591       2.49104668       0.00475635      -0.00697735      -0.00391483
C        1.24051223      10.58086343       2.36777226      -0.00386490      -0.00677353      -0.01144356
C        0.79065817      12.72959120       1.50394728       0.00676676      -0.00671721      -0.01212782
H        2.66587216       8.47648845       3.36433755      -0.00184271      -0.00262646      -0.00140207
H        0.97395959       8.58903999       3.92501068      -0.00514697      -0.00455507      -0.00892250
H        1.63093013       6.21676351       3.18033455       0.00457846      -0.00482816      -0.00121099
H        0.25789851       6.89238288       2.27894179       0.00575575      -0.01023352      -0.00758459
H        1.87564333       6.84459299       1.56886671       0.00883426      -0.00730601      -0.00159831
H       -0.01584556      12.92520521       2.20935748       0.00200321      -0.00587631      -0.01781258
H        0.53837076      13.10469326       0.51087642       0.01549693      -0.00409785      -0.01334619
H        1.71827935      13.17402412       1.85974741       0.00543031      -0.01065155      -0.00331607
O        7.56342633       8.87113382      11.13082541       0.00568110       0.00316358       0.00102398
O        8.55850701      10.61253042      11.95721574       0.00944766       0.00534280      -0.00684687
O        9.25426849       9.81900216       9.95662882       0.00151831      -0.00007659      -0.00702262
C        7.36826988       7.92296275      10.03948969       0.00441808      -0.00028664       0.00465876
C        6.39849678       6.87156165      10.50105459       0.00185102       0.00347576       0.00872177
C        8.52100370       9.76418269      10.91385882       0.00656939       0.00325868      -0.00556570
C        9.50207116      11.67882156      11.79970532       0.01514763       0.00024453      -0.00979504
H        6.98728966       8.48196066       9.18243775       0.00678293      -0.00298980       0.00185990
H        8.34084227       7.50588173       9.77744580       0.00359526      -0.00398059       0.00712586
H        6.20766682       6.17142761       9.68589569       0.00009971       0.00094530       0.01121755
H        6.79843430       6.30902341      11.34561686       0.00087471       0.00565062       0.01058073
H        5.44375199       7.31539809      10.78499622       0.00273457       0.00645088       0.00798053
H       10.52068681      11.29005374      11.69927421       0.01270831      -0.00618629      -0.00804636
H        9.40893861      12.27779196      12.70143411       0.01880343       0.00339785      -0.01134610
H        9.26019200      12.27342811      10.92049315       0.01879293      -0.00121845      -0.01182881
O        5.43542245       2.73742164      11.08908925      -0.00761840      -0.00279194       0.00138103
O        3.62053761       3.69191900      11.76587394      -0.00493334      -0.00053173       0.00487699
O        4.39144362       4.18939815       9.69434009      -0.00769372       0.00028074       0.00281644
C        6.47166477       2.55352722      10.08937439      -0.00754443      -0.00307244       0.00083792
C        7.39976571       1.48596062      10.60317370      -0.00643131      -0.00236014       0.00075409
C        4.48353695       3.59639761      10.74201391      -0.00555077      -0.00189388       0.00472593
C        2.53457129       4.60076093      11.53257897      -0.00419979       0.00040574       0.00836012
H        6.00587947       2.27320633       9.14729401      -0.00769806      -0.00292078       0.00073940
H        6.97903413       3.50719769       9.93697023      -0.00858834      -0.00240368       0.00081501
H        8.20780760       1.34651225       9.88293920      -0.00530057      -0.00009151       0.00146115
H        7.82979185       1.77117393      11.56427939      -0.00831745      -0.00190296       0.00156057
H        6.87386114       0.53811554      10.72009978      -0.00470801      -0.00372219      -0.00015132
H        2.91105375       5.59760460      11.31016102      -0.00382300       0.00006017       0.00510451
H        1.96132884       4.60028568      12.45440525      -0.00060551       0.00276827       0.01067245
H        1.93404966       4.25217091      10.69160497      -0.00867495       0.00039968       0.01151145
O       11.98481147       3.51453953       7.57243024       0.00878323      -0.00246337       0.00283304
O       11.83534877       4.39448773       5.60453425       0.00315975      -0.00449806       0.00072273
O       12.49914892       5.70794651       7.32492180      -0.00156073      -0.00114155      -0.00008866
C       12.22707509       3.64480362       8.98693851       0.00653993       0.00212067       0.00317398
C       12.07508737       2.27755170       9.60535313       0.01636282       0.00185654       0.00224847
C       12.14121820       4.64114878       6.87702733       0.00325784      -0.00229830       0.00072211
C       11.94613867       5.52862406       4.73280618      -0.00003050      -0.00472599      -0.00086181
H       13.22320326       4.06158513       9.13943180       0.00443971       0.00669521       0.00217942
H       11.50029564       4.34453652       9.40499162      -0.00094303      -0.00403917       0.00065421
H       12.11976598       2.35262166      10.69448422       0.01618994       0.00160394       0.00189978
H       11.12614062       1.82164021       9.31914714       0.02386519      -0.00908658      -0.00254158
H       12.89323229       1.61910562       9.27381897       0.02095591       0.01148793       0.00197479
H       11.17554030       6.26479877       4.96573418       0.00013366      -0.00520127       0.00219752
H       11.81588168       5.14234609       3.72692336      -0.00326478      -0.00664248      -0.00009707
H       12.92606597       5.98947720       4.83789540       0.00076619      -0.00544002      -0.00358448
O        5.24214279       5.07594117       1.42430291       0.01062645       0.00088410      -0.00521224
O        4.90989431       2.94579906       1.51267841       0.01106580       0.00053971      -0.00210458
O        3.12642731       4.32496381       1.73093718       0.01185167       0.00035539       0.00765906
C        4.74719286       6.42911053       1.51390606       0.01186550       0.00065529       0.00232089
C        5.93629646       7.35191606       1.52483968       0.01258665      -0.00032291       0.00079112
C        4.31111487       4.13533489       1.56696784       0.01199937      -0.00003546       0.00066382
C        4.01055370       1.83661911       1.55333504       0.01083069       0.00005288      -0.00466490
H        4.08900698       6.61302929       0.65939743       0.00854465       0.00986417       0.00628924
H        4.15750161       6.51650178       2.42861826       0.01395828      -0.00567562       0.00468749
H        5.59373300       8.38774897       1.56894416       0.01149159      -0.00042020      -0.00078482
H        6.56101585       7.15237355       2.39494287       0.00938462      -0.00037665       0.00271799
H        6.53847523       7.22814413       0.62615171       0.01596047       0.00003055       0.00234383
H        3.43203525       1.84919503       2.47852977       0.01548906      -0.00565310      -0.00173146
H        4.63719731       0.95075834       1.50816127       0.01062451       0.00030869      -0.01196535
H        3.33907286       1.87969882       0.69412584       0.00659522       0.00532532      -0.00128904
O       10.99428198       6.90192255       1.05017350      -0.00378169      -0.00004976       0.01134218
O       11.38401170       4.77984252       1.12975657      -0.00351807      -0.00012580       0.00704537
O        9.28817892       5.47650695       0.60414007       0.00013590       0.00046416      -0.00874679
C       10.08299790       8.01825020       0.89434753      -0.00211674       0.00084257       0.00591779
C       10.90953032       9.27198973       0.99838239      -0.00237030       0.00037137       0.01402225
C       10.43318432       5.70129562       0.89458535      -0.00116944       0.00039454       0.00246471
C       10.91300259       3.42719759       1.06512461      -0.00246346      -0.00041726      -0.00001562
H        9.57700421       7.92921208      -0.06682489       0.00569625       0.00279035       0.00145271
H        9.32612559       7.95661450       1.67792315      -0.00857601      -0.00056148      -0.00034851
H       10.25168390      10.13915190       0.96714423      -0.00112507       0.00104780       0.00566700
H       11.46407191       9.29056293       1.93694173      -0.01249842       0.00128545       0.02013224
H       11.62303520       9.33828711       0.17570036       0.00645573      -0.00135007       0.02163719
H       10.21379540       3.23004552       1.87728932      -0.00696516      -0.00330636      -0.00453329
H       11.80083854       2.80952248       1.17044927      -0.00242928      -0.00008095       0.00302855
H       10.41485921       3.24035944       0.11478423       0.00287901       0.00229124      -0.00340408
O        6.30266834       3.34678895       6.88608030      -0.00837077       0.00485745       0.00137684
O        7.97280899       4.56977490       7.50113604      -0.00557658       0.00074717       0.00178498
O        6.91324595       5.08783066       5.56509648      -0.00461948       0.00194597       0.00037742
C        5.19065842       3.04774638       6.00220980      -0.01027796       0.00695324       0.00324777
C        4.25170783       2.15198852       6.76972409      -0.01260567       0.00644293       0.00136632
C        7.04071356       4.39616371       6.54356607      -0.00578363       0.00329494       0.00011963
C        8.84883461       5.67552935       7.25687222      -0.00333428      -0.00135756      -0.00066504
H        4.71882111       3.98552406       5.71144456      -0.00300826       0.00972623      -0.00138871
H        5.58728972       2.55900906       5.11103448      -0.00896603       0.00301710       0.00654411
H        3.40086570       1.89547776       6.13800825      -0.01025558       0.00473572      -0.00123365
H        4.74806640       1.22263405       7.05001253      -0.01023352       0.00919250       0.00565942
H        3.89604118       2.65518436       7.66887027      -0.01367164       0.00440496       0.00094716
H        9.37723178       5.53726289       6.31522249      -0.00736617      -0.00824652      -0.00169376
H        9.54791633       5.68749611       8.08873720       0.00080326       0.00267775      -0.00375217
H        8.28999348       6.61002975       7.21665754      -0.00441054      -0.00206247      -0.00098022
