140
Lattice="13.031113277720412 0.0 0.0 0.0 13.031113277720412 0.0 0.0 0.0 13.031113277720412" Properties=species:S:1:pos:R:3:forces:R:3 energy=-839648.1875 stress="7.365459896391258e-05 0.00023004122340353206 0.000693356356350705 0.00023004122340353206 -0.0004118477809242904 -0.00022145770344650373 0.000693356356350705 -0.00022145770344650373 0.00038089705049060285" pbc="T T T"
Ho       2.12475751      11.83569584       4.65163737      -0.00624301       0.00199744       0.00040361
Ho      11.00406128      12.31958758       8.58586908       0.00454679      -0.01321092      -0.01222458
P        3.81908268      11.50264259       1.87040703      -0.00730091       0.00935963      -0.00021827
O        5.40107113      11.35273413       1.65172876      -0.00759816       0.01153389      -0.00500923
O        3.44992920       9.94577033       2.20129427      -0.00540334       0.00782537      -0.00471008
O        3.11913943      12.01005305       0.68395484      -0.01049274       0.01465818       0.00417447
O        3.67392175      12.25380119       3.19726347      -0.00535676       0.00533998       0.00233713
H        5.58298982      11.22706683       0.71451208      -0.00971577       0.02208462      -0.00668800
P        0.73155965      11.48341759       7.05764191       0.00593378       0.00701499       0.00747205
O        0.29537163       9.97138243       7.41114369       0.00539607       0.00491637       0.00267065
O        0.13722809      12.27332363       8.20855885       0.01120013       0.00417443       0.01123279
O        0.12604142      11.86134960       5.70077485      -0.00077391       0.01408425       0.01233089
O        2.24145310      11.56945788       6.87152702       0.00485522      -0.00056086       0.00059795
H        0.46048315       9.36771155       6.67573710       0.04535794      -0.00271368       0.01963526
P        8.11188429      12.47583515       8.08351520       0.00749448       0.00764295      -0.01762952
O        9.05317370      12.75678032       9.60235557       0.00903316       0.01265776      -0.01873076
O        7.40660012      11.19706315       8.29729065      -0.00060451       0.01190412      -0.00921974
O        9.45417518      12.25176589       7.25505598       0.00542444      -0.00546609      -0.01607203
O        7.48046442      13.78151924       7.81337883       0.01377630       0.00819373      -0.02209067
H        8.48658302      13.22780168      10.22802362       0.00863566       0.01392070      -0.01967289
O       10.57022871      10.00677800       9.11860635      -0.00973883      -0.00542325       0.00625885
O       11.78077471      10.99406121      10.59423626      -0.00388744      -0.00443357       0.00042668
O       11.25220057       8.81139573      10.93532841      -0.00497349      -0.00913158       0.01010026
C        9.64281585       8.92926877       8.64223605      -0.00999197      -0.00386649       0.00645223
C        9.58809953       8.97960327       7.14648837       0.00054418      -0.00939169       0.00557855
C       11.19437420       9.80889482      10.28538656      -0.00671987       0.00354415       0.00023478
C       12.63816278      10.97402171      11.76920767       0.00287136      -0.00271043      -0.00542998
H       10.04457696       7.99751345       9.03066030      -0.01584582      -0.00376135       0.01276836
H        8.68077809       9.18139700       9.08277356      -0.01202786       0.00106013      -0.00072825
H        8.90931548       8.19224295       6.81696782       0.00512742      -0.01148273       0.00208283
H        9.19385366       9.93697058       6.81458341       0.00184707      -0.01070154       0.00005370
H       10.56689912       8.79751386       6.69925683       0.00488687      -0.00790731       0.01435052
H       12.02051315      10.90402639      12.66133439       0.00886416      -0.00727438      -0.00134073
H       13.19517080      11.90298367      11.74801050      -0.00106893      -0.00042649      -0.00663356
H       13.31088736      10.12472790      11.71075838       0.00652546       0.00014812      -0.01112865
O       10.93303965       5.58277438       8.56971454      -0.00332895      -0.00092262       0.00420716
O       10.34228415       5.69732121       6.49236310      -0.00431080      -0.00454301       0.00398898
O       12.49594096       5.19525901       6.97284614      -0.00388288       0.00405581       0.00433320
C       11.97704701       5.52494029       9.57636798      -0.00287664       0.00054408       0.00379187
C       11.32688618       5.49490821      10.93146007      -0.00273377      -0.00006419       0.00391871
C       11.36744882       5.46274223       7.31065842      -0.00111866      -0.00082339       0.00328588
C       10.66023696       5.61575186       5.09353592      -0.00368954      -0.00339513       0.00401213
H       12.59924295       4.64855132       9.38832408      -0.00195119       0.00138053       0.00387146
H       12.59889692       6.41425831       9.45584059      -0.00395548       0.00134888       0.00369887
H       12.10052485       5.50909591      11.69918476      -0.00260508       0.00114827       0.00390100
H       10.69044777       6.36452093      11.07970088      -0.00387202      -0.00099713       0.00406856
H       10.73405862       4.59520677      11.07193165      -0.00135827      -0.00094759       0.00399806
H       11.42495551       6.34879982       4.83668761      -0.00387642      -0.00295895       0.00478422
H        9.73029160       5.83481350       4.57689120      -0.00374115      -0.00334129       0.00402866
H       11.02261449       4.62120573       4.83831245      -0.00346035      -0.00305045       0.00347323
O        1.99440336       8.35098484       2.83453840       0.00331141       0.00055742      -0.00155482
O        2.89509002       9.67648102       4.46694062       0.00047433       0.00347099      -0.00387269
O        1.40324034      10.54223847       3.08182049      -0.00544238      -0.00104642       0.00041333
C        1.17539700       8.26059327       1.64930525       0.00423948      -0.00741208      -0.00120145
C        0.97329500       6.80649331       1.31547116       0.00852505      -0.01013047       0.00750403
C        2.36977754       9.65347513       3.07509253      -0.00237852       0.00241122      -0.00226769
C        4.23213664       9.24671645       4.74421556      -0.00491290      -0.01255946      -0.00483221
H        0.22372619       8.76084320       1.84693036       0.00280052      -0.00896060      -0.00429203
H        1.67896523       8.79133810       0.83542514       0.00309563      -0.01078814      -0.00408715
H        0.31689373       6.72886195       0.44777772       0.00892381      -0.01821214       0.00787799
H        1.91978406       6.32099161       1.07713272       0.01033650      -0.00831860       0.01097697
H        0.50345369       6.27326691       2.14191351       0.01060586      -0.00616652       0.01126224
H        4.95198056       9.90569966       4.25765514       0.00168577      -0.03162792      -0.01966505
H        4.37210336       8.22282347       4.40978768      -0.02353868      -0.01991159       0.01096416
H        4.34528039       9.30475113       5.82448603       0.00255328       0.00249523      -0.00668281
O        8.76641533       2.49953114       5.13604823       0.00989880       0.00583376      -0.00203123
O       10.25505427       2.30164234       6.68413988       0.00917873      -0.00242300      -0.00249704
O       10.78930657       1.63446397       4.58514433       0.00245911      -0.01288551      -0.00136232
C        8.33374220       2.40060617       3.75881275       0.00579721       0.00340565      -0.00063521
C        6.83517843       2.53849771       3.73950692       0.00586128       0.00954078       0.00263105
C       10.00052508       2.09488627       5.37450508       0.00637513      -0.00392634      -0.00141746
C       11.46982931       1.71975923       7.13771015       0.00553751      -0.00875636      -0.00094974
H        8.82107588       3.20214772       3.20065725       0.00732438      -0.00035116      -0.00425255
H        8.66751371       1.44894761       3.34760085       0.00081344       0.00070292       0.00172457
H        6.49812551       2.55320746       2.70216931       0.00215001       0.00731679       0.00393099
H        6.35739881       1.70330423       4.25111572       0.00534937       0.01279131       0.00748278
H        6.52710721       3.46673265       4.22234155       0.01130476       0.01147749       0.00236174
H       11.61590886       0.73100630       6.68305272       0.00384843      -0.00704816      -0.00540534
H       11.38559455       1.70634094       8.23918605       0.00159325      -0.01302405      -0.00139526
H       12.33526882       2.33498048       6.88614875       0.00828478      -0.01034868       0.00456543
O       11.14502486       2.87987910       0.83958724       0.00114699       0.00340849       0.00486310
O        9.95554193       4.68005375       0.87368285       0.00132958       0.00408006       0.00576011
O        8.89635791       2.69327623       0.61737267       0.00495172       0.00684065      -0.00710122
C       11.25010602       1.43785855       0.92917994       0.00026363       0.00285945       0.00036683
C       12.71965006       1.11275334       0.97478501       0.00074673       0.00449783       0.00367433
C        9.89906147       3.35031968       0.75942092      -0.00238633       0.00142366      -0.00035328
C        8.67519377       5.33581346       0.79922567       0.00167400       0.00418854       0.00249968
H       10.74040540       1.11868607       1.83959617      -0.00176036       0.00038692      -0.00174373
H       10.74211148       0.99400684       0.06964788       0.00286070       0.00569549      -0.00237322
H       12.86434376       0.04393152       1.13183149       0.00226728       0.00465237       0.00498434
H       13.22570507       1.39636642       0.05171498       0.00265007       0.00406978       0.00464329
H       13.18922383       1.64687497       1.79991219      -0.00209300       0.00710142       0.00368166
H        8.19442106       5.13851299      -0.15621084       0.00431095       0.00550619       0.00108138
H        8.88992370       6.39285110       0.90942017       0.00221818       0.00410452       0.00452928
H        8.03410576       4.99459371       1.61268989      -0.00074829       0.00378799       0.00021759
O        7.53102278       7.92346656       3.46187847      -0.00114629       0.00269684      -0.00209734
O        5.97349708       6.44156528       3.68759238       0.00276196      -0.00199487      -0.00562080
O        6.28806205       7.37660118       1.64693737      -0.00261524       0.00644478      -0.00517595
C        8.20639566       8.93125405       2.66980651      -0.00255951       0.00497967       0.00029624
C        9.23206779       9.58399791       3.55667472      -0.00460142       0.00565015       0.00228021
C        6.56909176       7.26287866       2.81273376       0.00060344       0.00226855       0.00032747
C        4.82286656       5.75789154       3.15907580       0.00478387      -0.00346955      -0.00723301
H        8.66063015       8.44700550       1.80360649      -0.00046697       0.00720337       0.00013170
H        7.45906971       9.64040735       2.31105763      -0.00359413       0.00382724      -0.00004400
H        9.78140222      10.33230974       2.98521676      -0.00423320       0.00642246       0.00371404
H        8.76037350      10.07806819       4.40405878      -0.00629044       0.00468843       0.00174709
H        9.94575079       8.85093524       3.93293716      -0.00446814       0.00605068       0.00304606
H        4.08679140       6.48002194       2.80714835       0.00362650      -0.00436330      -0.00686143
H        4.42799012       5.18238330       3.99095721       0.00512395      -0.00584711      -0.00868905
H        5.11246010       5.09895446       2.34213766       0.00661242      -0.00152837      -0.00818449
O        6.09687829       2.54525161      11.51727990      -0.00378889      -0.00175288      -0.00292607
O        8.03723532       2.20365786      10.63038270      -0.00587040       0.00671414      -0.01077135
O        7.35336632       4.33823189      10.96018554      -0.00580078       0.00552320       0.00899044
C        5.05214717       3.44581419      11.96373650      -0.00432441      -0.00669867       0.00488563
C        3.76427568       2.66977123      11.98836165      -0.00315922      -0.00885400       0.00207737
C        7.17552075       3.14483573      11.03841852      -0.00551639       0.00007260      -0.00012755
C        9.15937346       2.68176131       9.87290286      -0.00400039       0.01343183      -0.00362164
H        5.33768984       3.82361288      12.94912824      -0.00327614      -0.01276647       0.00695157
H        5.00309757       4.28389909      11.27074107      -0.00690995      -0.00211224       0.01054150
H        2.96730114       3.31604675      12.36026268      -0.00381128      -0.01201078       0.00623105
H        3.50142898       2.35759965      10.97882163      -0.00368362      -0.00366831       0.00062177
H        3.83101011       1.79211497      12.63033286      -0.00165760      -0.01230952      -0.00263183
H        9.14853957       3.76490455       9.82548395      -0.00922766       0.01342463      -0.00146700
H        9.06522600       2.24755540       8.87964968       0.00390144       0.01467413      -0.00479645
H       10.06294137       2.33647711      10.38075632      -0.00465317       0.01685714      -0.00030206
O        5.26675843       5.36232252       7.75854658      -0.00485793      -0.00158338      -0.00754422
O        3.52074320       6.47901385       8.33603180      -0.00420058       0.00108832      -0.00754730
O        3.65507801       4.30244916       8.95319428       0.00264710       0.00658917       0.00454503
C        6.05765779       4.14494013       7.67994318      -0.00458848      -0.00311416      -0.00033788
C        7.46468783       4.57614959       7.38451611      -0.00418353      -0.00597757      -0.00322199
C        4.11185184       5.27311870       8.39967604      -0.00380683      -0.00024498      -0.00090197
C        2.20558048       6.50940025       8.89494522      -0.00185249       0.00356671      -0.00287953
H        5.96621411       3.59915337       8.61595149      -0.00461981       0.00272387       0.00285971
H        5.64221843       3.51996441       6.88787631      -0.00475982      -0.00789979       0.00342047
H        8.09096090       3.69735696       7.25007263      -0.00539900      -0.00764099      -0.00086623
H        7.50087075       5.16675539       6.46865444      -0.00431127      -0.00943449      -0.00535528
H        7.85867327       5.18270369       8.19952808      -0.00255801      -0.00350071      -0.00586973
H        1.53510034       5.88169476       8.30988949      -0.00198662      -0.00123993       0.00287625
H        1.89333034       7.54924513       8.84362484      -0.00186217       0.00219914      -0.00568551
H        2.21723587       6.16642049       9.93026527       0.00327820       0.00117189      -0.00380349
