146
Lattice="11.881194109210487 0.0 0.0 0.0 11.881194109210487 0.0 0.0 0.0 11.881194109210487" Properties=species:S:1:pos:R:3:forces:R:3 energy=-1230039.375 stress="-0.0016090022400021553 -0.00030043326842132956 0.001477547106333077 -0.00030043326842132956 -0.0003177885664626956 -0.000878061749972403 0.001477547106333077 -0.000878061749972403 -0.001575937494635582" pbc="T T T"
Ir      10.60820924      10.65749771       8.56732016      -0.00017005      -0.00357687       0.00671242
Ir       7.01708158       9.80645570       9.90022284      -0.00231579      -0.00366640       0.00080185
S        4.38966123       2.32698234       5.82488020      -0.00718442       0.00013530      -0.00687497
S        6.32188669       6.26466644       5.31748726      -0.00744945       0.00373122       0.00341004
S        3.59999960       4.37151415       5.63414604      -0.00203194       0.00233853      -0.00135331
S        4.84390083       5.52001004       6.68045059       0.00102377      -0.00765085       0.00601756
O        5.09514195       2.31068022       7.08816131      -0.00669324      -0.00324598      -0.00745952
O        5.63710199       6.86562932       4.19184789      -0.01614010       0.01151478       0.01390731
O        5.25162940       2.14584985       4.66347013      -0.00799811      -0.00006199      -0.00757229
O        3.13458242       1.60353364       5.76286238      -0.00846958       0.00261092      -0.00755367
O        6.95545315       7.24189516       6.22139838       0.00021970      -0.00332838       0.00529742
O        7.20439905       5.15858891       4.97914342      -0.00941634       0.00654602      -0.01215214
S        1.22706695       7.32082925       3.39938931       0.00950265       0.00924265       0.00305957
S        0.06803186      11.74530761       2.17406585       0.00637335       0.00759566       0.00156248
S        0.24823850       9.19260885       4.19299339       0.00428776       0.00637680       0.00351378
S        1.43328733      10.64491738       3.45704480       0.00229841       0.00974774       0.00754726
O        2.54417706       7.36488640       3.97898384       0.00866270       0.01288923       0.00287122
O       -0.97809878      12.19872393       3.07315436       0.00334883       0.00801498      -0.00198305
O        1.11857721       7.47280007       1.96842662       0.00860937       0.00831088       0.00355601
O        0.33263856       6.31136902       3.96196410       0.01130509       0.00735164       0.00439453
O        1.00092997      12.77686246       1.73491643       0.00704253       0.00719416       0.00375134
O       -0.38995353      10.85138984       1.12715811       0.00975847       0.00639915       0.00094986
S        4.19176967      10.86668683       8.96038948       0.00444388      -0.00569910      -0.00921533
S        6.08047031       7.29670458      10.82629805      -0.03806730       0.00604224       0.01266396
S        3.89610596       8.73494559       8.79954563       0.00448391      -0.00524145      -0.01153750
S        5.89631159       8.23760580       8.81810240       0.00347248      -0.00568438       0.00002313
O        4.62222297      11.29981268       7.67060965       0.00948381      -0.00377706      -0.00981623
O        4.87418166       6.65564041      11.23255412       0.00980920       0.00800553      -0.00353602
O        5.30749533      10.91912843       9.98875440      -0.00226539      -0.00379169      -0.00591540
O        2.98038480      11.37010894       9.52612779      -0.00067502      -0.00566107      -0.01757941
O        7.29555171       6.54116319      10.66911123       0.01161927      -0.00926268       0.00696182
O        6.30032641       8.67507445      11.44617730      -0.00580111      -0.00189656      -0.00183507
O        4.61948755       9.88955410       1.98913329       0.02964154       0.00420773      -0.01353931
C        3.77708560       8.98464405       1.30093805       0.01094407       0.01275432      -0.00079367
H        3.92466064       7.95227235       1.62831025       0.00957906       0.01071662      -0.00768736
H        3.92198129       9.03723426       0.21866691      -0.00886768       0.01642633      -0.00284386
H        2.74987219       9.26042778       1.51564046       0.01734626       0.01933102       0.02033946
H        5.54392926       9.63958723       1.85165113       0.02504754      -0.00537559      -0.02736307
O        6.77007354       9.87666449       6.07080433       0.01063548      -0.00231227      -0.00233115
C        5.71528978      10.31959814       5.18820589       0.01516555       0.00216830      -0.00557321
H        4.74400647       9.98979041       5.55023351       0.01393002      -0.00394957      -0.01492041
H        5.88309110       9.91576090       4.19309192       0.02224608       0.01080683      -0.00768340
H        5.73671171      11.40483107       5.16965301       0.01195072       0.00209126       0.00372552
H        6.80181907       8.89333767       6.05747017       0.00582276      -0.00231460      -0.00045415
O       10.88434688       7.74603953       8.99952638      -0.01166277      -0.00919455       0.00312283
C        9.85792638       6.82641303       8.55777722      -0.00650273      -0.01010458      -0.00343739
H        9.47691904       6.27915117       9.41965340      -0.00737400      -0.01536667      -0.00688329
H       10.25463821       6.12054762       7.83630581      -0.00310002      -0.00621775      -0.00538090
H        9.05313635       7.40263232       8.10063554      -0.00731479      -0.01122287      -0.00302668
H       11.84373957       7.31232488       8.89385409      -0.01299755      -0.00450404       0.00491244
O        7.48858039       9.35435095       1.95406501       0.02929962      -0.00920874      -0.01282841
C        8.55721930       9.81774307       2.76768502       0.01334596      -0.00820291      -0.00165340
H        8.69001050      10.88131404       2.57967416      -0.00225975      -0.00518245       0.01370662
H        9.49173220       9.31061196       2.52398397       0.02813607       0.01705402       0.00403965
H        8.34850529       9.68291903       3.83528401       0.00457558      -0.03177427      -0.00812876
H        7.55123491       8.39133568       1.84926109       0.01187323      -0.00487535      -0.00609861
O        5.12261775       3.72115096      10.96345841      -0.00859484      -0.00407487       0.00794837
C        5.55113493       2.41670070      10.59384210      -0.00976372      -0.00007534      -0.00708005
H        4.85236638       1.65058046      10.93701152      -0.01020443      -0.00317705      -0.01573646
H        6.54069097       2.20734850      11.01318223      -0.00989518      -0.00480652      -0.00970015
H        5.60495391       2.37853208       9.50809452      -0.00988260       0.01157402      -0.00716692
H        5.11792095       3.74007425      11.92838154      -0.00609937      -0.01515144       0.00782713
O        8.96010782       2.88003087       7.87400459      -0.00811008      -0.00953907       0.00394214
C        7.93059239       3.82590822       8.15560475      -0.00501430      -0.00449595      -0.00461209
H        6.95628940       3.45979668       7.83048829      -0.00506091      -0.00165299      -0.00696808
H        8.12631097       4.78253339       7.66222571       0.00132498      -0.00748402      -0.00752410
H        7.90999980       3.98667226       9.23361232      -0.00878938      -0.00002718      -0.00499833
H        8.93670480       2.64286460       6.91244874      -0.00424345      -0.01037837       0.00335719
O        2.80656913       4.79151122       9.47339850       0.00396484       0.00722659       0.00044054
C        2.55531275       3.40594098       9.19342447      -0.00069799       0.01008046      -0.00799802
H        2.30611690       2.87080171      10.11272185      -0.00463082       0.00600402      -0.01151043
H        3.41860969       2.94399897       8.71572877      -0.00143814       0.00933117      -0.00851914
H        1.70506695       3.36751729       8.51748231       0.00085032       0.01637917      -0.00986964
H        3.58462154       4.82759614      10.04955237      -0.00023258       0.00196692       0.00506030
O        7.65585479      10.82217268       8.17245908       0.00285785      -0.00547543       0.00072718
C        8.90674643      11.35444205       7.74224915       0.00064987       0.00145125       0.01076255
H        8.93866108      12.42126061       8.00370031      -0.00091195      -0.00143740       0.02308771
H        8.94520918      11.22137962       6.65995712       0.00392967       0.01453179       0.00963494
H       10.73270458       8.97444984       8.59153437      -0.00745402       0.00367268      -0.00133597
H        7.16253689      10.44420794       7.32150013       0.00673212      -0.00523983      -0.00211048
O        6.76202425       6.64906627       1.72252367      -0.01529595       0.00637823       0.01121929
C        6.95822475       5.23601948       1.70650496       0.00580052       0.01236612       0.00079226
H        7.78904474       4.94258257       2.34858091       0.01434362       0.02155219      -0.00719249
H        7.17397975       4.93826501       0.68228780       0.00452827       0.02508361      -0.00304466
H        6.05205856       4.72581904       2.03809079       0.01708770      -0.00634658      -0.00025383
H        6.29598836       6.83850630       2.55597564      -0.01728527      -0.00214522       0.01288338
O       -0.37058861       3.52966690       5.21110838      -0.00718606      -0.00149432       0.00358933
C        0.51942365       3.30350026       4.12074458      -0.00792408       0.00084828       0.00229275
H        0.01563719       3.39921787       3.15754745      -0.01014963      -0.00254626       0.00325900
H        0.91171967       2.29430766       4.21736946      -0.00357404       0.00282705       0.00290377
H        1.34662042       4.01152289       4.15546392      -0.01100111       0.00426790       0.00018752
H       -0.73236725       4.43443997       5.17049461      -0.00988218      -0.00274176       0.00350793
O       -0.11791602      10.87930763       6.89965751      -0.00408828      -0.00091228       0.00543152
C        0.23248081      12.20259988       6.40043081      -0.00466418      -0.00055991       0.00694278
H        0.06220590      12.89698314       7.21907132      -0.00820252      -0.00092359       0.00647077
H       -0.40446658      12.44887423       5.55282913      -0.00239024      -0.00101511       0.00522536
H        1.28407558      12.20712913       6.12717195      -0.00404930       0.00123934       0.00988203
H       -0.05655443      10.21061485       6.17860066      -0.00258753      -0.00070947       0.00519890
O        9.82086131       5.70355747       5.58860066      -0.00632066      -0.00013566      -0.01044120
C        9.86441724       7.10018601       5.33917174       0.00012170       0.00069755      -0.00455090
H       10.84949066       7.44150091       5.64097844       0.00099078      -0.00504719      -0.00125718
H        9.10967457       7.62819512       5.91976209       0.00126880       0.00138041      -0.00395676
H        9.72122984       7.32730295       4.28194463       0.00355845       0.00500998      -0.00380594
H        8.92395199       5.39649687       5.36165542      -0.00689960       0.00412126      -0.01422306
O       11.31991497       4.05984158       8.54230171      -0.00700918      -0.00998731       0.00224721
C       11.24130623       3.91885803       9.94597577      -0.00106564      -0.00636818       0.00271839
H       11.33232446       2.87623305      10.26850543       0.00571332      -0.00473928       0.00549929
H       10.30361049       4.31929484      10.35213983      -0.00171608      -0.01008689       0.00512619
H       12.06841951       4.46113951      10.39700095      -0.00253710      -0.00083560      -0.00170174
H       10.52978424       3.62093352       8.16559301      -0.00798157      -0.01115044       0.00594464
O        9.33335849       2.06392390       5.40739505      -0.00391310      -0.00604355       0.00340027
C        8.53911557       2.23116885       4.23033834      -0.00548545      -0.00778924       0.00422037
H        8.95187176       1.63989072       3.41102963      -0.00457603      -0.00658694       0.00401157
H        8.49725720       3.28094595       3.93418282      -0.00879750      -0.00795889       0.00406767
H        7.52703815       1.90823322       4.45935502      -0.00439274      -0.01032172       0.00511713
H       10.18714616       2.54471374       5.26658065      -0.00503685      -0.00432722       0.00284898
O        1.24945157       6.81833712       8.57555585      -0.00274345       0.00081791       0.00180596
C        1.34020726       6.66302232       7.15039611      -0.00344112      -0.00081602       0.00246051
H        2.37743397       6.72084174       6.82833630      -0.00349373      -0.00364570       0.00136122
H        0.80224952       7.49690660       6.70396973      -0.00176980      -0.00067759       0.00137778
H        0.89420372       5.72179544       6.82921106      -0.00522366      -0.00035274       0.00310574
H        1.71981790       6.06429552       9.00854453       0.00340455       0.00527325       0.00200298
O        5.38909168       2.30608644       1.87556958      -0.00392920       0.01041794      -0.00619449
C        5.07283407       0.91538194       1.84140461      -0.00092858       0.00945294      -0.00663991
H        5.53560779       0.38584231       2.67353076       0.00690392       0.00931045      -0.01161891
H        5.45442854       0.49781254       0.91263225      -0.00757307       0.01282775      -0.01047474
H        3.99570075       0.73571059       1.88186022      -0.00003052       0.00731999       0.00129453
H        5.30787299       2.55733609       2.80840973      -0.00391871       0.00998238      -0.00623165
O        8.88165858       9.09504730      10.52915122      -0.00275726      -0.01042026      -0.00008070
C        9.92096666      10.09034365      10.58187147      -0.00253892      -0.01146093       0.00825080
H        9.59384686      10.95595198       9.79811315       0.00396115      -0.00715524       0.01384294
H       10.89131465       9.63076912      10.79186087      -0.00206858      -0.01321679       0.00194890
H        9.69972017      10.71635639      11.45004612      -0.00092809      -0.01754516       0.01241577
H        9.21780845       8.26883659      10.15582179      -0.00301275      -0.00602078      -0.00244343
O        9.93724015       6.35874656       2.20182793       0.00931707      -0.00424859       0.00403309
C       10.18507854       6.58188540       0.82902805       0.01023916      -0.00267290       0.00527787
H        9.21718765       6.57200957       0.32685713       0.01001948      -0.00138392       0.00492395
H       10.82095450       5.80129483       0.40067928       0.00956467      -0.00242645       0.00410603
H       10.67128043       7.54961184       0.65853338       0.01016176      -0.00289994       0.00638763
H       10.78571243       6.26034428       2.65928583       0.01018581      -0.00206957       0.00520071
O        0.98347710       3.47921463       0.73905973      -0.00649405       0.00611278       0.00467604
C        2.25423445       3.97514005       1.10880500      -0.00417960       0.00088069       0.00326760
H        2.40679208       4.92132019       0.58987970      -0.00071740      -0.00006413       0.00290644
H        3.05589176       3.28513282       0.83256162      -0.00758210      -0.00246817       0.00251263
H        2.33222518       4.16889321       2.18467092      -0.00231998       0.00022452       0.00315171
H        0.91204146       2.56951594       1.07196162      -0.00732388       0.00546971       0.00331602
