147
Lattice="12.389932039818842 0.0 0.0 0.0 12.389932039818842 0.0 0.0 0.0 12.389932039818842" Properties=species:S:1:pos:R:3:forces:R:3 energy=-124238.7734375 stress="0.00035115296486765146 1.5161740520852618e-05 0.00043852246017195284 1.5161740520852618e-05 -0.0011404585093259811 -0.000570860633160919 0.00043852246017195284 -0.000570860633160919 0.0012141497572883964" pbc="T T T"
K        9.74151917      12.00339259       5.25195189       0.00752781      -0.02793930      -0.03666373
K        5.19449174      12.51013026       7.46580488       0.00359152      -0.00243795      -0.04287961
S       10.35116999       1.38152916      -0.39930252      -0.02604625      -0.02150611       0.01667910
S       12.19160359       0.97669272       0.19934405      -0.01326503      -0.00179024      -0.00714266
O        1.69274453       5.50560176       6.58538626      -0.00202507      -0.00475010      -0.00783484
C        2.57771057       7.68760602       6.69575679      -0.00577508      -0.00774461       0.00000244
C        3.65793673       6.70576402       7.14945120      -0.01045012      -0.00471847       0.00606471
C        1.32193628       6.85062364       6.89868807      -0.00713044      -0.00618473      -0.00604559
C        3.11926442       5.38110123       6.62571255      -0.00310263      -0.00351131       0.00172448
H        2.56552740       8.61092521       7.27762959      -0.01032276      -0.00393526       0.00447443
H        2.70501545       7.95306581       5.64276469      -0.00240044      -0.00279663       0.00385949
H        4.64700052       6.93871033       6.75568285      -0.00385697      -0.00175568       0.00870183
H        3.72809812       6.70268984       8.23804629      -0.01085701      -0.00503332       0.00508961
H        0.98921443       6.90687206       7.94518053      -0.01082247      -0.01006796      -0.00702024
H        0.48722358       7.12940263       6.25055469      -0.00299853      -0.00650547      -0.00744134
H        3.48402925       5.18392206       5.61108075       0.00340195      -0.00396112       0.00384372
H        3.38434908       4.52669084       7.25871356      -0.00681815      -0.00417626       0.00278980
O        4.23982287       1.31471886       2.01816699      -0.00273544      -0.01203176       0.01363876
C        2.65441136       3.05398978       2.34150596      -0.00050825      -0.00572890      -0.00468561
C        3.26558830       2.67640153       3.68993115      -0.00602064      -0.00259593       0.00246757
C        3.01275374       1.85136179       1.48108041       0.00223929      -0.01301911       0.00309154
C        4.54332251       1.97783534       3.24900186      -0.00300837      -0.00158916       0.00716859
H        1.57916547       3.22677701       2.37459053      -0.00103918      -0.00788267      -0.00795857
H        3.14561114       3.95359402       1.97040012      -0.00064918      -0.01097441      -0.00471056
H        3.46481709       3.53933909       4.32166921      -0.00987765       0.00086513      -0.00191018
H        2.61123934       1.99036777       4.23551869      -0.00589098      -0.00037542       0.00034532
H        2.23355499       1.08305722       1.53386396       0.00113440      -0.01046672       0.00122584
H        3.16189551       2.09869013       0.42698188       0.00933523      -0.01584491       0.00398237
H        5.34343759       2.71271102       3.08574605      -0.00614339      -0.00019839       0.00200835
H        4.89952698       1.22229147       3.96533267      -0.00125861       0.00597259       0.01272371
O        2.81326511      10.19194620       3.90507866      -0.00926827      -0.00967507       0.02059270
C        0.69061887      10.17703918       2.79710255      -0.00300115       0.00111328       0.00940010
C        0.68156478      11.12066455       4.00474299      -0.00246912       0.00716850       0.00481057
C        2.03974028       9.45768788       2.93160884      -0.00469050      -0.00146885       0.01162710
C        2.16534135      11.43802781       4.12566384      -0.00066140      -0.00430979       0.01310617
H       -0.14233067       9.47529791       2.79414188      -0.00327598       0.00056671       0.01214440
H        0.63758357      10.75979334       1.87473138      -0.00238539      -0.00344825       0.00737625
H        0.07078331      12.01087820       3.83593707       0.00642916       0.01129785      -0.00211566
H        0.35094048      10.59296747       4.90903531      -0.01214433       0.01439197       0.00597495
H        1.93033672       8.43847376       3.31003540      -0.00552616      -0.00397295       0.00322025
H        2.58351610       9.42056420       1.98249719       0.00024845       0.00586219       0.01378816
H        2.47106670      12.16886082       3.36637327       0.01034424      -0.00828722       0.01337662
H        2.46801090      11.80179308       5.11333682      -0.00553349      -0.00408186       0.01446648
O        5.49875274       8.41391234       8.99851053      -0.00496936       0.01188031      -0.00193024
C        7.14148284       9.84745878       8.05402549       0.00151974      -0.00419068      -0.01388478
C        7.80891344       8.74729884       8.88296550      -0.00407231       0.00497000       0.00236306
C        5.66916877       9.72016098       8.48197706       0.00125220       0.00615938      -0.01396632
C        6.72872027       7.68426899       8.87418425      -0.00641012       0.00754848       0.01000950
H        7.55440996      10.83845056       8.24497307       0.00435614      -0.00214514      -0.02525896
H        7.24571375       9.62835558       6.98514455       0.00234040      -0.01772139      -0.00970367
H        8.75309908       8.40808575       8.45987659      -0.00263394      -0.00274146       0.00923335
H        7.99768844       9.08604003       9.90480144      -0.00567435       0.01644503      -0.00282356
H        5.42035807      10.43327496       9.28752682       0.00318184       0.01565880      -0.02226135
H        4.96490628       9.85936883       7.64117259       0.00300066       0.00071271      -0.01589805
H        6.73320173       7.13104403       7.92264219      -0.00435762      -0.00365438       0.01694402
H        6.77609146       6.98766063       9.70994651      -0.01096767       0.01617457       0.01794469
O        5.69625589       6.46673122      11.84595143      -0.00128801      -0.00444216       0.01328841
C        3.56378954       5.49690426      11.52766709      -0.00151873       0.00041685       0.00147150
C        4.61218874       4.63829132      10.82175500       0.00127023      -0.00099772       0.00411898
C        4.30995557       6.81582371      11.65288167       0.00151429       0.00000158       0.00443681
C        5.87542791       5.07530198      11.55126470      -0.00103033      -0.00448853       0.01353389
H        2.62744542       5.58970775      10.97840107       0.00221701       0.00332864      -0.00530246
H        3.34674080       5.07927216      12.51315119      -0.00802637       0.00159252      -0.00257373
H        4.42684443       3.56632317      10.90039837      -0.00151703      -0.00073895       0.00409837
H        4.66337050       4.90971650       9.76199083       0.00755628      -0.00127463       0.00701693
H        4.22332149       7.40873287      10.73737143       0.00815102      -0.00048977       0.00525820
H        3.98894893       7.42873156      12.49698265      -0.00243739      -0.00033757       0.00271165
H        5.99180162       4.51428011      12.48758716      -0.00806055      -0.00507367       0.01249975
H        6.79223481       4.96318109      10.96457515       0.00058195      -0.00559860       0.01817390
O       11.10764919       9.24118505      10.78895195      -0.03361009      -0.01308012      -0.01929575
C       11.59357529       9.71218721       8.49508006       0.00517717      -0.00188196      -0.00850552
C       10.82676473      10.86609533       9.14922146       0.01095790       0.00254467      -0.00783977
C       11.58537626       8.62307233       9.59209725       0.00134441      -0.00282918      -0.00951409
C       11.17076723      10.65450470      10.61576609      -0.01176146      -0.01320669      -0.00572982
H       11.13816646       9.35711111       7.56687760       0.00202204       0.00208450      -0.00826409
H       12.61727581      10.01700872       8.26740164       0.00446427      -0.00351551      -0.01206940
H       11.11180263      11.85775419       8.79235906       0.02769199       0.00079234       0.00074517
H        9.75007899      10.74006024       9.01040815       0.01158771       0.01687972      -0.02297067
H       10.90943479       7.79489948       9.36035371       0.02203923      -0.01414767      -0.02208330
H       12.58571553       8.20687048       9.75518212       0.00392789       0.01384105       0.01030432
H       12.17131396      11.04804346      10.84666019      -0.01045525      -0.03060612       0.01043985
H       10.47636210      11.12518499      11.31013964      -0.01293460      -0.00708820      -0.01188233
O       10.77812592       5.23269225       5.31775190       0.00195728       0.00794411      -0.00497130
C        9.02355602       5.52907158       6.87638823       0.01231015       0.00969003       0.00566685
C        9.25831799       6.83626389       6.11991954       0.00922969       0.01026434       0.00527927
C       10.33141249       4.78934986       6.60710038       0.01091072       0.00937203      -0.00135119
C        9.97317569       6.32624438       4.87808634       0.00176463       0.01027614       0.00057030
H        8.82665717       5.66409914       7.94060680       0.01758854       0.00924574       0.00681776
H        8.17159099       5.00018140       6.43431369       0.01046447       0.01022735       0.00942439
H        8.34223903       7.38076195       5.88884296       0.00835730       0.01093422       0.01063290
H        9.92305632       7.48751859       6.69490058       0.01266654       0.00933466       0.00194997
H       11.09102493       5.04392660       7.35483116       0.01519072       0.01142365      -0.00687456
H       10.23016810       3.70093667       6.57707056       0.01129720       0.00885427       0.00104364
H        9.24373448       5.97556089       4.13152035      -0.00255832       0.01285815       0.00398967
H       10.62227434       7.06588499       4.40159860       0.00070885       0.00981501      -0.00166354
O        8.87390734      11.17576026       2.87762330      -0.00858949      -0.01223313       0.01326275
C        8.22248510       9.72688479       1.07952468      -0.00401094       0.00560120       0.00400901
C        7.09186715      10.68463920       1.46044102       0.00194252       0.01010002       0.00173633
C        9.25679242       9.95337652       2.18899262       0.00128809      -0.00166564      -0.00103971
C        7.87368267      11.83197125       2.06337814      -0.00049841       0.00269291       0.01592648
H        7.90613899       8.68625059       1.00557118      -0.00900826       0.00835702       0.01105481
H        8.64890989      10.00997413       0.11512087      -0.00254573      -0.00369233       0.00431770
H        6.47439376      10.98534893       0.61476573       0.01516486       0.02161147      -0.00063258
H        6.44056968      10.24395435       2.21951763      -0.00924774       0.01166172      -0.00742912
H        9.25262837       9.15352547       2.93640254       0.01845007      -0.00378701      -0.00470874
H       10.26647710      10.06901587       1.78982101      -0.00222161       0.01822738      -0.00321196
H        8.37225406      12.43414126       1.29193285       0.01611415       0.00579096       0.02910250
H        7.28447370      12.48021546       2.71406128       0.00065707       0.00150363       0.01872060
O        4.91383478       5.45278621       2.72362816       0.00539584      -0.00290482       0.00604779
C        4.98926684       7.79942173       3.04692461       0.00588953      -0.00140804      -0.00221889
C        6.23269497       7.15827622       3.65879470       0.00602189       0.00019801      -0.00025022
C        4.06346128       6.59617127       2.91982515       0.00581309      -0.00214785       0.00243073
C        6.28074647       5.84380958       2.89738164       0.00550552      -0.00220498       0.00398672
H        4.56447952       8.60316121       3.64561708       0.00599300       0.00034693      -0.00516731
H        5.23003684       8.19480653       2.05639688       0.00601060      -0.00556345      -0.00393036
H        7.13807356       7.75485937       3.53516188       0.00615619      -0.00027797      -0.00250383
H        6.07757605       6.97464958       4.72739751       0.00631870       0.00376269       0.00050771
H        3.47716425       6.44496815       3.83447836       0.00669222       0.00135275       0.00380957
H        3.36730030       6.66775744       2.08085562       0.00508338      -0.00505504       0.00304753
H        6.74698220       5.98629499       1.91437957       0.00505225      -0.00533619       0.00344557
H        6.79723323       5.04091745       3.42905436       0.00578147      -0.00068209       0.00643075
O        7.78293758       0.87833234       7.86077946      -0.01134066       0.00305241      -0.02364361
C        7.11557445       1.96981200       9.82746094       0.00596347      -0.00079709      -0.01232934
C        6.73793672       2.87235519       8.62844462      -0.00346288       0.00071859      -0.00768955
C        8.18820355       1.05936870       9.24874419      -0.00510487      -0.00650569      -0.02099630
C        7.44212897       2.21161413       7.43292699      -0.00075124       0.00956838      -0.01035555
H        7.47858575       2.52957173      10.68880568       0.01894712      -0.00280146      -0.01716028
H        6.25431891       1.38324026      10.16859177       0.00502172       0.00668681      -0.00311908
H        5.65301212       2.92823115       8.49310729      -0.00410378      -0.01016591      -0.00690207
H        7.08072590       3.89837242       8.76063852      -0.01371439       0.00407007      -0.00815166
H        9.17363344       1.53576431       9.28176151      -0.00190550      -0.01250382      -0.02170007
H        8.26754225       0.08222281       9.72190016      -0.00925122      -0.00764938      -0.02739812
H        6.82591145       2.13085829       6.52958048       0.00575571       0.02385058      -0.01457421
H        8.35914218       2.74251055       7.16303613       0.00523224       0.00417648       0.00161062
O        9.84536021       2.02105619       4.31324739      -0.00793979      -0.00822192      -0.00996025
C        9.22696004       3.36323575       2.45990133      -0.01214254       0.00396597      -0.00588745
C       10.74490598       3.42599452       2.61745883       0.00467533       0.00740659      -0.00686693
C        8.77467428       2.85545060       3.81875121      -0.00664419       0.00217434       0.01067811
C       11.01479093       2.19255905       3.45551846       0.00198840      -0.00729814       0.00840068
H        8.77967133       4.32310541       2.20524102      -0.00202882      -0.00854200      -0.00247084
H        8.97791481       2.64755919       1.67199797      -0.00407170      -0.00346124       0.00682564
H       11.26018086       3.36509303       1.66037194      -0.00700013      -0.00051785       0.00664380
H       11.05079425       4.32233977       3.15401528      -0.00656165      -0.00260109      -0.00290319
H        8.62593772       3.67581594       4.52910575       0.01405702       0.00323999       0.00022787
H        7.85935457       2.25553529       3.77217658      -0.00471556       0.01859269       0.01010086
H       11.11339812       1.31333196       2.80656326       0.01146294       0.00687110       0.00673234
H       11.89072232       2.28438633       4.10204339      -0.01218435       0.00895133       0.00743932
