150
Lattice="12.383848978611429 0.0 0.0 0.0 12.383848978611429 0.0 0.0 0.0 12.383848978611429" Properties=species:S:1:pos:R:3:forces:R:3 energy=-106932.6015625 stress="-9.940638119587675e-05 -0.0001536760464659892 0.000514964631292969 -0.0001536760464659892 -0.00043862464372068644 6.966198998270556e-05 0.000514964631292969 6.966198998270556e-05 0.0003342175332363695" pbc="T T T"
Li       8.88629789      12.37287324       3.40393087       0.00402054       0.00432941      -0.02569452
Li       6.76351737      11.59059494       8.60234888       0.02098481      -0.00462404       0.00294294
O       10.03632744       2.56609037       0.95999168       0.01560605       0.01738906      -0.03730142
O       10.40880560       0.23364886       2.33682449      -0.00342107      -0.00020552      -0.03280830
O        8.94773115       0.27911931       0.05895483      -0.00583768       0.00448000      -0.01551414
O        8.08712896       1.33738735       2.39327615       0.01110172       0.00680459      -0.02231240
Cr       9.39285980       1.14576621       1.37479532      -0.01646345      -0.03743218      -0.01269187
O        1.31350660       7.02009573       6.34569695       0.00136593       0.00237147      -0.01142509
C        3.62183737       7.03856682       6.77767253      -0.00175488       0.00022583       0.00302313
C        3.10890041       5.62005565       7.02233328      -0.00426367       0.00083345       0.00157103
C        2.33862046       7.84245021       6.90759075      -0.00153333       0.00151904      -0.00443171
C        1.74221330       5.65041921       6.34147375      -0.00139773       0.00165819      -0.00447185
H        4.38360024       7.34566021       7.49314423      -0.00505221       0.00036126       0.00651118
H        4.02133995       7.13451752       5.76690305       0.00349389      -0.00108336       0.00491971
H        3.75742393       4.84402532       6.61544810      -0.00328040      -0.00001837       0.00503668
H        2.99909861       5.44417798       8.09539905      -0.00920088       0.00149502       0.00124073
H        2.12053097       8.04762385       7.96629578      -0.00769702       0.00095831      -0.00552118
H        2.34738738       8.78367792       6.35436959       0.00251471       0.00153527      -0.00390342
H        1.80470759       5.31392491       5.30065727       0.00214982      -0.00207677      -0.00317782
H        0.99773748       5.03564291       6.85527647      -0.00471422       0.00465775      -0.00559652
O        3.94344994       1.08434328       1.98779498      -0.00639442      -0.00873500      -0.00008985
C        2.60631149       2.97603924       2.56999630       0.00119737      -0.00362736       0.00144858
C        3.52012278       2.58477475       3.73356895       0.00636792      -0.00313111      -0.00233752
C        2.77014274       1.80514384       1.59212330      -0.00340050      -0.00444859       0.00105247
C        4.62224271       1.82961542       3.00637115       0.00132850      -0.00732106      -0.00585389
H        1.56619810       3.12117169       2.85811138       0.00243729      -0.00397606       0.00675773
H        2.97214536       3.89915109       2.12197517      -0.00168365      -0.00371099      -0.00058329
H        3.90127843       3.45006656       4.27550361       0.01133757      -0.00251275      -0.00652853
H        2.99784194       1.92610512       4.43271564       0.00879094      -0.00029841       0.00175659
H        1.92215038       1.11592235       1.63135600      -0.00588003      -0.00143537       0.00079294
H        2.87525181       2.14842004       0.55637831      -0.00270009      -0.00404246       0.00097740
H        5.34563353       2.52205670       2.56134269       0.00044575      -0.01039600      -0.01169971
H        5.16743304       1.11654100       3.62662211       0.00254478      -0.00659552      -0.00661662
O        2.74303206      10.08187304       3.61393025      -0.01043016      -0.00437365       0.01234585
C        0.67018564      10.43321478       2.47461676      -0.00297248      -0.00051403      -0.00059372
C        0.64379626      11.07417485       3.86261479      -0.00858217       0.00251716      -0.00201473
C        1.95724758       9.60170274       2.50543617      -0.00411683      -0.00182955       0.00684313
C        2.12825493      11.27418618       4.10848731      -0.00970215      -0.00101529       0.00559378
H       -0.20503005       9.82602932       2.25365232      -0.00285617       0.00062878      -0.00390645
H        0.71526797      11.20517926       1.70701079       0.00141076      -0.00195527      -0.00184655
H        0.06114481      11.99423686       3.87768486      -0.00637424       0.00392920      -0.00715344
H        0.23500905      10.37969751       4.60320178      -0.01424019       0.00505167      -0.00253919
H        1.76021394       8.53985420       2.68500807      -0.00593153      -0.00213039       0.00432347
H        2.53253437       9.69552999       1.57914581       0.00176802      -0.00128317       0.01041269
H        2.51074108      12.13915380       3.55415206      -0.00425471      -0.00348991       0.00529870
H        2.40624225      11.37429533       5.16075221      -0.01514571       0.00099113       0.00702211
O        4.92734724       9.05383208       9.32692951      -0.00184257       0.01626404       0.00063447
C        6.33952166       9.77365160       7.58957407       0.00562838      -0.00176220      -0.00213557
C        7.21059434       9.31509650       8.77273571       0.00033891      -0.01115412      -0.00183880
C        4.98810263      10.00484347       8.27280535       0.00650650       0.01092558      -0.00421523
C        6.21664247       8.43308552       9.51328724      -0.00950122       0.00082368      -0.00084338
H        6.72009410      10.60456886       6.97656567       0.01434641      -0.00478628      -0.00064724
H        6.26397840       8.94918918       6.88168240      -0.00084532      -0.00024292      -0.00327526
H        8.10551713       8.80243065       8.42908667      -0.00607005      -0.02188428      -0.00238567
H        7.55071956      10.12082720       9.44898517       0.01084417      -0.01491685      -0.00280636
H        4.87765149      11.02374306       8.71593640       0.01307686       0.01337156      -0.00921903
H        4.13565367       9.87957905       7.60357506       0.00664508       0.01364418      -0.00501338
H        6.19808240       7.42853705       9.06986322      -0.02162685       0.00074875      -0.00083768
H        6.39344273       8.33233495      10.58239110      -0.00989468      -0.00188175      -0.00117275
O        5.12556661       6.66426302      11.97578474      -0.00391628       0.00044596       0.00453471
C        3.26538250       5.30198453      11.53530692      -0.00655657       0.00652122      -0.00066049
C        4.49886138       4.60718665      10.96255370      -0.00736376       0.00207955       0.00253826
C        3.74533386       6.74089113      11.59840499      -0.00206417       0.00495434      -0.00060350
C        5.63426221       5.35739572      11.65632924      -0.00622883      -0.00014356       0.00364140
H        2.36884131       5.17519341      10.92870951      -0.00560723       0.00894690      -0.00264028
H        3.05821772       4.92090847      12.53755069      -0.01066246       0.00813833      -0.00079221
H        4.52298064       3.53961479      11.17239716      -0.01092742       0.00232127       0.00374532
H        4.54271676       4.74706273       9.87816109      -0.00558359       0.00048189       0.00238565
H        3.65482544       7.22744109      10.61848398       0.00278300       0.00376582      -0.00184596
H        3.22614385       7.35682992      12.33515409      -0.00239821       0.00786397      -0.00350413
H        5.92086443       4.86342430      12.58761641      -0.00766696      -0.00126767       0.00350147
H        6.52423442       5.46643632      11.02783282      -0.00508600      -0.00081977       0.00474203
O       12.22680926       9.88163413      11.62533167      -0.00168043      -0.00296985       0.00972438
C       11.13557684       9.18358690       9.65261656       0.00313780       0.00263965       0.00480843
C       10.58194349      10.54786844      10.06338936       0.00127536       0.00068316       0.00893936
C       11.75227954       8.71096720      10.96234994       0.00260717      -0.00107543       0.00378621
C       11.66964673      11.05524452      11.00159791       0.00023222      -0.00152234       0.01105386
H       10.38196017       8.49286693       9.27268580       0.00431208       0.00310935       0.00183054
H       11.90707744       9.29946045       8.88651952       0.00370091       0.00617034       0.00596468
H       10.40749387      11.22128427       9.22332299       0.00184366       0.00334920       0.01066689
H        9.64640719      10.43972554      10.61863399       0.00118023      -0.00130361       0.00797856
H       10.99420644       8.21849759      11.58699648       0.00325170      -0.00612718       0.00073376
H       12.58628550       8.01651237      10.82978506       0.00473475       0.00155404       0.00192979
H       12.46388611      11.56245212      10.43926663       0.00119123      -0.00078972       0.01289749
H       11.28875923      11.72637960      11.77231095      -0.00015396      -0.00267091       0.01190531
O        8.78733640       8.08105294       6.35653681      -0.00227946      -0.00520566      -0.00843405
C       10.63546476       6.61041060       6.73964691       0.00151902       0.00112134      -0.00207020
C        9.32202502       5.99614390       7.24128590       0.00310519      -0.00036505      -0.00017649
C       10.21033457       7.97781281       6.17081484      -0.00142044      -0.00070193      -0.00430642
C        8.28919244       6.74588320       6.41739248       0.00138044      -0.00611031      -0.00327814
H       11.38304251       6.70759296       7.52405868       0.00198381       0.00379834      -0.00293073
H       11.07137327       6.00151864       5.94866155       0.00186257       0.00042327      -0.00152576
H        9.27574459       4.91814656       7.08980563       0.00593218      -0.00105654       0.00405372
H        9.17568542       6.19610154       8.30675842       0.00235986       0.00340107      -0.00093713
H       10.66336989       8.82421273       6.68798383      -0.00569515       0.00095659      -0.00336364
H       10.44265617       8.05187091       5.10540593       0.00160633      -0.00056944      -0.00355887
H        8.21717442       6.32631032       5.40835742       0.00251443      -0.01045416      -0.00173032
H        7.29408168       6.77963147       6.86895928       0.00126410      -0.00705154      -0.00352895
O        8.02465680      10.66803707       3.10146571      -0.00025231       0.00580802       0.00314251
C        8.70899468       9.56237604       1.12106613       0.00894868       0.02101967       0.00470632
C        7.19977456       9.79897738       1.03588090       0.00605819       0.00015083       0.00355497
C        8.99412203       9.71469168       2.60548783      -0.00665522      -0.00270632       0.00900844
C        6.93431254      10.81550964       2.13888122      -0.00551339      -0.00507319       0.00629833
H        8.99646212       8.57525204       0.75676019       0.02745902       0.03366339      -0.01445755
H        9.24191356      10.33331873       0.56370015      -0.00165594       0.04340765       0.02453792
H        6.90044239      10.20033146       0.06738709      -0.00173962      -0.00612095       0.00306714
H        6.64880000       8.87148381       1.19815504       0.02003130      -0.00745615       0.00741833
H        8.87762479       8.77376913       3.15301623      -0.02681807      -0.00858867      -0.00253421
H        9.98384271      10.13261698       2.79624107      -0.00391632      -0.01962489       0.02851300
H        6.97289952      11.84151344       1.76904319      -0.01827127      -0.00423443       0.00882959
H        5.99289672      10.65059422       2.66616065      -0.00356790      -0.01806878       0.00774205
O        5.02134139       5.31275449       2.61178951       0.00027810      -0.00176156       0.00145146
C        4.76705791       7.61951101       3.07333389       0.00020725      -0.00125152      -0.00005040
C        6.08987470       7.12988051       3.65693979      -0.00073722      -0.00179520       0.00180501
C        4.02526589       6.30722804       2.87995473       0.00020424      -0.00107914      -0.00063011
C        6.32656973       5.87052656       2.84135478      -0.00011618      -0.00131470       0.00160804
H        4.23115427       8.32845866       3.70152644      -0.00052007      -0.00115913      -0.00069976
H        4.93469749       8.09213819       2.10353430       0.00192083      -0.00157945       0.00009742
H        6.90484948       7.84844097       3.58179060      -0.00046888      -0.00226340       0.00357920
H        5.96354382       6.87504465       4.71231088      -0.00240479      -0.00245218       0.00160503
H        3.47580249       6.02139035       3.78739040      -0.00136365      -0.00047353      -0.00142062
H        3.31400436       6.33227961       2.05058855       0.00156862      -0.00118729      -0.00203654
H        6.79235694       6.11734531       1.88014462      -0.00007452      -0.00058638       0.00155252
H        6.93835211       5.11673131       3.33717201       0.00044227      -0.00124711       0.00111184
O        7.66074009       0.74874614       8.54511934      -0.00538357       0.00954500      -0.00068322
C        7.16148815       2.45937203      10.05355208       0.01281345       0.00206140       0.01297548
C        7.64763991       3.10980804       8.75900635       0.00278692       0.00859666       0.01271655
C        7.81476078       1.10499642       9.96219195       0.01048610       0.00182645      -0.00065598
C        7.58430938       1.96258964       7.75385483      -0.00275230       0.01343815       0.00637639
H        7.45385326       2.99113971      10.95647594       0.02369420      -0.00368230       0.01364562
H        6.07383909       2.35322909      10.04002838       0.01295897       0.00458302       0.02354005
H        7.04647549       3.96022767       8.43808123      -0.00017081       0.00954795       0.02093367
H        8.67594748       3.45053718       8.88277401       0.00324953       0.00897831       0.00766625
H        8.86970098       1.12003110      10.23211263       0.01357841       0.00135025      -0.01334193
H        7.34105169       0.32949205      10.57086682       0.01792836      -0.00058119       0.00085683
H        6.63780660       1.94175696       7.20702356      -0.00301221       0.01900525       0.00727104
H        8.40662884       1.96295462       7.03708258      -0.00306180       0.01473672       0.00603083
O        9.69200299       5.86995779       3.45065154       0.00312808      -0.00516918      -0.00314024
C       11.58450766       5.04737896       2.28319959       0.00390399      -0.00305688      -0.00376821
C       11.26298426       4.10123032       3.43980644      -0.00107795      -0.00727013      -0.00898546
C       10.83050854       6.30531745       2.69158682       0.00397688      -0.00299528      -0.00112244
C        9.80825176       4.45201037       3.69951101      -0.00155419      -0.00629011      -0.01303759
H       12.65044345       5.23332425       2.14816924       0.00457078      -0.00355371       0.00065657
H       11.17666258       4.62004239       1.36653657       0.00728089       0.00209895      -0.00774330
H       11.37813023       3.05188015       3.17172030      -0.00024809      -0.00668320      -0.01235554
H       11.88314259       4.32959958       4.31366775      -0.00478922      -0.01092680      -0.00589603
H       11.45061366       6.95185228       3.32826438       0.00390500      -0.00598788       0.00155872
H       10.48114716       6.89632944       1.84067846       0.00568329      -0.00078711       0.00070494
H        9.15933049       3.89749901       3.01460089       0.00036287      -0.00026786      -0.02058053
H        9.48725922       4.26749496       4.72895309      -0.00697796      -0.01368754      -0.01640010
