142
Lattice="12.710823754414383 0.0 0.0 0.0 12.710823754414383 0.0 0.0 0.0 12.710823754414383" Properties=species:S:1:pos:R:3:forces:R:3 energy=-113354.765625 stress="-8.304962102556601e-05 1.8083011127600912e-05 -7.865014777053148e-05 1.8083011127600912e-05 0.0009101300965994596 0.0001902302901726216 -7.865014777053148e-05 0.0001902302901726216 -0.0011832508025690913" pbc="T T T"
Li       4.59027114      11.90636250       6.64374013       0.02204710      -0.02633509       0.00878921
Li      12.03437683      12.72003431       3.11224140       0.00881602       0.01739311      -0.01448336
S       11.57146703       1.85074311       1.77193203       0.00437718       0.01647145       0.00140037
O       10.35209313       2.19988892       1.05301563      -0.02070999      -0.00241798       0.03777742
O       11.30840252       1.66432390       3.25606494       0.04076910       0.01689741       0.00657058
O       12.06107871       0.46454425       1.35512589       0.00633669       0.02096224      -0.01046538
O       12.64565508       2.82738971       1.56955079      -0.01330948       0.02823234      -0.02648091
O        8.31200652      12.09587188      11.65133776      -0.00353855       0.01500343       0.00166888
O       10.43968732      12.38271461      11.42426273      -0.00496815       0.02491470      -0.00126929
O        9.64583832      10.26778000      11.55834493       0.00577022       0.02142632       0.00846311
C        7.19666577      11.23575127      11.95313275       0.00273260       0.01283306       0.01302479
C        5.97485630      12.11596721      12.00853462      -0.00183618       0.00636122       0.00991060
C        9.49300627      11.47016801      11.55433573       0.00038077       0.02092922       0.00312398
C       11.77074147      11.85084142      11.42852588      -0.00136760       0.03240677       0.00097926
H        7.12183554      10.45298346      11.19974073       0.00414013       0.00507885       0.02034521
H        7.37535019      10.74239617      12.90884624       0.00846437       0.02264735       0.01722473
H        5.08912459      11.50716672      12.19883998       0.00184442       0.00322236       0.01591498
H        6.06709942      12.85288980      12.80547190      -0.00379162       0.01242049       0.00435545
H        5.84087660      12.66595038      11.07544350      -0.00639943      -0.00094919       0.00669210
H       11.95439435      11.31414571      12.35344711      -0.00113731       0.03229254       0.00089732
H       12.42359377      12.71446013      11.39511263      -0.00661096       0.03622797       0.00427257
H       11.89623654      11.18790871      10.57323689       0.00455150       0.03492558       0.00004721
O       11.01246999       6.65793818       8.32614245       0.00521570      -0.00155838       0.00286517
O       10.81112223       8.48954219       7.20956205      -0.00160646      -0.00113699       0.00587063
O       12.58042328       7.14275193       6.76000822      -0.00720656      -0.00349274      -0.01103008
C       11.61761297       5.36382643       8.58973996       0.00924307       0.00047291      -0.00020559
C       10.56332545       4.50920896       9.24511273       0.01615530       0.00189990       0.01026854
C       11.57350366       7.38831842       7.37871808      -0.00357670      -0.00129190      -0.00060683
C       11.28554327       9.37512560       6.18527222      -0.01286753      -0.00588352      -0.00295504
H       11.96180323       4.94666768       7.64418611       0.00046675      -0.00218080      -0.00224441
H       12.48135716       5.52863859       9.23578322       0.01568112       0.00281157      -0.00923571
H       10.99930015       3.56051980       9.55872412       0.01992473      -0.00121769      -0.01456785
H       10.15998577       4.99877716      10.13047004       0.03236799      -0.00484666       0.02079965
H        9.74587182       4.31782995       8.55087882       0.00591427       0.00659994       0.02221146
H       12.17194710       9.91196329       6.52163429       0.00085530      -0.01791516      -0.02240343
H       10.46796675      10.06097599       5.98324911      -0.00739597       0.00483225       0.01524149
H       11.53920206       8.81937793       5.28856231      -0.04127673      -0.00923185      -0.00814627
O        4.76405310       3.83832437       8.48413100       0.00214212      -0.00670552       0.00981535
O        3.25930652       4.72582506       9.75468165       0.00531947      -0.00820541       0.01398572
O        4.99539432       3.64282730      10.73308092       0.00278622      -0.01790380       0.00900823
C        5.98745490       3.08575340       8.32337969       0.00247142      -0.00650006       0.00659913
C        6.25232649       2.96472354       6.84313541      -0.00293243      -0.01017074       0.00620201
C        4.39292955       4.03006890       9.76447062       0.00298673      -0.01132503       0.00910079
C        2.75974340       5.11029521      11.05223870       0.00502649      -0.01651582       0.01639245
H        6.79652106       3.60531036       8.83811140       0.00344005      -0.00362030       0.00213748
H        5.86141503       2.11072271       8.79926580       0.00553736      -0.00471783       0.00972447
H        7.10552687       2.30757951       6.67017081      -0.00242247      -0.00886449       0.00395683
H        5.38045209       2.56066981       6.32057873      -0.00450535      -0.01262788       0.01124431
H        6.48925962       3.93293628       6.40320135      -0.00503088      -0.01141328       0.00267769
H        2.39553140       4.23878572      11.59286493       0.00068162      -0.01910558       0.00928719
H        1.95691865       5.80795959      10.84218332       0.00860348      -0.01123631       0.02087779
H        3.54413891       5.60175472      11.62515682       0.00584856      -0.02471937       0.02225634
O        2.97243853       8.03729252       7.23803685      -0.00383741      -0.00456479       0.00441201
O        1.61104301       9.56568252       7.92071160       0.00144918      -0.00119710       0.00533462
O        1.92207082       7.73876944       9.22638760      -0.02368332      -0.01488200      -0.00511694
C        3.59368548       6.72307312       7.37809458      -0.01568379      -0.01070088      -0.00214976
C        4.35293568       6.42009190       6.11718104      -0.01065861      -0.00628758       0.00039047
C        2.14692803       8.35522810       8.21923595      -0.00924540      -0.00401896      -0.00300062
C        0.76750667      10.08445708       8.95498831      -0.00411230      -0.00161335       0.00158569
H        4.23355177       6.76127918       8.26048562      -0.02111164      -0.02312128       0.00246608
H        2.80511214       6.00105498       7.57402118      -0.02336085      -0.00515994      -0.01245373
H        4.81513300       5.44006564       6.22916330      -0.01720506      -0.00995842      -0.00499570
H        3.68705908       6.39503073       5.25738204      -0.00602347       0.00452690      -0.00297250
H        5.14520009       7.14036170       5.91788749      -0.00585039      -0.00906017       0.01038034
H       -0.06435575       9.41008621       9.15334534      -0.00991857       0.00280173      -0.00814209
H        0.40454824      11.04057110       8.58672325       0.00420518       0.00217195       0.00349456
H        1.32884762      10.22042146       9.88115751      -0.01000290      -0.00947078       0.00608501
O        3.47326219       9.11222197       4.65023888       0.00006813      -0.00136647      -0.00898910
O        1.95774341       7.73698764       4.03862401       0.00072029      -0.00119299      -0.02064354
O        1.40747649       9.94060514       4.19431921       0.00188494      -0.00663716      -0.00880500
C        3.92085303      10.37529901       5.08504133       0.00199485       0.00356579      -0.02298808
C        5.31423755      10.12113907       5.66492466       0.00493133       0.01161642      -0.02477224
C        2.17315771       9.01019286       4.27788054      -0.00221813       0.00173420      -0.01221941
C        0.69569955       7.38099302       3.44222121      -0.00669754       0.00757459      -0.01247183
H        3.93508102      11.08447864       4.24760062       0.00229082      -0.00428814      -0.02884483
H        3.18538354      10.74841012       5.83237910       0.00513633       0.01698910      -0.02776715
H        5.95724011      11.01219417       5.75444258      -0.00006322       0.01587607      -0.04433812
H        5.24857638       9.59957727       6.62338930       0.01303197       0.02829544      -0.01490147
H        5.87121317       9.47321608       4.99405292       0.00326024      -0.00180338      -0.01248062
H       -0.12128677       7.66878208       4.09550404       0.00247410      -0.00426264       0.00326794
H        0.73112448       6.30275857       3.33886583      -0.00838194       0.00976473      -0.03362817
H        0.60208544       7.85356617       2.46729473      -0.01933610       0.02610302      -0.00139049
O        7.22628145      11.73460966       8.17537806      -0.01533164      -0.00808102       0.00056502
O        5.08399715      11.98253407       8.45206846       0.00029059      -0.00215662       0.01369312
O        6.05129572      10.03812764       9.12281006      -0.00136725      -0.00505623       0.01985447
C        8.47975294      10.95845898       8.26785301      -0.00590868       0.00355160      -0.00210255
C        9.61334220      11.92305239       8.07073821      -0.00545663       0.00388190       0.00333373
C        6.16478473      11.12833936       8.64590229       0.00950684       0.01632953      -0.00056112
C        3.85670553      11.48598650       9.06292579      -0.00299335       0.02026695       0.01362994
H        8.50613977      10.47804543       9.24391591      -0.00861768       0.00080845      -0.00061509
H        8.43805708      10.18480137       7.49921745      -0.00116354       0.00195979      -0.00237858
H       10.54839268      11.36810891       8.15064013      -0.00607610       0.00520296       0.00665770
H        9.57612115      12.39126820       7.08640122      -0.00542596       0.00516118       0.00305623
H        9.60819189      12.69455733       8.83917821      -0.01035637       0.00318676       0.00435545
H        3.46554001      10.64717464       8.48705235      -0.00978608       0.01563342       0.02408560
H        3.16469020      12.32359924       9.05429827       0.00554707       0.02546360      -0.00062064
H        4.05998037      11.16240071      10.07752475      -0.00627674       0.02945928       0.01930369
O        8.20325692       6.18987913       7.31518992      -0.01783604      -0.01082427       0.00707027
O        9.26478366       5.53538269       5.57154467      -0.01380056      -0.01318565       0.01009592
O        7.96598481       7.39525993       5.40223109       0.02409840       0.01139426       0.01796132
C        7.34836549       7.09444824       8.04768830      -0.00446528      -0.00131790       0.01016635
C        7.89206486       7.26411862       9.44262375       0.00195521      -0.00868040       0.00846058
C        8.42887859       6.46730282       6.02521872      -0.00029805      -0.00190449       0.01075131
C        9.48888575       5.51755395       4.14011101      -0.00004841      -0.00534004       0.01244916
H        7.28982663       8.03627080       7.50432310       0.00483505      -0.00040612       0.01044551
H        6.35556594       6.64127871       8.06089472      -0.00977665       0.01019990       0.01251953
H        7.18416793       7.83685350      10.04062165       0.01214008       0.00185618       0.01013914
H        8.03396858       6.29515250       9.92031179      -0.01127248      -0.01024631       0.00831643
H        8.84797311       7.78501502       9.43534212       0.00886646      -0.02267686       0.00544673
H        8.68582999       4.95723161       3.66503132      -0.00841695       0.01870883       0.00070779
H       10.43059303       5.00076840       3.98562791      -0.01209980      -0.02627353       0.01745380
H        9.51928677       6.52800503       3.74678521       0.02862980      -0.00359923       0.02189790
O        3.62940809       6.02105027       2.19672813       0.00708118      -0.01327454      -0.02278629
O        4.28202904       8.06340440       1.94806702       0.00205687      -0.01263994      -0.02554583
O        5.72057290       6.57888651       2.88101628      -0.01081598       0.00190556       0.00381225
C        3.86489386       4.63293332       2.56037771       0.00394052      -0.01218352      -0.00684162
C        2.55357416       4.01653228       2.96263089       0.00342441      -0.00872451      -0.00488275
C        4.65380297       6.84786553       2.38840969       0.00702941      -0.00968564      -0.00882533
C        5.29300198       9.06793138       2.07215774      -0.00281057      -0.00816731      -0.02522286
H        4.28974379       4.14364152       1.68050681       0.00368266      -0.01656751      -0.00400567
H        4.60496016       4.61079413       3.36006235       0.00369000      -0.00250155      -0.00690076
H        2.70066076       2.94848423       3.12538534      -0.00464860      -0.00946735       0.00862913
H        2.18618308       4.45023355       3.89371737      -0.00058543       0.00602120      -0.01481831
H        1.78362428       4.10975401       2.19853634       0.00978649      -0.01629228      -0.01010576
H        5.85901497       8.92115387       2.98970523      -0.00744063      -0.00264059      -0.02210572
H        4.76811731      10.02133184       2.07952123      -0.00868677      -0.01146431      -0.03293196
H        5.98400078       9.00492121       1.23501755       0.00023702      -0.00995848      -0.02249572
O        9.71113532       7.97667656       1.75068899       0.00567770      -0.00454447       0.00234383
O        9.16358785       5.98955596       1.12275763       0.01426129      -0.00816977       0.00468957
O        7.76007977       7.69840908       0.62264190       0.00889850      -0.01405501      -0.00093895
C        9.37630534       9.36546200       1.93830981      -0.00125325      -0.00537822      -0.00342292
C       10.63494477      10.10901423       2.29589275      -0.00566363       0.00306459      -0.00594208
C        8.77177585       7.25748414       1.11186536       0.01061237      -0.01016295       0.00227943
C        8.18130170       5.03333175       0.67082246       0.02235354      -0.01140605      -0.00581723
H        8.95363355       9.73917734       1.01164524      -0.00194637      -0.01179329      -0.00572550
H        8.62581463       9.42914153       2.73187412      -0.00220096      -0.00540684      -0.00395265
H       10.39973986      11.17468778       2.37288629      -0.01398803       0.00131904      -0.00725712
H       11.06377173       9.74938480       3.23216935      -0.00312134       0.00859564      -0.00500682
H       11.38024165       9.99379913       1.51015922      -0.00471307       0.00729380      -0.00584154
H        7.33959485       5.04144160       1.36363757       0.01177987      -0.00852238      -0.01904067
H        8.69827788       4.07780063       0.67726527       0.02423194      -0.01068953       0.00205293
H        7.82269436       5.30281252      -0.32146134       0.03757047      -0.01442803      -0.01176283
