149
Lattice="15.844175591255139 0.0 0.0 0.0 15.844175591255139 0.0 0.0 0.0 15.844175591255139" Properties=species:S:1:pos:R:3:forces:R:3 energy=-1961275.75 stress="-0.00038124818820506334 -9.788511670194566e-05 6.313225094345398e-05 -9.788511670194566e-05 -0.00015981549222487956 -8.994832387543283e-05 6.313225094345398e-05 -8.994832387543283e-05 -0.000612142204772681" pbc="T T T"
Lu      13.94017908      16.28408133       6.66018272      -0.01060903      -0.01035258       0.00057914
Lu      10.24380560      16.23530349       5.99548755      -0.00945072      -0.00475507       0.00063762
O       15.10007268      12.32133582      13.37053496      -0.01427126       0.02844432       0.03119011
O       13.41055402      10.33509345      13.74666277       0.00354660       0.00846750       0.00312557
O       12.77936495      12.47563372      12.21911418      -0.00314033       0.00779271       0.00808847
O       12.85407176      12.88788891      14.87434822      -0.02850296      -0.00213936       0.01501349
Cr      13.57640788      11.98159487      13.50705593      -0.00945491       0.01136342       0.01374912
Cr      11.85949745       9.36368455      14.10468261       0.00278139       0.00386620      -0.01489633
O       10.78974536      10.37887879      14.69274980      -0.00136304      -0.00200403      -0.01355243
O       11.36284612       8.72380070      12.71377257       0.01093721       0.01632524      -0.02450538
O       12.26247172       8.25272141      15.15793253      -0.00329888      -0.00436389      -0.02299440
O       12.01223315       3.36216270       8.87737550      -0.01660630      -0.00362107       0.03089976
O       11.92410288       3.91137091       6.17400469      -0.00005266      -0.01046053       0.00676318
O       11.84582196       1.27950783       7.09147161      -0.00990963      -0.00956234       0.00270885
O       14.07660522       2.45210849       7.33815670      -0.01106942      -0.01516615       0.01124678
Cr      12.46373895       2.88112334       7.46826574       0.00701495      -0.02439916      -0.02544916
Cr      10.91675981       3.71076882       4.73892784       0.00781015      -0.00901914       0.00375199
O       11.80464370       3.68722707       3.42924378       0.00692749      -0.00469274       0.00561929
O       10.13556714       2.22530405       4.94069484       0.00346327      -0.00676438      -0.00157769
O        9.87703567       4.88958151       4.64733535       0.00308335      -0.00447941       0.00178914
O        6.73250250       8.70566225      13.19336467       0.00073647       0.01056424      -0.00603199
O        5.89833366       9.90757916      10.79216195       0.00353612      -0.00177687      -0.01264879
O        4.18398910       9.29605839      12.96363711      -0.00030494       0.00255501      -0.01495481
O        5.21920370       7.31925393      11.55595856       0.00932938      -0.00056076      -0.00345778
Cr       5.48342393       8.75064070      12.21674132       0.00292021       0.00282490      -0.00902832
Cr       6.15368883      11.55687034      10.62996116       0.00270307      -0.00143135      -0.00839019
O        4.74262660      12.25633984       9.71610261       0.00093460       0.00193650      -0.00285831
O        6.24698559      12.26014978      12.02250488       0.00411063      -0.00595081      -0.00535941
O        7.47915361      11.80686602       9.80595078       0.00109565       0.00166503      -0.00890279
Cl       1.42622429       2.58273610       8.20006916       0.00171511      -0.00792068      -0.00034028
Cl       1.89869910       2.81736447       5.33596138       0.00761312      -0.00338000       0.00135463
Cl       0.37316974       4.88550901       6.73159971      -0.00720742      -0.01300159      -0.00066656
C        1.68087519       3.69429792       6.86474448      -0.00079273      -0.00578440       0.00132872
H        2.59185621       4.24641513       7.05423062      -0.00449100      -0.00056933       0.00369310
Cl      14.84151422      13.02668152       9.46570374      -0.00083089      -0.00864469       0.01482224
Cl      15.32143645      15.42260524      11.03694513       0.00674139       0.01102655      -0.01889563
Cl      13.10250817      15.37915126       9.10356279      -0.00867662      -0.01777641       0.00010922
C       14.13916251      14.39374514      10.27408337       0.00240242      -0.00011176       0.00357413
H       13.40613725      14.05320217      11.00476356       0.00924537       0.00702227       0.01323697
Cl       6.57188349      10.14192913       6.76731473      -0.00742856       0.00905344      -0.00525689
Cl       8.70212296      10.39155550       4.77840863      -0.00452429       0.00839093       0.00152659
Cl       6.30365494      12.01991991       4.55022151      -0.00246057       0.01323491       0.00043947
C        7.41861269      11.23357273       5.67422725      -0.00573123       0.01066505       0.00112368
H        7.88436343      12.01223588       6.26813551      -0.00867335       0.00926393       0.00627038
Cl       4.37414053       3.94900297       2.81651704      -0.00021105       0.00260621      -0.00251991
Cl       7.00651939       4.25941752       4.03669097      -0.00016418      -0.00033563      -0.00274526
Cl       4.65823791       5.12902924       5.48992505       0.00056799       0.00432959      -0.00394106
C        5.28764856       3.95010477       4.33156612      -0.00066835       0.00264225      -0.00252435
H        5.19207457       2.96702365       4.77704119      -0.00230942       0.00312400      -0.00181119
Cl       0.22333947      15.16954673       6.69295179      -0.01018044      -0.01328804       0.00005603
Cl       5.20478593      13.46964544       7.42987500       0.00732505       0.01047273       0.00309020
Cl       5.38712071      14.78961411      10.04429979       0.00098258       0.00039005       0.01062772
C        4.58978283      13.44545083       9.14157673       0.00188792       0.00386114       0.00072397
H        3.53721154      13.70696896       9.05520743       0.00213611       0.00327703      -0.00168674
Cl       9.38892517      14.18472741       7.09107938      -0.00062244       0.00441772       0.01685664
Cl      12.46666386      10.91683386       7.18506731      -0.00078768       0.00050713       0.01003265
Cl      11.52494356      11.25111326       9.88735939      -0.00724356      -0.01332445       0.00922859
C       11.32868791      11.42093273       8.27492651      -0.00066516       0.00011580       0.00988902
H       10.46529714      11.96357195       7.90323012       0.00358731       0.00794777       0.01112786
Cl      14.32208031       7.20670502      11.93329659       0.00447160       0.00135404      -0.00764769
Cl      12.83911722       6.77521697       9.45186933      -0.00452821      -0.00794612       0.00038153
Cl      12.41009143       5.01004476      11.74145404       0.02124020      -0.01098478       0.00891133
C       12.79011237       6.65248490      11.23289539       0.00463244      -0.00667804       0.00016943
H       12.02143227       7.32571589      11.61302342       0.00320080      -0.00540966       0.00141755
Cl       2.18294277       7.02029018      -0.31492501      -0.00428385      -0.00019544      -0.00337234
Cl       2.07588919       9.83524121       0.46072011       0.00278714       0.00244749      -0.01170458
Cl      -0.29370240       8.52781750      -0.63513692      -0.00039703       0.00595537      -0.00624603
C        1.16541537       8.31672828       0.32146653      -0.00053852       0.00444425      -0.00671592
H        0.86976540       8.03634346       1.32332614      -0.00054777       0.00764777      -0.00580317
Cl       8.80603166       4.11945106       7.48675715      -0.00396979      -0.01046056      -0.00470451
Cl       6.31451561       2.90450768       8.35765801      -0.00304845      -0.00225475       0.00873391
Cl       8.72678359       1.27589226       8.30496304      -0.00613216      -0.00577942       0.00719622
C        8.05778484       2.95940104       8.54864077      -0.00258397      -0.00504726       0.00302692
H        8.29825519       3.19348821       9.58095553       0.00099514      -0.00049304       0.00123262
Cl      15.10647412       8.49172030       6.27094867       0.00498634       0.00726129       0.00359449
Cl      13.04135125       7.33687941       4.56331299      -0.00103891      -0.00595711       0.02024805
Cl      15.04817274       9.12082812       3.42031084      -0.01125300      -0.00724483       0.00093612
C       14.71964811       7.89083251       4.64688855      -0.00221230      -0.00164445       0.00891402
H       15.36779267       7.04383460       4.45569537      -0.00124244      -0.00122881       0.00980185
Cl       2.97945693       9.32235386       9.32385925       0.01126379      -0.00289851      -0.02677212
Cl       1.47548176      11.35665298       7.89372229       0.00696535       0.00886814      -0.00356257
Cl       0.07559250       9.43434488       9.59294729       0.01609555       0.00919485       0.00366616
C        1.57379375      10.36711953       9.36651825       0.01765212       0.00322624      -0.00911102
H        1.66522567      11.03223491      10.21638226       0.03009693      -0.00217137      -0.00663927
Cl       6.90787346       0.76876807       2.09570463      -0.01521306      -0.00729152       0.01856765
Cl       7.23019005       0.55170977       5.00292952       0.02582620       0.00492654       0.01390195
Cl       9.37740242      -0.30808854       3.28101033       0.00099052      -0.00119086      -0.01001325
C        8.01015579       0.86072508       3.43033096       0.00459071      -0.00077519       0.00061280
H        8.45787461       1.84700442       3.48973954       0.00378185      -0.00001572      -0.00870226
Cl      10.64600845      14.99510075      11.30663949       0.00241590       0.00477074       0.01194841
Cl      10.70077123      15.69522588      14.13864633      -0.01763557      -0.00874162       0.01677138
Cl       8.59696610      13.94541206      13.08016935      -0.01384455      -0.00006431      -0.01153629
C       10.26954611      14.43847778      12.97187360      -0.01018515      -0.00222822       0.00648959
H       10.90318784      13.58081650      13.16005330      -0.01181275      -0.00345376       0.00615208
Cl      13.71243647      11.34467970       0.97537684       0.00852518       0.01435423       0.00925076
Cl      11.72599969      13.49480401       1.25897618       0.00250769       0.01285902       0.02240849
Cl      12.35475092      14.85503239       5.21906531      -0.01265511      -0.00770787      -0.00254518
C       13.17184701      12.92376610       0.33678000       0.00814033       0.01154572       0.00323770
H       13.96393937      13.63619032       0.56522740       0.02349657       0.00607514      -0.02857846
Cl       5.97992533       5.69018591      -0.42745671       0.00678162      -0.00668281       0.00563431
Cl       8.12821769       7.31627019       0.71985754       0.00086617       0.00364640       0.00116619
Cl       5.46888495       8.44035259       0.33144902      -0.00071642      -0.00362462      -0.00901890
C        6.39413121       6.99321532       0.70381998       0.00182795       0.00032900      -0.00052398
H        6.10763800       6.65637699       1.69257394       0.00126520       0.00457419       0.00063592
Cl      14.28535134       2.21245962       4.51879929       0.00687335      -0.00570461       0.00982636
Cl      15.81977987       1.90865533       2.08299772       0.01168083       0.01981993       0.00961331
Cl      13.21332708       0.61824942       2.24644801       0.02773806      -0.01186830       0.00640579
C       14.18829866       1.98776210       2.71490290       0.01077195      -0.00079032       0.00983438
H       13.70156617       2.90219402       2.38948009       0.00023524      -0.00609088       0.01124623
Cl       3.24050389       8.77868629       5.71314931       0.00358458      -0.01269540       0.00474000
Cl       5.50057012       8.32593852       3.93051264      -0.00192571       0.00843753      -0.00720793
Cl       2.86129980       7.31893459       3.21925126      -0.00124949       0.00585946      -0.00506979
C        3.76110898       8.60993974       4.03640508      -0.00218321       0.00191238       0.00155630
H        3.54282029       9.53388437       3.51561401      -0.00706649       0.00562984       0.01017582
Cl       8.31858165       5.26046996      11.60915193       0.00437604       0.00142968       0.00125510
Cl       8.99347453       2.45406085      12.06335082      -0.01023322      -0.00125426       0.00407127
Cl       9.45875452       4.43171297      14.16338152       0.00504059      -0.00140575      -0.00020385
C        8.43222503       3.97704295      12.81069851      -0.00029799       0.00263341       0.00276286
H        7.43544870       3.78997301      13.19033050      -0.00073886       0.00817633       0.00403619
Cl       6.69469171      13.37204478       1.25920056      -0.00008404      -0.00538981      -0.01006435
Cl       5.27611558      11.62208136      -0.58952675      -0.01650989       0.00201338      -0.00329995
Cl       8.11554764      11.20578973      -0.10258871       0.02163744       0.01567426       0.00507253
C        6.59302362      11.71164358       0.58010373      -0.00777861      -0.00395987      -0.00983861
H        6.35326151      11.05718943       1.40878738      -0.01298289      -0.00258747      -0.00791782
Cl       1.61208428       3.26983625      15.19500550      -0.00102055      -0.00491346      -0.00138671
Cl      -0.78912144       4.79568703      14.53327329      -0.00024840      -0.00103509       0.00720069
Cl      -0.37708301       2.14279193      13.36599567      -0.01234308       0.01234107      -0.00813377
C       -0.11344348       3.20170018      14.76774326      -0.00206934      -0.00187130       0.00014524
H       -0.61593699       2.73115910      15.60060810       0.00013149      -0.00598644      -0.00045112
Cl       9.68756419       8.81291756       7.91313459      -0.00464886      -0.00273745      -0.00702840
Cl       7.41641227       7.41913033       9.08219541      -0.00490806      -0.00870365      -0.01507078
Cl       9.36505214       8.75090230      10.80455764      -0.01192051      -0.00778718      -0.00818950
C        8.51545060       8.78242917       9.27654771      -0.00767435      -0.00717020      -0.01033053
H        7.93976623       9.69856514       9.21309604      -0.00883615      -0.00805616      -0.01038240
Cl       4.43074617       1.74658962      11.53386358      -0.00138699       0.00167641       0.00488874
Cl       4.99507138       2.37414992      14.32554396       0.00048795       0.00678009       0.00305280
Cl       4.77127415       4.52846862      12.35972073       0.00370696       0.00291443      -0.00132348
C        4.20504915       2.93450486      12.81864014       0.00112092       0.00492667       0.00227240
H        3.14536649       2.99880834      13.02969527       0.00138593       0.00718785       0.00237235
Cl       1.22137914      11.88539351       4.35924074       0.00513282      -0.00733608      -0.00790069
Cl       3.41440729      13.25925564       3.00075210      -0.00587961       0.00594927      -0.01234469
Cl       0.76243781      14.45400495       3.05271553      -0.01198345      -0.00829741      -0.00284296
C        1.92317088      13.45274045       3.93812313      -0.00411322      -0.00310681      -0.00813413
H        2.16045375      13.96708255       4.86192883      -0.00422849      -0.00386402      -0.00765830
Cl       1.07297825       4.40506550      11.31439005       0.00322604       0.00503862       0.00007451
Cl       2.05693269       7.06510590      11.96911806       0.00764710       0.00625831      -0.00992692
Cl       2.90596723       5.77623950       9.49538677       0.00328141      -0.00332785      -0.00583410
C        1.59197124       5.98122164      10.68108363       0.00455044       0.00207032      -0.00524393
H        0.74630899       6.40423601      10.15439916       0.00470650       0.00138329      -0.00590640
