140
Lattice="13.031470798432165 0.0 0.0 0.0 13.031470798432165 0.0 0.0 0.0 13.031470798432165" Properties=species:S:1:pos:R:3:forces:R:3 energy=-2204280.5 stress="-3.7779557260364527e-07 3.293272493465338e-05 0.00042204969213344157 3.293272493465338e-05 8.214447007048875e-05 -0.0001815489013097249 0.00042204969213344157 -0.0001815489013097249 0.00035282608587294817" pbc="T T T"
Md       2.47348660      12.01808296       4.62020592       0.00121622       0.00124061       0.00403030
Md      11.29407806      11.88747616       8.06294514      -0.00126597       0.00355086       0.00316322
P        4.14184668      11.23299991       1.92604051       0.00107759       0.00693902       0.00781235
O        5.70044127      10.92852323       1.67144095       0.00323880       0.00380754       0.00084028
O        3.68773228       9.74477152       2.44234703      -0.00264728       0.00448930      -0.00014034
O        3.44215685      11.62484148       0.69726456       0.00085032       0.02197674       0.00752997
O        4.12055561      12.14276172       3.15217896       0.00776985      -0.00395656       0.01037866
H        5.80764924      10.60960125       0.76904922      -0.00022762       0.02133251      -0.00633096
P        0.97806997      11.98601337       7.03016920      -0.00190449       0.00027731       0.00043269
O        0.25163824      10.51577824       7.33605776      -0.00983898       0.00354433      -0.00987491
O        0.35066365      12.74936070       8.18164460       0.00240494      -0.00360501       0.00454044
O        0.46513578      12.39570058       5.64687979       0.00303119       0.01327398       0.00237876
O        2.47618164      11.83660425       6.94625785      -0.00235951      -0.00759558       0.00118488
H        0.39172690       9.88658280       6.61826316      -0.01716202       0.00746988      -0.01442632
P        8.41031401      12.58334589       7.86041956       0.00208616       0.00429879      -0.00196625
O        9.52548014      12.79047392       9.21832549      -0.00146109       0.00154112      -0.00103617
O        7.65893676      11.35879882       8.23538305       0.00622642       0.00666714       0.00683135
O        9.60536044      12.28060235       6.86337393       0.00034958      -0.00107978      -0.00161040
O        7.78003670      13.90088027       7.63031980       0.00182390       0.00472593      -0.00561458
H        9.06491979      12.55292199      10.03068054      -0.00359679       0.00881332       0.00057040
O       10.43265034       9.65318890       8.94505015       0.00164098       0.00001433       0.00590642
O       11.73643403      10.70315157      10.26138141      -0.00075132      -0.00198476       0.00166386
O       10.74109601       8.80693149      11.03568642      -0.00267960      -0.01094946       0.01096722
C        9.33385971       8.71688720       8.62261257       0.00079057       0.00208095      -0.00040978
C        9.15508760       8.76051660       7.13518832       0.00155652       0.00114612       0.00012273
C       10.93761640       9.61493859      10.17460895       0.00341156       0.01772517      -0.02025753
C       12.44894884      10.92771352      11.49522683       0.00141120      -0.00117344      -0.00226936
H        9.62859705       7.73980543       9.00006909      -0.00196059       0.00156885       0.00546837
H        8.45287192       9.09566059       9.13564470      -0.00037372       0.00236604      -0.00290048
H        8.36876196       8.05814470       6.85762177       0.00061771       0.00518496      -0.00024580
H        8.84699813       9.76070738       6.83463880      -0.00152206       0.00049353      -0.00113499
H       10.06940948       8.46480858       6.61858480       0.00129330      -0.00314423       0.00192929
H       11.88578738      10.50583171      12.32243850      -0.00138757       0.00079428       0.00025947
H       12.53585225      12.00454674      11.58594212       0.00756670      -0.00190291       0.00184191
H       13.43588562      10.47931869      11.43283443       0.00016657      -0.00589249       0.00138034
O       10.98154391       5.52585521       8.58783449      -0.00215619       0.00040635       0.00312273
O       10.31766022       5.60446271       6.53208353      -0.00284482      -0.00010197       0.00303371
O       12.53700816       5.73749343       6.95549563      -0.00313342      -0.00205074       0.00221935
C       12.04607100       5.60695143       9.56588114      -0.00197047       0.00047180       0.00225413
C       11.43818219       5.42125477      10.92814132      -0.00162178       0.00090157       0.00252843
C       11.39040641       5.62833244       7.31927391      -0.00199997      -0.00057038       0.00187811
C       10.60474020       5.64666941       5.12600698      -0.00315006      -0.00029286       0.00280538
H       12.79093728       4.84445994       9.33347766      -0.00193408       0.00039566       0.00245138
H       12.52239898       6.58482746       9.46619918      -0.00175931       0.00053826       0.00204619
H       12.21538043       5.50805608      11.68750867      -0.00154680       0.00027849       0.00247312
H       10.68372963       6.18049505      11.12727903      -0.00120488       0.00132234       0.00264240
H       10.98562340       4.43685581      11.02417821      -0.00238250       0.00118667       0.00245767
H       11.22133748       6.51271165       4.88822848      -0.00539654       0.00116259       0.00222545
H        9.63698128       5.71733237       4.63917302      -0.00329885      -0.00308190       0.00284894
H       11.12541473       4.74075278       4.81867713      -0.00076011       0.00084957       0.00334723
O        2.00277981       8.36249933       3.02078465       0.00255520       0.00106752       0.00127769
O        2.93372614       9.69010995       4.65609594      -0.00214302      -0.00377360      -0.00393659
O        1.66144085      10.62005250       3.11021761      -0.00239468       0.00015724      -0.00006980
C        1.20077063       8.35797371       1.82778381       0.00422174      -0.00964946       0.00159910
C        0.96148942       6.93132683       1.40631089       0.00747085      -0.01387215       0.01206717
C        2.51346661       9.63958669       3.24392534      -0.00173995       0.00089464      -0.00160831
C        4.27827858       9.36035080       5.02717575      -0.01277584      -0.02846054      -0.01018824
H        0.26000219       8.87400070       2.03898855       0.00298440      -0.00951159      -0.00097503
H        1.72144265       8.92338736       1.04856727       0.00331363      -0.01305377      -0.00263280
H        0.30849420       6.91796097       0.53187494       0.00380799      -0.02149352       0.01510420
H        1.89718192       6.43625554       1.14536507       0.00838915      -0.01120144       0.01211551
H        0.47491158       6.36277150       2.19860260       0.01320168      -0.00884844       0.01846123
H        4.97925928      10.09337922       4.62305266       0.00741115      -0.04606435      -0.00651813
H        4.55138847       8.36572865       4.68529581      -0.03510677      -0.03453910      -0.00555597
H        4.29496846       9.39894187       6.11365492      -0.02125818      -0.03505933      -0.01224524
O        8.72057270       2.49234616       5.02363088       0.00359654       0.00479837      -0.00483209
O       10.30012471       2.43416203       6.48409182       0.00533854       0.00204775      -0.00743851
O       10.74988635       1.72830010       4.37696617      -0.00134921      -0.00943321      -0.00606275
C        8.21216281       2.23007803       3.70278447      -0.00278753      -0.00036830      -0.00149454
C        6.71426326       2.36432209       3.76016251      -0.00206524       0.00499747       0.00438240
C        9.99335169       2.16354107       5.21270667       0.00135899      -0.00110015      -0.00512564
C       11.57841723       1.96297237       6.91458254       0.00444379      -0.00031084      -0.00720093
H        8.65725283       2.94825339       3.01353728      -0.00334555      -0.00546718      -0.00728992
H        8.52445571       1.23255290       3.39459343      -0.00701410      -0.00307238       0.00278569
H        6.30275192       2.22084985       2.76090309      -0.00700156       0.00287674       0.00717649
H        6.28552236       1.61666643       4.42547384      -0.00116885       0.00895207       0.00919493
H        6.43033738       3.35521410       4.11800949       0.00325387       0.00725468       0.00231683
H       11.85270980       1.05396539       6.38202672       0.00362980       0.00002280      -0.00815469
H       11.48077528       1.79272447       7.98585401       0.00382227      -0.00104264      -0.00730401
H       12.34662900       2.71757649       6.73661966       0.00535157      -0.00103843      -0.00598297
O       11.19652416       2.80139967       0.89230243       0.00558874       0.00226675       0.00334892
O       10.04216909       4.62770702       0.85107387       0.00662391       0.00311285       0.00529114
O        8.96173270       2.66155895       0.54138391       0.00878119       0.00542456      -0.00655729
C       11.26284238       1.35679028       0.97008053       0.00253987       0.00173623       0.00125784
C       12.71899588       0.97895468       1.00769732       0.00158870      -0.00045226       0.00734742
C        9.96736333       3.29763801       0.74042805       0.00464964       0.00207853      -0.00056292
C        8.77541262       5.30247559       0.71561900       0.00761616       0.00410046       0.00207601
H       10.74530813       1.04736652       1.87863299      -0.00383455       0.00151977      -0.00251120
H       10.74177376       0.93912970       0.10617597       0.00788206       0.00440735      -0.00307819
H       12.82191477      -0.10514692       1.05675817      -0.00066110      -0.00036225       0.01213309
H       13.24590770       1.33660641       0.12299260       0.00320777      -0.00533700       0.00659178
H       13.20171308       1.39489100       1.89159107       0.00151111       0.00217450       0.00592138
H        8.29928562       5.05356810      -0.23040274       0.01028791       0.00582717       0.00031096
H        9.00663503       6.36095853       0.76291127       0.00905815       0.00391641       0.00466807
H        8.11731787       5.02503367       1.53970231       0.00454447       0.00372759      -0.00055504
O        7.56566605       8.02154113       3.48293473       0.00363235       0.00284314      -0.00208065
O        5.94355497       6.61047483       3.69412937       0.00685170      -0.00157231      -0.00613407
O        6.42418921       7.40139005       1.62543449       0.00369957       0.00686316      -0.00447702
C        8.32015488       8.95958653       2.67785160       0.00081182       0.00705525       0.00091729
C        9.26794839       9.68408775       3.59463947       0.00076681       0.00633952       0.00181442
C        6.62184620       7.35627353       2.81280655       0.00497326       0.00325175      -0.00181723
C        4.78585968       5.95687970       3.14446570       0.00636292       0.00070900      -0.00747508
H        8.84356734       8.40298539       1.89808070       0.00117910       0.01066372      -0.00186354
H        7.61340509       9.64147175       2.20696104      -0.00091252       0.00690764       0.00351906
H        9.85520997      10.39592208       3.01453124      -0.00035910       0.00797643       0.00260983
H        8.73083350      10.23901099       4.36115772       0.00059256       0.00452377       0.00303015
H        9.95364791       8.99087351       4.08115374       0.00179951       0.00644995       0.00035711
H        4.08262103       6.70001157       2.77109336       0.00703385       0.00239274      -0.00554049
H        4.35148547       5.40613163       3.97349302       0.00581498      -0.00118601      -0.00898412
H        5.07603537       5.27746941       2.34475738       0.00546126       0.00288418      -0.00973284
O        5.84358994       2.59581216      11.53196424      -0.00208810       0.00026569      -0.00523557
O        7.77497934       2.20155632      10.65678840      -0.00285447       0.00280797      -0.00737861
O        7.16036585       4.35583212      11.01363967       0.00169741       0.00186658       0.00795576
C        4.85270321       3.53221220      12.00266915       0.00005764      -0.00186017       0.00305159
C        3.58214354       2.75972449      12.23303535      -0.00192529      -0.00009370      -0.00443092
C        6.95622884       3.16263268      11.06393523      -0.00080557       0.00086379      -0.00049861
C        8.98684584       2.63386998      10.01656095      -0.00070326       0.00430721      -0.00202856
H        5.22977638       4.00272221      12.91442183       0.00033365      -0.01206888       0.00780821
H        4.71952921       4.30581320      11.24753160       0.00302963       0.00609651       0.01082236
H        2.82203217       3.42528400      12.64552610      -0.00038826      -0.00198835       0.00094114
H        3.21223993       2.36451069      11.28804575      -0.00328257       0.00752860      -0.00680086
H        3.73771624       1.93267911      12.92532232      -0.00484659      -0.00591975      -0.01165880
H        9.05760513       3.71702135      10.04774720      -0.00185265       0.00445572      -0.00071634
H        8.94649064       2.25955820       8.99579927       0.00370707       0.00534374      -0.00257260
H        9.81432653       2.17444952      10.55598256      -0.00204803       0.00500502       0.00080384
O        5.28920554       5.26558858       7.81103169      -0.00430495      -0.00215420      -0.00294124
O        3.62991782       6.47826148       8.45319909      -0.00171377       0.00318503      -0.00645295
O        3.57426056       4.25719875       8.89931259      -0.00321984       0.00493836       0.00696564
C        5.99554241       3.99755541       7.68928163      -0.00595886      -0.00359537       0.00063960
C        7.42370365       4.33188317       7.37826122      -0.00538683      -0.00744209      -0.00109375
C        4.11988105       5.22541743       8.42786317      -0.00194287       0.00385123      -0.00106239
C        2.31230666       6.57720058       8.99653941      -0.00024156       0.00710449      -0.00388698
H        5.88295003       3.43931017       8.61589926      -0.00656837      -0.00067070       0.00242227
H        5.52356538       3.42058469       6.89261488      -0.00727469      -0.00524026       0.00251001
H        7.98089978       3.40683198       7.24296889      -0.00785625      -0.00905132      -0.00061253
H        7.49268401       4.91633760       6.46039626      -0.00474212      -0.00885035      -0.00190550
H        7.86501659       4.91128654       8.18877979      -0.00301648      -0.00727521      -0.00247703
H        1.59461339       6.09590658       8.33427382      -0.00249210       0.00568613      -0.00120959
H        2.10608202       7.64200170       9.06571327       0.00084518       0.00867215      -0.00965564
H        2.26540654       6.11378157       9.98265204       0.00051939       0.01282577      -0.00234312
