146
Lattice="12.05959440390211 0.0 0.0 0.0 12.05959440390211 0.0 0.0 0.0 12.05959440390211" Properties=species:S:1:pos:R:3:forces:R:3 energy=-143929.03125 stress="0.00027221423806622624 0.0003442918532527983 0.00040297338273376226 0.0003442918532527983 0.00021408963948488235 0.00017728329839883372 0.00040297338273376226 0.00017728329839883372 0.001492095529101789" pbc="T T T"
Na      10.95633646      12.97490318      10.74848298      -0.00380730       0.03334245      -0.01384264
Na       7.86348022      10.92616234       6.59748608       0.02796333      -0.00280671       0.04122155
O        9.51669673      -0.46840789       5.31344339      -0.01002413       0.00066355      -0.02123898
O        9.58375534       0.46109216       2.70435395      -0.00131322      -0.00071058      -0.00906535
O       11.71931153      -0.80851364       3.86771010       0.00398397      -0.01379669      -0.00972712
O       11.08066763       1.57778116       4.71682894      -0.00311828      -0.01960570       0.00491396
Cr      10.51399796       0.16710345       4.18784866      -0.02961981       0.02014825       0.01136708
Cr       9.31863399       0.73875810       0.99521655      -0.00262895       0.01536240      -0.00679779
O       10.22261529       1.98227120       0.51003557      -0.00889724       0.02155328      -0.00975469
O        9.73744923      -0.52155715       0.04574511       0.00386216       0.01939344      -0.01342249
O        7.77157161       1.08305472       0.76858441      -0.00082076       0.01188090      -0.00402662
O        4.81432902       9.98194211       3.70138694      -0.00835687       0.00343989       0.00467122
C        4.03497405      10.11999250       4.88936933      -0.00829524       0.00071246       0.00376849
C        2.56233509       9.88752609       4.63312450      -0.00947464      -0.00174145       0.00492157
H        4.41403441       9.42661862       5.64908340      -0.00785643       0.00053498       0.00322416
H        4.19433177      11.12995907       5.27821135      -0.01045244       0.00073242       0.00410745
H        1.97542036      10.02775175       5.54211777      -0.00871512       0.00058385       0.00506908
H        2.17626693      10.58940411       3.89475139      -0.01055513      -0.00403357       0.00305013
H        2.37879297       8.87378281       4.26660449      -0.00860039      -0.00277798       0.00887631
H        5.19584709       9.07520419       3.71678837      -0.00309499       0.00410080       0.00401360
O        5.98794353      -0.05589154       7.35580758       0.01467164      -0.00234511       0.00323814
C        6.02723422       0.55264345       8.66261550       0.00658974       0.00350593       0.00041448
C        7.28667727       1.36628741       8.85790193       0.01159424      -0.00579292       0.00905164
H        5.13328477       1.16992620       8.79463800       0.01022798       0.01138312      -0.01153426
H        5.98230826      -0.25960974       9.38256195      -0.00735764       0.00732452       0.00408429
H        7.36801526       1.72391565       9.88627925       0.00642314      -0.00321686       0.00861585
H        8.15911266       0.73955007       8.65925260       0.00803207      -0.01380236       0.01776641
H        7.31245145       2.22964968       8.19110853       0.02361505      -0.00817642       0.00636460
H        5.73978860       0.67174723       6.74256609       0.01474249      -0.00593492      -0.00110171
O       11.26092455       5.99471917       2.90844587       0.00031939      -0.00696808       0.00079247
C       11.24056841       4.57640165       3.08893543      -0.00411174      -0.00839961      -0.00760385
C        9.83545953       4.01977434       3.09998294      -0.00586540      -0.00320067      -0.00608076
H       11.83571017       4.08195851       2.30981821      -0.00874805      -0.00561878      -0.01334727
H       11.73507171       4.40261986       4.04555389      -0.00096710      -0.01605220      -0.01088500
H        9.86195774       2.94215966       3.24883221      -0.00930333      -0.00409275      -0.00971013
H        9.25446698       4.47310196       3.90550332      -0.00242849      -0.00456129      -0.00256176
H        9.32759504       4.20350584       2.15142514      -0.00777432       0.00205520      -0.00398736
H       10.73827272       6.18753631       2.12421440      -0.00521782       0.00003266       0.00611727
O        5.71554616       2.15593599       5.85710190       0.00112081      -0.00187711       0.00272098
C        6.87480974       1.99241718       5.01117601      -0.00445556       0.00518554      -0.00737041
C        6.61592315       1.02657155       3.88234283      -0.00812338       0.00269818      -0.00422499
H        7.19629286       2.96862349       4.63777546      -0.01510361       0.00751099      -0.01087171
H        7.66179070       1.62859004       5.67558982       0.00284013       0.01036867      -0.01403823
H        7.53861020       0.80523205       3.34932569      -0.01136263       0.00839918      -0.01240779
H        6.19763879       0.08416751       4.24458853       0.00318307      -0.00034742       0.00074010
H        5.91749918       1.44858276       3.15527250      -0.01830724      -0.00284261       0.00219784
H        4.96601204       2.36999525       5.29068854      -0.00438806      -0.00440113       0.00840870
O        2.41650754       4.53761300      10.11232760       0.00497952       0.01602048      -0.00417283
C        2.58856994       3.13031164      10.20747551      -0.00114715       0.01516277      -0.00652605
C        1.30778909       2.54002952      10.76170942       0.00217715       0.01973314       0.00653282
H        2.80778269       2.70307640       9.22009032      -0.01383829       0.01470268      -0.00906581
H        3.42396536       2.88226831      10.87462830       0.00443205       0.00996059      -0.01533914
H        1.37961018       1.44697892      10.71711609       0.00001946       0.01930098       0.00878624
H        1.15933598       2.83045475      11.80221955       0.01169297       0.02144051       0.00739759
H        0.46253301       2.89931992      10.16862813      -0.00237313       0.02073997       0.01334850
H        3.17127837       4.91123691       9.64384359       0.00010291       0.01349062      -0.01476155
O        3.16462023       2.73976795       1.90966289      -0.00217834       0.00257951      -0.00120088
C        3.12106896       3.02988562       3.30549421      -0.00382848       0.00563306      -0.00184113
C        2.71922015       1.82859526       4.14011827      -0.00901823       0.00843096       0.00010082
H        4.09446976       3.43046390       3.62840726      -0.00354981       0.00344303      -0.00037158
H        2.40307728       3.84185902       3.41524501      -0.00205472       0.00772330      -0.00498592
H        2.69810874       2.08651246       5.20312377      -0.01253599       0.01177965      -0.00085795
H        1.72578158       1.46829276       3.86998097      -0.00897890       0.00994377      -0.00234435
H        3.43202385       1.00774240       4.00762886      -0.01030448       0.00667526       0.00473570
H        3.73316660       1.97311484       1.78701283      -0.00313827       0.00062335       0.00131004
O        5.93510131       7.52388888       3.73997575      -0.00878471       0.00262606      -0.01011902
C        6.74747922       7.72160196       2.56688869      -0.00537816       0.00283438      -0.00539108
C        7.78725039       6.63951493       2.42159523      -0.00059724       0.00352633      -0.00416699
H        6.09507155       7.77302354       1.68972083      -0.00314203       0.00337244      -0.00946647
H        7.21512651       8.69874300       2.68369106      -0.00775383       0.00159094      -0.00594452
H        8.35017777       6.77416966       1.49397705       0.00099427       0.00902481      -0.00230120
H        8.49216657       6.66357576       3.25266587      -0.00598533       0.00225301      -0.00017117
H        7.33086126       5.64998792       2.37649234      -0.00096540       0.00404359      -0.01143576
H        5.24505529       6.88649468       3.46865051      -0.01746544       0.01699026      -0.01699236
O       10.43535452       3.68451933       6.45324048       0.00472021      -0.00369847      -0.00222611
C       11.36666094       3.14896573       7.38808704       0.01267627      -0.00381234      -0.01195946
C       10.78875501       1.93004720       8.09502966       0.02199879      -0.00818348      -0.01164052
H       12.29324285       2.88066077       6.87180356       0.01005951       0.00055383      -0.01922140
H       11.57963600       3.93974383       8.10825883       0.01506574      -0.00518462      -0.01068312
H       11.60504857       1.38648535       8.58732468       0.02601840      -0.00215933      -0.01091066
H       10.02148026       2.25192658       8.80687760       0.01860075      -0.01198842      -0.01303726
H       10.34504305       1.25120904       7.36337020       0.02687240      -0.01114403      -0.01188295
H       10.45541225       3.08291515       5.68780103      -0.00039493      -0.00665347      -0.00421105
O        9.62332816       4.92844859       9.62624568       0.01567480      -0.02348879       0.00121868
C        9.79536664       5.61467969      10.85997202       0.00714135      -0.01314873      -0.00327355
C       10.94797108       6.59881340      10.81712236       0.00212073      -0.00711110      -0.00602134
H        8.86879325       6.13313323      11.14079678       0.00296861      -0.01649573      -0.01085002
H        9.95659012       4.84096145      11.61407917       0.00825826      -0.00668228       0.00320980
H       11.09568934       7.07083286      11.79214934      -0.00218059      -0.00167146      -0.00792538
H       11.87337405       6.09261579      10.53812430       0.00513241      -0.00389722      -0.00191836
H       10.75353500       7.39232795      10.09159356      -0.00021859      -0.01182996      -0.01062419
H        9.68472383       5.56692546       8.89121507       0.00088949      -0.02529078      -0.00220023
O        9.81876328       6.27841715       7.16995698      -0.01108485      -0.01036245       0.00178226
C        8.56177396       6.68961127       6.64914338      -0.00751466      -0.00737047      -0.00449070
C        8.54756195       8.19860634       6.48997665      -0.00787960      -0.00629777       0.00710427
H        8.37498400       6.21384329       5.68223467      -0.00023131      -0.00020467      -0.00939584
H        7.75531919       6.37777111       7.32866762      -0.01240718      -0.01300594      -0.01276717
H        7.56621599       8.49293005       6.09634689      -0.00454180      -0.00220304       0.00186856
H        8.73168287       8.66984926       7.46204671      -0.01635112      -0.01463380       0.01287827
H        9.32060548       8.52132406       5.78967952      -0.00246015      -0.00017509       0.01569334
H       10.03957129       5.40781834       6.78510396      -0.00754032      -0.00844495      -0.00202969
O        3.70594900       6.33064477       2.66027652      -0.02309164       0.02341121       0.01852572
C        3.37014064       6.14189691       1.26444813       0.00136536       0.00579605       0.01507433
C        1.98163220       6.65236340       0.98326416      -0.00136983      -0.01821700      -0.01145210
H        4.10538490       6.66553226       0.64443557       0.00232178       0.01131892       0.02156493
H        3.44850172       5.07256091       1.07662014       0.01911379       0.00535363       0.02719980
H        1.74587988       6.54389596      -0.07474957       0.01577408      -0.04239723      -0.01265593
H        1.23404515       6.11900268       1.57073443      -0.00031258      -0.01845220      -0.01083820
H        1.91913023       7.71193568       1.23602899      -0.01891139      -0.01438139      -0.03222540
H        3.25575558       7.13917236       2.92786559      -0.02838390       0.02505785       0.00167845
O        8.06597217      10.06056410      10.00756986      -0.00204319       0.01440765      -0.03047663
C        6.74736662       9.55333165      10.23816668       0.00477391       0.00691110      -0.00441907
C        6.71247347       8.11611120      10.71495971       0.02236166       0.00748831      -0.00223693
H        6.20514776      10.19242421      10.94356169       0.01591399       0.00532994       0.00545630
H        6.23626547       9.62207343       9.27390222      -0.01439783       0.00331140       0.00571692
H        5.67467351       7.78018097      10.78329383       0.02549370       0.00087648       0.01427172
H        7.23941721       7.45742512      10.02289378       0.01561256       0.01018207      -0.01002425
H        7.16479368       8.01616880      11.70200765       0.03863598       0.01153573      -0.00924197
H        8.44772651      10.35630722      10.84789790       0.00934251       0.01924888      -0.03681040
O        3.74052113       9.75512287       1.06199590      -0.00481927      -0.01216869       0.00647056
C        2.42204562      10.23592515       0.85020665      -0.00171304      -0.00588202       0.00654599
C        2.31531396      11.74360778       0.95006493       0.00581422      -0.00507897       0.00443704
H        2.13310088       9.89500152      -0.14793605      -0.00423981      -0.00578967       0.00739348
H        1.71668512       9.78658974       1.56037531      -0.00419420      -0.00230536       0.00764081
H        1.28207533      12.07159602       0.80739985       0.00708410       0.00034342       0.00766218
H        2.60508964      12.07964649       1.94612864       0.01205816      -0.00508773       0.00272338
H        2.95252014      12.23726064       0.21329615       0.00570311      -0.01002915       0.00084925
H        4.01829586       9.97599328       1.96984499      -0.00210206      -0.00905390       0.00592270
O        7.36650622       3.84685669      12.38265712       0.00865966       0.00891197       0.01279160
C        6.16853458       4.43096290      11.89916983       0.00835249       0.00316963       0.00901151
C        6.05104101       4.41810840      10.38164419       0.01035915      -0.00217400       0.00898123
H        5.28911902       3.95984629      12.35581090       0.00866222       0.00193471       0.00884390
H        6.18717195       5.46756568      12.24641558       0.00458351       0.00458997       0.00577214
H        5.29761462       5.13829205      10.05194767       0.00603749      -0.00788133       0.00662882
H        7.00683433       4.69136943       9.93095120       0.00947434       0.00119298       0.00896083
H        5.76813712       3.43419772      10.00560808       0.01632372      -0.00509745       0.01219381
H        7.29466945       2.88157902      12.42906656       0.01240303       0.00717631       0.01015520
O        4.18863378       6.75036073       8.10081093      -0.01948684      -0.01483542       0.03112361
C        3.12133834       7.65155737       7.79467858      -0.01109478      -0.00898015       0.01814087
C        3.33463241       9.03387354       8.37972311      -0.00485487      -0.00749981       0.01247418
H        2.97330308       7.70821724       6.70993322      -0.00116761      -0.01402017       0.01612997
H        2.23017489       7.18929301       8.22027312      -0.01740244      -0.00081208       0.01323660
H        2.45979942       9.66189892       8.19930991      -0.00005010      -0.00205354       0.00753960
H        3.49906935       8.97062811       9.45626424      -0.00890773      -0.00455295       0.01341209
H        4.19390001       9.53573724       7.92834561      -0.00036292      -0.01471625       0.01317910
H        4.96953329       7.03038546       7.61370543      -0.01411545      -0.02295226       0.03531429
