148
Lattice="12.209219516217102 0.0 0.0 0.0 12.209219516217102 0.0 0.0 0.0 12.209219516217102" Properties=species:S:1:pos:R:3:forces:R:3 energy=-106266.203125 stress="0.0027268549893051386 0.0002463057899149135 0.0010627129231579602 0.0002463057899149135 0.000595010700635612 -0.0007299674907699227 0.0010627129231579602 -0.0007299674907699227 0.001231590867973864" pbc="T T T"
Na       4.66065356      11.57313879      12.44046131       0.00678980      -0.01691712      -0.00897272
Na       7.17219679      11.70005833       6.20588155       0.01091307       0.00106223       0.00553737
S       12.67473543      -0.71040022      -0.75104433       0.03479385      -0.03331912      -0.01355153
S       14.07138466       0.04023832       0.49703794      -0.02001494       0.01574534       0.03308055
O        8.61099519       6.84601874       0.56341290       0.00080949      -0.00498962      -0.01100466
C        7.96161153       6.88330799       1.85090573       0.00360461      -0.01586154      -0.00901082
H        6.90443211       7.13699070       1.75236354       0.00353804      -0.01342018      -0.00434943
H        8.44164568       7.59775354       2.52332421       0.00702362      -0.02312335      -0.00322728
H        8.06332629       5.88907061       2.27962135       0.00199253      -0.02105117      -0.01973172
H        8.49809005       7.71439046       0.16252873      -0.00027694       0.00004619      -0.00360292
O        6.93029589       5.53287202       6.93688231      -0.00600165      -0.00329773      -0.00230217
C        8.03763894       4.69661531       6.62155250       0.00015098       0.00354147       0.00202031
H        7.79385464       3.63513638       6.72851045       0.00572553       0.00173464      -0.00072888
H        8.90832289       4.91995996       7.24865521      -0.00384182       0.00708839       0.00699624
H        8.30150802       4.89062064       5.58321175       0.00485430       0.00614999       0.00334156
H        6.60207416       5.26784452       7.80583732      -0.02258456      -0.02129543      -0.01302451
O        5.08886780       4.21247629       9.02321411       0.02138036       0.01586881      -0.00525099
C        3.91330033       4.79515478       8.44425268       0.00565646       0.00599024       0.01372126
H        4.17927038       5.66290467       7.83394761      -0.01227284       0.01229692       0.01448144
H        3.18934468       5.09923651       9.19997974       0.01259243      -0.00568606       0.02565148
H        3.46443321       4.04365220       7.79689392       0.00483187       0.00381096       0.01609801
H        5.48300950       4.82664189       9.66899166       0.01546403       0.01211500       0.00288609
O        9.11637903      11.72943079       7.36608689       0.02556211       0.01535910      -0.00570834
C       10.22846682      10.80548335       7.38009638       0.01511177       0.00261851      -0.00644366
H       10.38040819      10.40645386       8.38796649       0.01360868       0.00273638      -0.00601697
H       11.15010453      11.29265239       7.06170602       0.01989886      -0.00864416      -0.01020318
H        9.98063377      10.00272510       6.68502921       0.00389215       0.00354369      -0.00444233
H        9.39066572      12.50364788       7.86877102       0.04293945       0.01758087      -0.01365811
O        4.91866829       7.70756853       3.08046221      -0.01002675      -0.01721027      -0.01994006
C        5.54009789       7.96136104       4.35090416      -0.00833168      -0.01664508      -0.01834053
H        6.45051400       8.52477084       4.14994961      -0.00252283      -0.02688906      -0.01781441
H        5.82042354       7.03638455       4.85994742      -0.01968140      -0.01812530      -0.01389869
H        4.88675777       8.55356658       5.00019963      -0.00486347      -0.00779155      -0.02246828
H        4.06463547       7.27849639       3.21933973      -0.01453173      -0.00037783      -0.02227229
O        2.28723165       2.19695103       4.19952554       0.01097775       0.00265580       0.01305330
C        2.92034895       2.08556811       2.93793070       0.01215816       0.00471352       0.01325580
H        2.29680572       2.45102641       2.11796705       0.01305908       0.00787111       0.01366776
H        3.16637072       1.03987808       2.70350992       0.01162764       0.00511077       0.01105527
H        3.83265201       2.68114661       2.97027162       0.01287878       0.00369787       0.01494755
H        1.45503701       1.69760640       4.13841630       0.00999977       0.00385955       0.01079033
O        1.07883759      11.84500503       6.07609084      -0.00076813      -0.00371514      -0.00433445
C        2.48975008      11.86159005       6.21426640      -0.00147218      -0.00368392       0.00677920
H        2.97018271      12.14047745       5.27136023       0.00600895      -0.01044676       0.00738502
H        2.88304633      10.89102396       6.54794904      -0.00391938      -0.00272024       0.01505356
H        2.75602428      12.60919472       6.95804270      -0.00623732       0.00083894       0.00266141
H        0.90477753      11.37567301       5.23781016       0.00420725       0.00284629      -0.00844803
O        8.88099293       7.58789618       5.45196942       0.00225258       0.00535933      -0.00238585
C       10.25179886       7.20119659       5.35808417       0.00182286       0.00616125      -0.00436756
H       10.44819781       6.27567654       5.90575656       0.00290855       0.00319350      -0.00938986
H       10.92017042       7.97778016       5.74794913       0.00234725       0.00448287      -0.00174712
H       10.48428769       7.03732981       4.30681330       0.00073152       0.01121624      -0.00596780
H        8.58723063       7.39214374       6.35226484       0.00604577       0.01067051       0.00256366
O       11.22357407       7.00580860       9.85012225       0.00918251      -0.00369376      -0.02035224
C       10.39557159       5.83923040       9.90212725      -0.00204000       0.01569219       0.00243592
H       10.86734646       5.08607553       9.27321231      -0.00039911       0.01833203      -0.01151504
H        9.39545871       6.05709027       9.51708299      -0.00277436       0.01286457       0.00787079
H       10.32520820       5.44199543      10.91822117       0.00820174       0.00361618      -0.00463036
H       10.92435722       7.63405622      10.51229537       0.00784999       0.02118328       0.03434208
O        6.18292310       1.43467281       6.57680782       0.00247331      -0.00263998       0.01017815
C        5.45282632       2.47943532       5.90735511       0.00205744      -0.00397112       0.00813705
H        5.89909672       2.64447484       4.92466034       0.00195178      -0.00565093       0.00768422
H        5.52342369       3.41368853       6.46374454       0.00214630      -0.00242296       0.00597955
H        4.40084625       2.21195250       5.77540021       0.00188920      -0.00426270       0.00900926
H        6.11897625       1.58598313       7.55201520      -0.00270050      -0.00327301       0.00999536
O        1.68507017       7.14810697       8.91532506       0.00056969      -0.00141050      -0.00000525
C        1.34634207       6.91759061       7.56283906       0.00132303       0.00214282       0.00001729
H        0.66009148       7.67967371       7.17592348       0.00068912       0.00222766       0.00109255
H        0.88874395       5.93157237       7.40965452       0.00323789       0.00147426      -0.00400466
H        2.26514719       6.95655256       6.97594385       0.00240099       0.00531996       0.00064195
H        0.85389046       7.11569704       9.41289306      -0.00394888       0.00352300      -0.00094948
O        6.89649302      -0.22692604       3.86448095       0.00246836      -0.00261056       0.00382569
C        5.53636697       0.11787391       3.48987816       0.00177568      -0.00550309       0.00753163
H        5.06915647      -0.78593154       3.09739409       0.00094086      -0.00861768       0.01334905
H        5.54578479       0.89647548       2.72811637      -0.00218005      -0.01011121       0.00360626
H        4.96905799       0.47283741       4.34806202       0.00426315      -0.00235934       0.00824693
H        7.42365493       0.57119407       3.74780888       0.00332588      -0.00020301      -0.00941519
O       11.19531690       7.03240677       1.85466492       0.00936013       0.00506619      -0.01296496
C       11.18248495       8.45835741       1.95769823       0.00174985       0.00548799      -0.01171502
H       10.17534920       8.83620977       2.16106729       0.00025913      -0.00118678      -0.00413806
H       11.57158574       8.94301124       1.05540403      -0.00714925       0.00851157      -0.01384285
H       11.81117299       8.73666046       2.79871003       0.00606094       0.00861323      -0.01579618
H       10.48385224       6.77497493       1.25020655       0.00918083       0.00124557      -0.01020122
O        5.43385675       4.31696094       2.05093485       0.00036877      -0.00170708       0.00588158
C        4.81309046       4.35374422       0.76293006      -0.00176344       0.00171213       0.00782946
H        5.55816555       4.41637356      -0.03748199      -0.00373951       0.01067260       0.00630046
H        4.10737177       5.18496175       0.67187037      -0.00815807      -0.00319162       0.01294060
H        4.24077316       3.43690395       0.64455425       0.00413127      -0.00253636       0.00417128
H        5.76071046       5.20000873       2.24389050      -0.02106983       0.00788683       0.01762006
O       12.01278649       0.88617770       3.77331172       0.00929418       0.00732194       0.00578123
C       11.25200008       1.68259695       2.87088463       0.00676888       0.00187874       0.00276518
H       11.40366849       2.75221110       3.04359034       0.00125781       0.00327811       0.00096200
H       10.18160244       1.45687408       2.93757392       0.00751922      -0.00346471       0.00198279
H       11.59816017       1.42718165       1.87086724       0.01040153       0.00184863       0.00390193
H       11.70332731       1.01148149       4.67686687       0.00494963       0.00449546       0.00412586
O        1.76030529       6.50631646       2.03479600       0.01319394      -0.00886494       0.01796681
C        1.93451354       5.36881947       2.86997151      -0.01093256      -0.01671335       0.01347452
H        1.44945273       4.48303481       2.45586340      -0.01982699      -0.00750735       0.00297225
H        1.55569186       5.54106037       3.88489942      -0.01816523      -0.01677011       0.01124051
H        3.00375641       5.15630899       2.92632509      -0.01396200      -0.03172502       0.02249931
H        0.80578739       6.60409302       1.87187715       0.01575726       0.00156260       0.00642911
O        6.14807329       1.79480266       9.23871628      -0.01055729       0.00062326       0.00951096
C        7.39752686       2.30608089       9.70601637      -0.00508485      -0.01308005       0.01192625
H        7.38371376       2.42613950      10.79346332      -0.00798256      -0.00848140       0.01147395
H        7.63198805       3.26875489       9.24171506       0.00769502      -0.01734880       0.00879763
H        8.18248617       1.59538002       9.44846118      -0.01364036      -0.02444769       0.01717538
H        5.53449463       2.56342045       9.25888803      -0.00109835       0.00838399       0.00634380
O        4.42629504       9.48331163       0.96808623      -0.00104353      -0.01540223      -0.01345992
C        3.23131257       8.87848011       0.43690495      -0.00785671      -0.00730398      -0.00781134
H        2.50829537       8.68217350       1.22688928      -0.01256713       0.01527980      -0.00622532
H        3.45997376       7.93611795      -0.06347939      -0.01850078      -0.01815525       0.00760642
H        2.78647580       9.57362792      -0.27133705       0.00125849      -0.01355253      -0.02008189
H        4.71157641       8.92913093       1.71771670      -0.00391515      -0.01417911      -0.01124363
O        1.79810443       3.28863440      12.05829692       0.00429899       0.00706130      -0.00041290
C        0.58436063       3.94432263      11.74315303      -0.00124812      -0.00092822       0.00454450
H       -0.23378685       3.63903025      12.40760868       0.00604814       0.00519735       0.01738229
H        0.27040158       3.75783036      10.71143598      -0.01230967      -0.01499136       0.00954986
H        0.75408700       5.01378048      11.87706881      -0.00361999       0.00192025      -0.01083530
H        1.65006568       2.32709539      12.09712468       0.00591604       0.00614717       0.01065905
O        8.28819575       8.14154167       8.32012435      -0.00361168       0.00398231      -0.00760315
C        7.08433940       8.75699949       7.88014781       0.00131579       0.01104887      -0.01033113
H        7.17057676       9.08718174       6.83326448       0.00636894       0.01192601      -0.01007426
H        6.79162230       9.59497834       8.52308478       0.00346066       0.01150581      -0.00918105
H        6.31114118       7.99308384       7.91720627      -0.00291750       0.01432221      -0.01417295
H        8.99947273       8.78900575       8.27182909      -0.00124994       0.00468707       0.00563147
O       -0.07768152       1.67057755       9.16924647      -0.01654965      -0.03486130       0.01974851
C        1.28623368       1.86223931       8.82310789      -0.02345860      -0.01278363       0.00159006
H        1.84655444       0.92967490       8.93116400      -0.00688830      -0.00434297      -0.00662021
H        1.76627626       2.62156698       9.45305712      -0.02686909      -0.00578180      -0.00312158
H        1.33305916       2.18043050       7.78086148      -0.04210690      -0.01114691       0.00087613
H       -0.07981517       1.05742410       9.92599272       0.00399953      -0.04205312       0.01507149
O        1.04429620      10.33915996       3.79751435      -0.00113136       0.02442962      -0.02079964
C        1.97581851       9.29393236       4.05534334       0.01810552       0.00556874      -0.01005653
H        2.99047404       9.57531196       3.75830974       0.01468918       0.02980886       0.00393139
H        1.70422441       8.36532005       3.54224422       0.02514626       0.02104369      -0.03333487
H        1.96393478       9.11965889       5.13271523      -0.00485109       0.00085659      -0.02028540
H        1.21655323      10.75114442       2.93769857       0.01397137       0.02317773      -0.00676891
O        6.65361185       6.00056164      10.41003924       0.00320536       0.00839370       0.01628369
C        6.04207305       7.21763268      10.83908178      -0.00596869       0.00806865       0.00467597
H        6.71841398       8.06548676      10.69482805      -0.00944965       0.01055133       0.00070353
H        5.73563718       7.16271402      11.88620590      -0.00958268       0.01438065       0.00424337
H        5.15388236       7.37057945      10.22709152      -0.00486657      -0.00076884       0.00031173
H        7.39939371       5.83126567      10.99982838       0.00023100       0.01682655       0.02230793
O        7.11837690      11.47907057       1.00837700      -0.01763349       0.01063171      -0.00538170
C        8.48612476      11.27692803       0.61836678      -0.01997104       0.01317303      -0.01766393
H        8.70556054      10.21291375       0.48112262      -0.02018483       0.01347612      -0.02009279
H        9.17692112      11.67536568       1.36434854      -0.01423551       0.01503865      -0.02352126
H        8.65779600      11.79753149      -0.31931436      -0.03140653       0.01398020      -0.01955831
H        7.08768382      11.32784723       1.96321757      -0.01235467      -0.00219861      -0.00738758
