148
Lattice="13.243632934729915 0.0 0.0 0.0 13.243632934729915 0.0 0.0 0.0 13.243632934729915" Properties=species:S:1:pos:R:3:forces:R:3 energy=-539534.375 stress="-0.0005454325582832098 0.00026746519142761827 0.0005893894121982157 0.00026746519142761827 0.0006537717999890447 -0.00033400076790712774 0.0005893894121982157 -0.00033400076790712774 -0.0021694728638976812" pbc="T T T"
Nb       5.19274271      14.40847215       4.96609939       0.00553469       0.00116676       0.00391360
Nb       2.80569860      13.85891864       4.06151661       0.00461316       0.00085828       0.00584807
S        2.18013620       3.01898458       2.89239987       0.00264826      -0.00223294       0.00129449
S        6.50273888       2.63629260       2.52787857       0.00858086       0.00408900      -0.00329053
S        3.60158896       4.52889992       3.12603103       0.00292495      -0.00284017      -0.00409488
S        5.19837986       3.65495508       4.00910951       0.00314213       0.00032139      -0.00034463
O        1.84814422       2.45940544       4.28013476       0.00454073       0.00069442       0.00354967
O        7.63333724       3.44926935       2.22171640       0.00006783      -0.00358522       0.00372893
O        2.72506709       1.77652895       2.24494147       0.00199139      -0.00386643       0.00444227
O        1.12038017       3.69101092       2.22793094       0.00100506      -0.00514431       0.00161956
O        6.81362493       1.61767686       3.61179214       0.00619848      -0.00020975       0.00548875
O        5.66196080       2.14651199       1.48386197       0.00882030      -0.00264245       0.00447077
S        5.64175627      12.06809516       3.31246338       0.00154251      -0.00021592       0.00329863
S        1.80830983      11.28260997       4.01335190       0.00336164       0.00131652       0.00992113
S        4.72434976      10.16576608       3.15055203       0.00226105      -0.00077343       0.01115642
S        3.42751285      10.02256814       4.65617733       0.00442284       0.00546527       0.01357756
O        6.05187880      12.35528826       4.70900248       0.00679065       0.00299019       0.00193188
O        2.26267836      12.11018041       2.84222744       0.00451761      -0.00073147       0.00862487
O        4.59363726      13.22490447       3.08375799       0.00257859       0.00126876       0.00442377
O        6.60402221      12.07373280       2.27377386      -0.00089173      -0.00229006      -0.00017244
O        0.59991060      10.55650999       3.86902671       0.00465184       0.00014110       0.00922369
O        1.82384702      12.35403883       5.11729659       0.00001119       0.00414714       0.00746679
S        7.41299620       5.84879636       8.79862207      -0.00151867      -0.00394839      -0.00488198
S        5.85735440       1.83117448      10.44128544      -0.01045120       0.00111794       0.00468865
S        6.08956713       5.18602755      10.44121382       0.00793669      -0.00261487       0.00165015
S        4.91135985       3.73549037       9.77462944      -0.00179991       0.00449812       0.00299388
O        7.71546699       4.64917935       8.03994417       0.00069427      -0.00467181      -0.00260890
O        5.89411192       1.96118698      11.88395794      -0.01745854      -0.00121887       0.00449896
O        8.45542176       6.38663187       9.64947698      -0.00007010       0.00302470      -0.01134574
O        6.62051970       6.83528794       8.08285276      -0.00810766      -0.00965416      -0.00539076
O        4.85338365       0.92113307       9.90991021      -0.00965822       0.00362980      -0.00160927
O        7.15146719       1.78350741       9.79367800      -0.00739670      -0.00096500       0.01110220
S        7.79450485      10.31168420       6.93221200      -0.00550640      -0.00408304      -0.01077464
S       11.94440388      11.55349122       7.42050505      -0.00421321       0.02681231       0.00447544
S        8.90848995      12.07679232       6.12960730      -0.00011319      -0.01083419      -0.01097731
S       10.03971368      12.71405178       7.61054622      -0.01798373       0.00474098      -0.00744630
O        8.78118727       9.62006283       7.72258915      -0.00636077      -0.01692307      -0.02147114
O       12.90792007      12.64950433       7.29798370      -0.01357365       0.03265178      -0.01240757
O        7.41957149       9.73166584       5.65775854      -0.01881403       0.00574577      -0.01156688
O        6.70079206      10.90910501       7.68628776       0.00318408      -0.00340211       0.00068939
O       12.00603856      10.84150440       8.68155507       0.00404793       0.04536819       0.01495409
O       11.77156087      10.75894484       6.22695112       0.00373229       0.00758958       0.01624417
S        4.96502341       6.93488508       5.31223664      -0.00140345      -0.00408085       0.00146656
S        8.45150040       8.13216382       2.47578985       0.00038069       0.00065267      -0.00537682
S        7.16484732       6.68697990       5.31925473       0.00074854       0.00184780       0.00045881
S        7.55146092       6.31830508       3.42822890       0.00205919       0.00066634       0.00092462
O        4.60001086       6.94088273       3.89523270       0.00053191       0.00125429       0.00301266
O        9.57716456       8.44275144       3.31640395      -0.00225711       0.00711489      -0.00450897
O        4.76641817       8.21054451       5.98341565      -0.00236470      -0.00937212       0.00626302
O        4.45680810       5.78105086       6.04243210      -0.00527579      -0.00435758      -0.00116539
O        8.74498166       7.48210897       1.20948351       0.00496793      -0.00222766      -0.00237989
O        7.37733400       9.10356501       2.42778717      -0.00308442      -0.00299299      -0.01064242
C       11.42285891       2.37224500       2.29089204      -0.01263055      -0.00990805      -0.00230320
C       11.13726087       2.43417961       3.64949395      -0.01402046      -0.00805965      -0.00271633
C       12.02833947       1.23779975       1.76705895      -0.01042092      -0.00979598       0.00023490
C       11.45245951       1.36698327       4.48270498      -0.01081927      -0.00497956      -0.00027668
C       12.33433751       0.16343443       2.59756554      -0.00902434      -0.00758882       0.00241952
C       12.04503871       0.22146532       3.95834585      -0.00837988      -0.00471723       0.00226156
H       11.17350432       3.20229793       1.64281052      -0.01374090      -0.01159871      -0.00390854
H       10.66220729       3.32066078       4.04943801      -0.01867216      -0.00932737      -0.00555566
H       12.25393732       1.19501697       0.70907839      -0.01104464      -0.01196572       0.00027388
H       11.22778677       1.40495050       5.54185860      -0.01005977      -0.00319170      -0.00016873
H       12.78365799      -0.72868836       2.18019149      -0.00859107      -0.00824988       0.00450138
H       12.24569212      -0.62373775       4.60613371      -0.00639300      -0.00258756       0.00416401
C        4.25068887       0.10870365       6.89564162      -0.00512975       0.00274399       0.00073054
C        3.35458195       1.15491664       6.54148041       0.00293421       0.00871688       0.00011788
C        5.59459250       0.40041885       7.17393626      -0.00389619      -0.00659852       0.00267521
C        3.82591328       2.49300938       6.58134018       0.01135260       0.00559339       0.00084022
C        6.05714534       1.73278180       7.13905855       0.00499505      -0.00943105       0.00541571
C        5.15530247       2.78477541       6.91893047       0.01247623      -0.00321001       0.00280559
H        3.91381559      -0.91810054       6.90807749      -0.01292511       0.00496179       0.00056926
H        2.28047767       0.95957325       6.48989490       0.00117315       0.01622115      -0.00162230
H        6.27148339      -0.42330160       7.37403060      -0.00907752      -0.01106244       0.00282071
H        3.15775309       3.30391698       6.32835380       0.01727118       0.01022935      -0.00053580
H        7.09590836       1.95414625       7.33000611       0.00583455      -0.01666075       0.00765803
H        5.50379834       3.80744886       6.88820233       0.02008309      -0.00581589       0.00405362
C        0.72463384       3.23676279       9.51716887      -0.00487128      -0.00520337      -0.00903483
C        1.65637290       3.36643372      10.54159409      -0.00640566      -0.00051051      -0.00843681
C        0.36877886       1.97254738       9.06096866      -0.00459191      -0.00710870      -0.00344074
C        2.23270542       2.23536951      11.10850935      -0.00758028       0.00216667      -0.00213999
C        0.93832918       0.83928988       9.63299962      -0.00597324      -0.00448847       0.00295177
C        1.87082052       0.97335319      10.65317752      -0.00753371       0.00008588       0.00359781
H        0.27124586       4.11632118       9.07647158      -0.00380719      -0.00738041      -0.01421852
H        1.95670036       4.35023337      10.87976780      -0.00679759       0.00102970      -0.01256852
H       -0.34804058       1.85235223       8.25824147      -0.00277740      -0.01145044      -0.00423098
H        2.99471366       2.32891629      11.87203601      -0.00854610       0.00541305      -0.00179264
H        0.64892497      -0.12986536       9.24985828      -0.00566778      -0.00642586       0.00796200
H        2.35518405       0.09985795      11.06939295      -0.00860459       0.00205158       0.00871142
C        4.90271649       7.53854059       0.58421738      -0.00031283      -0.00406444       0.00441796
C        5.54115897       6.32517754       0.35999268      -0.00348404      -0.00528380       0.00276772
C        3.51718132       7.61653930       0.49932316       0.00039534      -0.00007907       0.00004544
C        4.80135353       5.19037436       0.04647010      -0.00576696      -0.00233886      -0.00275499
C        2.77159823       6.48358413       0.18954595      -0.00218165       0.00313272      -0.00459069
C        3.41593307       5.27249380      -0.03841860      -0.00526968       0.00193699      -0.00607898
H        5.49753880       8.41300844       0.81318185       0.00175662      -0.00692058       0.00980514
H        6.62085483       6.28246771       0.41725527      -0.00387648      -0.00865766       0.00515538
H        3.01782398       8.56337578       0.66871107       0.00268579       0.00064687       0.00035649
H        5.29322852       4.24129657      -0.12814453      -0.00805561      -0.00290996      -0.00437383
H        1.69097522       6.54099820       0.13166802      -0.00175808       0.00658605      -0.00727926
H        2.83570476       4.38472753      -0.25489206      -0.00730000       0.00453787      -0.01074737
C        8.90449044       3.73021541      12.29705447      -0.00094295      -0.00371709      -0.00222051
C        9.80591949       2.81769975      11.76316224       0.00097260      -0.00278242      -0.00037585
C        9.36351591       4.92944423      12.82631682      -0.00278822      -0.00308649      -0.00190940
C       11.16711445       3.10526034      11.76109856       0.00055288      -0.00160523       0.00148154
C       10.72256152       5.21923959      12.83178390      -0.00327532      -0.00206736       0.00059022
C       11.62591216       4.30665995      12.29543848      -0.00141189      -0.00118850       0.00209917
H        7.84831226       3.49590773      12.29173304      -0.00044397      -0.00472739      -0.00373143
H        9.43113182       1.89723159      11.33652124       0.00232758      -0.00347471       0.00006664
H        8.68163259       5.65403576      13.24439606      -0.00429182      -0.00363263      -0.00359315
H       11.87389227       2.40309893      11.33622603       0.00185588      -0.00102437       0.00287181
H       11.05844570       6.15695044      13.25743929      -0.00473479      -0.00210761       0.00163423
H       12.68824204       4.52030532      12.29169196      -0.00185393      -0.00022618       0.00385566
C       11.06978135       6.12810615       8.54266257       0.00545614       0.01498682      -0.00489667
C       10.92915773       4.86192589       7.98708771       0.00515202       0.01453555      -0.00358723
C       10.93708470       7.26190489       7.74797802       0.00841340       0.01395014      -0.00652191
C       10.67027896       4.73110811       6.62897113       0.00801914       0.01324296      -0.00387466
C       10.67118729       7.13034749       6.39022572       0.01056943       0.01271898      -0.00674742
C       10.54921400       5.86161367       5.82844557       0.01025304       0.01230705      -0.00541902
H       11.22409564       6.22450331       9.60992923       0.00380193       0.01625968      -0.00485182
H       10.96409111       3.98535261       8.62201248       0.00311091       0.01538542      -0.00251374
H       10.99243098       8.25068300       8.18347828       0.00840840       0.01432094      -0.00775754
H       10.52262465       3.74415602       6.20888295       0.00893207       0.01287310      -0.00325099
H       10.52993568       8.01110139       5.77734199       0.01200931       0.01243323      -0.00726345
H       10.31987349       5.76778829       4.77421118       0.01181583       0.01100667      -0.00556460
C        7.25855019      11.03959678      11.50561809       0.00566214       0.00246413      -0.00959937
C        7.16630607       9.87033492      10.75847656       0.00615618       0.00258105      -0.00974829
C        6.12447206      11.60303021      12.07961900       0.00645914      -0.00139180      -0.00449131
C        5.93382342       9.24952836      10.59448617       0.00744487      -0.00090298      -0.00514464
C        4.89368644      10.97680790      11.91684121       0.00781940      -0.00479704      -0.00008081
C        4.80083589       9.79954095      11.18210811       0.00831093      -0.00452773      -0.00036719
H        8.21490072      11.53387910      11.61868180       0.00461279       0.00515056      -0.01389161
H        8.03682049       9.45129844      10.27279920       0.00559458       0.00613016      -0.01399332
H        6.19284501      12.53342490      12.62816730       0.00586154      -0.00169939      -0.00399610
H        5.86013891       8.35962032       9.98262603       0.00748197      -0.00041950      -0.00592197
H        4.00327364      11.41934914      12.34870546       0.00812709      -0.00757202       0.00329304
H        3.84085348       9.31793529      11.05141728       0.00909796      -0.00669802       0.00263181
C        2.40472968       8.18028817       8.13134604       0.01437487      -0.01307741       0.02480265
C        2.75286416       9.52629152       8.17329911       0.02015063      -0.01380557       0.01856516
C        1.43982468       7.69145756       9.00491601      -0.00268438      -0.00161430       0.01253501
C        2.12471463      10.38211122       9.06985111       0.01117147      -0.00559661       0.00443380
C        0.82784764       8.54178722       9.91673312      -0.01313174       0.00782029      -0.00322288
C        1.16216639       9.88984260       9.94264542      -0.00406511       0.00513083      -0.00665341
H        2.90231409       7.52344438       7.43191406       0.02317172      -0.02031267       0.03716789
H        3.54046687       9.88723576       7.52469811       0.03317577      -0.02191819       0.02873328
H        1.15458466       6.64738918       8.96952125      -0.00088431      -0.00209850       0.01018604
H        2.39280347      11.43065550       9.09824427       0.01573917      -0.00689459       0.00381720
H        0.07132059       8.15914505      10.58948688      -0.02679859       0.01729243      -0.01388633
H        0.66156104      10.55558176      10.63181241      -0.00991195       0.01059748      -0.01717320
