147
Lattice="13.003518499116124 0.0 0.0 0.0 13.003518499116124 0.0 0.0 0.0 13.003518499116124" Properties=species:S:1:pos:R:3:forces:R:3 energy=-417060.59375 stress="-0.0009485964546911418 0.0007093567401170731 -0.0008754587033763528 0.0007093567401170731 -0.001448085648007691 -0.0013682731660082936 -0.0008754587033763528 -0.0013682731660082936 -0.001611052779480815" pbc="T T T"
Nb       9.59417218      11.38665653      10.41637166      -0.01100594       0.00338253      -0.00764430
Nb       7.35474562      12.16836729      11.20347067      -0.01139892       0.00320728      -0.00386468
S       12.26879028      12.13569189      10.38341422      -0.01098906       0.00818521      -0.02273998
S       12.94814218      10.43197388       9.22863592      -0.00612675       0.01369515      -0.02650097
O       11.19074509      12.76762490       9.56776840      -0.01726693       0.00097417      -0.01983628
O       13.39834392      12.91376551      10.76670082      -0.01222599       0.01121087      -0.02721488
O       11.49255738      11.51191865      11.51073035      -0.00622658       0.00840222      -0.01603343
S        9.95822146       9.71814726       8.23154950      -0.01217234      -0.00651720       0.00089850
S       11.87840913      10.43329400       7.54902689      -0.02301249       0.00538953      -0.01651756
O       10.16370896       9.34757886       9.66431398       0.00274563       0.00093385       0.00120137
O        9.46685380       8.72787394       7.34220319      -0.01370701      -0.01540250       0.00962284
O        9.12866659      10.97143712       8.35575434      -0.02062114      -0.01247447       0.00107370
S        5.01433583      10.19086010       1.99766023       0.00584421      -0.00267851      -0.01518208
S        5.94612147      11.71506841       0.32713552      -0.00353326       0.01453385      -0.00220928
O        6.13935717      10.14722662       2.88763205       0.01211452      -0.01345420      -0.02389780
O        4.72261301       9.02133130       1.20813825      -0.00534859       0.01071495      -0.02363467
O        3.89689139      11.02589850       2.33682263       0.00909388      -0.00121105       0.00647052
S        8.71827266       9.82703775       0.29943951      -0.03122558      -0.00604838       0.00022322
S        7.93694582      11.87410550       0.64675348      -0.00409514       0.01215081      -0.00514734
O        9.62201611       9.58827676       1.37644945      -0.00584069       0.01200117       0.00126338
O        9.46175183      10.01160140      -0.99873021       0.00564665       0.01278079      -0.00809714
O        7.56321696       8.99154398       0.13071187       0.01340465       0.02633221      -0.00677592
S       12.44588150       4.21951336       3.93749560      -0.00507322       0.01441962       0.00457782
S       13.81288506       2.90122100       4.71456792       0.00693393       0.04253483       0.02294350
O       12.06381131       5.13148988       5.01970354       0.00168544       0.02459943      -0.00515294
O       11.33544899       3.38263625       3.48282680      -0.03122020       0.01939774       0.01262051
O       13.13139914       4.92312002       2.84158706      -0.00828397      -0.01294160      -0.01136911
O        9.56851411       1.30394908       1.53778851      -0.00566012       0.00362468       0.01736665
N        8.18214807       1.02570672       3.31560387       0.00347859      -0.00663363       0.02142075
C        7.00194787       1.42338118       2.58330461      -0.00191268      -0.00906173       0.02809064
C        7.97243119       0.49089918       4.64283697       0.01077401      -0.00986713       0.02112727
C        9.39006102       1.06859632       2.72710050      -0.00014850      -0.00121325       0.01550865
H        6.23683777       1.72532658       3.29324289       0.00106147      -0.01369739       0.03287914
H        6.57020511       0.60886266       2.00188308      -0.00226141      -0.00919759       0.02870418
H        7.25248043       2.26043697       1.93785777      -0.00884528      -0.00740537       0.02751993
H        7.52059326       1.25197406       5.28272175       0.01112218      -0.01283860       0.02359758
H        8.92058203       0.16754493       5.06384836       0.01338896      -0.00708864       0.01641980
H        7.31267050      -0.37676056       4.59766263       0.01470602      -0.01206714       0.02214521
H       10.22187557       0.85493951       3.41388238       0.00421256      -0.00043210       0.01210314
O        3.94224639       1.13021618       4.14486272      -0.00261950       0.01382613       0.00187314
N        3.24037930       2.23142683       2.25767578      -0.00943056       0.00672635       0.00073874
C        2.88487815       1.03572235       1.53476622      -0.00015026       0.00399888       0.00119805
C        2.83126683       3.49768659       1.69227926      -0.01711143       0.00330741      -0.00159088
C        3.61946613       2.15061441       3.55525359      -0.00847211       0.01172590       0.00035864
H        3.37749528       1.01297798       0.55873454      -0.00363003       0.00993177      -0.00065586
H        1.80296243       1.00291417       1.37147674      -0.00022286      -0.00581713       0.00422311
H        3.18716888       0.17177025       2.11897700       0.01006804       0.00531819      -0.00208732
H        3.24923086       3.59958969       0.68686534      -0.01749527       0.00405860      -0.00150412
H        3.21786446       4.30606282       2.31190635      -0.02298042       0.00663804      -0.00269535
H        1.74337935       3.59110116       1.65540979      -0.01738542      -0.00337320      -0.00181054
H        3.66774772       3.14421528       4.02382538      -0.01368887       0.01218879      -0.00088120
O        7.13258177       4.49505068       2.22554564      -0.00412428       0.00000814      -0.02769434
N        5.55153868       5.42885388       3.57603247      -0.00100610       0.00924122      -0.01521716
C        5.46852326       6.63854343       2.79850841      -0.01436762       0.00976033      -0.01225406
C        4.84596710       5.38902971       4.83183283       0.01180603       0.00624501      -0.00583865
C        6.46732614       4.49627619       3.24790951      -0.00738031       0.00519414      -0.02301240
H        5.73073163       7.49877629       3.41848075      -0.01587809       0.00893587      -0.01293859
H        4.46551172       6.78038478       2.39782037      -0.01846942       0.00721502      -0.00135051
H        6.17950418       6.57721470       1.98011354      -0.02202368       0.01918910      -0.02089927
H        5.22806087       6.15572537       5.51012136       0.01411448       0.00917768      -0.01547939
H        4.99132064       4.41739723       5.30045417       0.02852008       0.01103467      -0.00652227
H        3.77281869       5.53667293       4.67489485       0.01221216      -0.00154834       0.00521802
H        6.53580566       3.70044449       4.00702870      -0.01203173      -0.00170213      -0.02575219
O        8.53235880       0.05133266       9.67234164      -0.01355261      -0.00126158      -0.00824544
N        7.83381506       1.42881849      11.40648295       0.00196040      -0.00219624      -0.00169155
C        9.12995126       2.10118853      11.60886142       0.00678116      -0.01314884      -0.00161583
C        6.71925686       2.24698145      11.89236283       0.01084392       0.00437257       0.00705071
C        7.57568797       0.92191197      10.09534705      -0.00614415       0.00396967      -0.00193125
H        9.29458478       2.23257860      12.67483159       0.01040128      -0.02389273      -0.00149769
H        9.11061347       3.06525696      11.08949286       0.01173737      -0.00915602       0.00707445
H        9.92114292       1.48532757      11.18985836       0.00012395      -0.01485462      -0.01038320
H        6.83710762       2.41663072      12.95865571       0.03485823       0.02200479       0.00188404
H        5.78185767       1.72211855      11.70808819       0.00719249       0.00072683       0.03521591
H        6.70750002       3.21515061      11.37920014      -0.00025797      -0.00343335      -0.00816622
H        7.13271716       1.55986962       9.33665534      -0.00583332       0.00885301       0.00154914
O        7.87266745       5.90187650       5.33086134      -0.00035787      -0.00333130      -0.00309011
N        8.55107260       3.89850925       6.19963188       0.00492688      -0.00036037      -0.00150329
C        7.36064762       3.71769471       6.99233389       0.00494923      -0.00387646      -0.00327877
C        9.69659122       3.07281715       6.52966350       0.00739093       0.00417428      -0.00050183
C        8.73456573       5.04946226       5.50440804       0.00135612      -0.00030863      -0.00267780
H        7.62696425       3.68331579       8.05194406       0.00401473      -0.00136346      -0.00319523
H        6.83221424       2.79804594       6.72088766       0.00867729      -0.00592977      -0.00279017
H        6.71157535       4.57504234       6.83890348       0.00178218      -0.00679106      -0.00513983
H       10.06413907       3.31302620       7.53227975       0.00811910       0.00945675      -0.00237739
H       10.49332065       3.24544424       5.80884522       0.00482503       0.00265259      -0.00324991
H        9.41600761       2.01936208       6.50519604       0.01002279       0.00350896       0.00403058
H        9.74926306       5.11969091       5.08774335       0.00160682       0.00289292      -0.00141525
O        0.42797112       7.43662258      -0.58522381       0.00079590       0.01214099      -0.00687432
N        1.12028857       8.15717268       1.46110935      -0.00644787       0.00733531      -0.00329715
C        1.25623570       9.52850042       1.02123555      -0.00584784       0.00850089       0.00074366
C        1.59658827       7.81230084       2.78490963      -0.00909568       0.00429554      -0.00336051
C        0.69973207       7.21117668       0.59104407      -0.00324246       0.00955097      -0.00659239
H        2.27624472       9.74640436       0.69855172      -0.00633335       0.00858090      -0.00034349
H        1.02670249      10.19687861       1.85017875      -0.00400901       0.00573449       0.00334173
H        0.56507221       9.70263258       0.19915218      -0.00687054       0.01219686       0.00244087
H        2.68733500       7.88663897       2.83238323      -0.00997642       0.01022593       0.00007849
H        1.27267358       6.80054700       3.03945152      -0.00396234       0.00122470      -0.00844631
H        1.18497152       8.50958323       3.51681584      -0.01503295      -0.00160947      -0.00148961
H        0.60910288       6.21633797       1.05364958      -0.00448011       0.00854039      -0.00886834
O        6.15806125      10.80701582      10.22922391      -0.01532660       0.00600982      -0.00274840
N        4.22780207       9.66074932      10.57317458      -0.00591114      -0.00943926      -0.00584297
C        4.86745025       8.51414465      11.19717134       0.00548142      -0.00960189      -0.01727788
C        2.79482210       9.60316683      10.36749917      -0.00635701      -0.01971346       0.00091799
C        4.89420889      10.70482191      10.15564268      -0.01489073      -0.00272042      -0.00089118
H        4.93958935       7.69820963      10.47580376       0.00639586      -0.00370950      -0.02371189
H        4.25681062       8.20328279      12.04002684       0.01277632      -0.01928240      -0.01577598
H        5.85192038       8.78864153      11.56019072       0.00572136      -0.00500204      -0.02157287
H        2.55791903       8.85339556       9.61054458      -0.00431028      -0.02096978       0.00163835
H        2.45658511      10.57156052      10.01444356      -0.01439004      -0.02173433       0.00351872
H        2.29495891       9.33151596      11.29681148      -0.00024519      -0.02420352       0.00288087
H        4.30171786      11.50444942       9.71001968      -0.02142385      -0.00468710       0.00398348
O        2.87658327      10.99663640       7.32340208       0.02177072       0.00285739       0.01242316
N        4.34041880       9.32269220       6.78098431       0.01383810       0.00310218      -0.00800239
C        3.31480430       8.31179811       6.64846709       0.01128227       0.00517280      -0.00311337
C        5.71977578       8.92435666       6.57342109       0.01167645       0.00186420      -0.01955578
C        4.00564681      10.59770950       7.07129602       0.01889443       0.00176805       0.00117061
H        3.47999167       7.49622363       7.35809925       0.01551402       0.00313304      -0.00653192
H        3.32516559       7.89139037       5.64066148       0.00279693       0.00777540      -0.00408542
H        2.34724893       8.76988765       6.83755682       0.01352960       0.00615457       0.00541177
H        5.99860362       8.13302183       7.27467591       0.01643667       0.00009173      -0.02380180
H        6.37958564       9.77559320       6.72583325       0.01364224       0.00070754      -0.02250217
H        5.87881245       8.55741300       5.55855269       0.00291803       0.00446165      -0.02165526
H        4.88414178      11.26573170       7.06974974       0.02036858      -0.00022018      -0.00218001
O        8.91923726       5.77984775       8.29926983       0.02073991      -0.02793100       0.02099860
N        9.39441227       6.40565255      10.43664212       0.01063731      -0.00739688       0.01622686
C        8.12100124       7.06064080      10.62434822       0.00310589      -0.02038132       0.01163554
C       10.37207921       6.49134809      11.50255547       0.00747020       0.00936157       0.01763237
C        9.68723168       5.85221631       9.24360989       0.01700068      -0.01222247       0.02074707
H        8.27674836       8.11094521      10.86367497      -0.00896163      -0.01541805      -0.00181012
H        7.56854192       6.60599213      11.44992021       0.01197015      -0.01705611       0.01921988
H        7.55779227       6.97841664       9.69783062       0.00179228      -0.03952724       0.01441818
H       10.72626007       7.51441945      11.63344712      -0.00852224       0.01513010       0.01535525
H       11.23209481       5.86963453      11.26407197       0.01741710       0.02259825       0.01947851
H        9.93373524       6.14294259      12.44002759       0.01135086       0.00461420       0.01747707
H       10.71377399       5.45128390       9.20204818       0.02249485      -0.00112987       0.02669951
O        8.67980793      10.48239805       4.67220258       0.01050365       0.00437689       0.01255178
N       10.61037838       9.36709166       4.18587500       0.00109375      -0.00818244       0.00641176
C       11.31196303      10.55267754       3.75464851       0.01069202      -0.01286167       0.01008141
C       11.28667052       8.09341870       4.06170050      -0.00889726      -0.01316736       0.00305140
C        9.30842011       9.44184195       4.54218584       0.00230443       0.00128162       0.00830293
H       11.64925454      10.43081614       2.72342264       0.00453743      -0.01023705       0.00786996
H       12.18001858      10.75956208       4.38649919       0.01597831      -0.02640926       0.00720742
H       10.62266037      11.39245872       3.80277407       0.01990807      -0.00594711       0.01814300
H       11.60037403       7.91812185       3.02921175      -0.01009060      -0.01252821       0.00287691
H       10.62910545       7.28537387       4.36964778      -0.01576945      -0.00818476       0.00025864
H       12.16934115       8.05282753       4.70324859      -0.00993592      -0.02292464       0.00337958
H        8.86801462       8.44864329       4.72139839      -0.00419408       0.00338101       0.00631760
