132
Lattice="14.107769660797414 0.0 0.0 0.0 14.107769660797414 0.0 0.0 0.0 14.107769660797414" Properties=species:S:1:pos:R:3:forces:R:3 energy=-357358.21875 stress="0.000528107862919569 0.00018385877046966925 -5.4846092098159716e-05 0.00018385877046966925 0.0005033622728660703 -3.5999752071802504e-05 -5.4846092098159716e-05 -3.5999752071802504e-05 0.00040331523632630706" pbc="T T T"
Nb       3.08476074      13.06200383       4.67530006       0.01344571      -0.01044270      -0.00401151
Nb      12.07588407      13.64548219      11.01954735      -0.00848234       0.00055933       0.00654604
S       13.77234841       8.72461837       9.40790696      -0.00462568       0.01717418       0.00183699
S       15.43208539       9.26155270       8.53434747       0.01748377      -0.04535353       0.00930798
S        6.88314344       6.67134724      10.21327750       0.00025973       0.02422971       0.01182466
S        5.52504233       5.35282038       9.93177863       0.02232842       0.00577676      -0.00936048
S        5.19875039      12.29028964       5.40058905       0.01240271      -0.01377465       0.00646384
S        3.81585013      12.67189758       6.90946325       0.00548749      -0.02955603       0.00306854
S        1.89982587      11.49372915       3.75526288      -0.01065010       0.02763903      -0.03618339
S        1.28048303       9.44248290       6.62321558       0.01147960       0.03358118       0.01768911
S        2.87613120       1.94399126       2.03818752       0.00614730       0.02769470       0.02120125
S        3.24755190       1.04564920       3.74429732       0.03038192      -0.03160751      -0.02126873
C       10.41037146      11.96768933      10.86578975      -0.00781198      -0.00091111       0.00326921
C        8.97573331      11.51015332      10.67573616      -0.00734669       0.00068223       0.00423932
C       11.43804610      10.86590333      11.06354792      -0.00898965      -0.00044104       0.01109232
C        7.93710425      12.62373028      10.59582971      -0.00474047      -0.00029767      -0.00678066
C       12.81442301      11.44912798      11.31770044      -0.00852656      -0.00013101       0.01044598
C        6.52712419      12.07027194      10.43097772      -0.00790036       0.00755061      -0.00951174
H       10.66647509      12.60990949       9.95642829      -0.00504833      -0.00232570       0.00338048
H       10.40967175      12.68644894      11.75191720      -0.01077849       0.00126788       0.00266400
H        8.72723425      10.83899601      11.50807891      -0.01055484       0.00176547      -0.00148258
H        8.93024259      10.89347711       9.76919938      -0.00529991      -0.00205858      -0.00144824
H       11.14372673      10.23185465      11.90912181      -0.01072701       0.00285208       0.01021570
H       11.46962470      10.22179653      10.17631750      -0.00814551      -0.00312774       0.01056772
H        7.98878843      13.23714988      11.50204585      -0.00680541       0.00356603      -0.00373349
H        8.17196718      13.29001014       9.75965591      -0.00325727      -0.00115435      -0.00425965
H       13.23471111      12.01587272      10.42409117      -0.00695413      -0.00233269       0.01030272
H       13.61578712      10.73169414      11.50087405      -0.00929737       0.00116494       0.01611979
H       12.84627437      12.11607456      12.23595319      -0.01186240       0.00285342       0.00935233
H        6.44258667      11.47869358       9.51737435      -0.00384349       0.00236127      -0.00661969
H        6.26664052      11.42229778      11.27043241      -0.00947546       0.00080395      -0.00452301
H        5.78597045      12.86752027      10.37961786      -0.00199755       0.00058220      -0.00939835
C        7.20615986       2.93576673      12.25986012      -0.00243136      -0.00110465       0.00459120
C        7.83186491       4.18545167      12.86768801      -0.00037736      -0.00002599       0.00410587
C        5.83230542       2.62063643      12.84236743      -0.00301477      -0.00189841       0.00923792
C        9.18545311       4.55265104      12.27024180       0.00047916      -0.00188199       0.00292826
C        5.19106867       1.38123711      12.23279312       0.00400203      -0.00228730       0.00185779
C        9.76100690       5.83002904      12.86773941      -0.00084934      -0.00033051       0.00115377
H        7.10980279       3.07756417      11.17657049      -0.00380884      -0.00384564       0.00730035
H        7.87660508       2.07735250      12.40256977      -0.00266947      -0.00187889       0.00855892
H        7.92980555       4.05554823      13.95231174       0.00016044       0.00302877       0.00331160
H        7.14529686       5.02633725      12.71853223       0.00006685       0.00064701       0.00175417
H        5.90976406       2.49615925      13.92667347      -0.00321651      -0.00091811       0.00598207
H        5.17826055       3.48410657      12.68370663      -0.00314522      -0.00202465       0.00623040
H        9.88751061       3.72387800      12.41075796      -0.00044917      -0.00115955       0.00293929
H        9.06817806       4.68299500      11.18949318       0.00033052      -0.00197731       0.00177154
H        5.05139636       1.50246964      11.15612235       0.00085140      -0.00205331       0.00827512
H        4.21799525       1.17446794      12.67986214      -0.00340629      -0.00528077       0.00639366
H        5.81953397       0.50037127      12.38675249       0.00028950      -0.00113297       0.00632031
H        9.08565124       6.66953988      12.68806724       0.00177927      -0.00116046       0.00014035
H        9.89308216       5.73526128      13.94821693      -0.00029700       0.00001925       0.00212613
H       10.73005966       6.08254898      12.43377811       0.00173214      -0.00197491       0.00183177
C       10.43759897       9.94142406       6.52173274      -0.00593621       0.00305513      -0.00494933
C       10.66992431       8.45818573       6.78555240       0.00971687      -0.00266230       0.00539482
C       11.71091787      10.70107305       6.16945583       0.01155251      -0.00303300       0.00010495
C        9.40830064       7.70968923       7.20057835      -0.00807416       0.00306024      -0.00507504
C       11.46920370      12.17572140       5.87716629      -0.00851034       0.00144869       0.00798338
C        9.65776313       6.23786260       7.50101065       0.00536155       0.00128013      -0.00341775
H        9.70301837      10.05844738       5.71474329       0.00558800       0.00190548       0.00394019
H        9.97899371      10.39912393       7.40852383       0.00353953      -0.00069326       0.00083914
H       11.43841871       8.34643359       7.55934255      -0.00259034      -0.00101233      -0.00599942
H       11.08547751       7.99414583       5.88281864      -0.00117017      -0.00081670      -0.00377110
H       12.42901595      10.59582419       6.98945682       0.00088941      -0.00070875      -0.00035566
H       12.19148696      10.23250392       5.30543208       0.00227904       0.00047997       0.00266168
H        8.97021952       8.18641116       8.08372802       0.00204810       0.00256979      -0.00036532
H        8.65568563       7.79945448       6.41030234       0.00112960       0.00426920       0.00279716
H       10.76387544      12.30156045       5.05178404       0.00551498       0.00094513       0.00214180
H       12.39370603      12.68650238       5.60615379       0.01107445       0.00173987      -0.00113808
H       11.04380141      12.68614290       6.74641370       0.00777089      -0.00268035      -0.00498118
H       10.06130271       5.72312805       6.62545540      -0.00911658       0.00097229      -0.00167082
H       10.37911546       6.12199544       8.31291671      -0.00615251      -0.00130504      -0.00539465
H        8.74007919       5.73241920       7.80501737      -0.01022071       0.00201727       0.00058740
C        5.77600018       7.75121931       4.63034855       0.00277096       0.01147817      -0.00467286
C        5.25622651       7.88510601       3.20481627      -0.00511944      -0.00682822      -0.00277981
C        4.78685988       8.24119481       5.68069919       0.00897312      -0.00768374      -0.00064719
C        6.23091492       7.35963599       2.15717967       0.00888318       0.00600602      -0.00613421
C        5.33982182       8.15489500       7.09489517      -0.00110984       0.01132375      -0.00066590
C        5.72644590       7.52456782       0.73021637      -0.02168259       0.00735833       0.00472566
H        6.03330137       6.70384213       4.83011144       0.00577617      -0.00168478      -0.00231060
H        6.71169547       8.31595939       4.72495058       0.00032344       0.00337905      -0.00580569
H        5.03000693       8.93815602       3.00326210      -0.00320858       0.00248039      -0.00319543
H        4.30345268       7.35087828       3.11407874       0.00453985       0.00001529      -0.00118549
H        4.50583360       9.27323475       5.45248548       0.00188872       0.00641799      -0.00377513
H        3.86537521       7.65471116       5.60757732       0.00533983       0.00191802       0.00188368
H        7.19074096       7.87611022       2.27188064      -0.00425294       0.00292781      -0.00470906
H        6.43356445       6.30215290       2.35712733       0.00287691       0.00216636      -0.00372466
H        5.60702433       7.13236335       7.36765735       0.01177178       0.00136244      -0.00148807
H        4.61415779       8.49903717       7.83386946       0.01851602       0.00426526      -0.00499605
H        6.23664126       8.76736155       7.20948704       0.01376992       0.00703906      -0.00902868
H        4.78823827       6.98491747       0.58429776       0.00735812       0.00247362      -0.00324844
H        5.53533725       8.57626078       0.50511592      -0.00213185      -0.00323334      -0.00296534
H        6.43923978       7.15346196      -0.00699455       0.00851235      -0.00096468      -0.01276986
C       11.35704735       9.88227871       1.43821525       0.00014082      -0.00224185      -0.00830773
C        9.94078950      10.25418638       1.85828429      -0.00048855       0.00068232       0.00434738
C       11.94107119       8.72789689       2.24440409      -0.00123397      -0.00129008       0.00435293
C        9.34196627      11.39699621       1.04615197       0.00098266       0.00107267      -0.00403109
C       13.37457082       8.39792302       1.85423270       0.00731179       0.01482950       0.00430478
C        7.92714334      11.75637413       1.48049012      -0.00055370      -0.00276743       0.00130042
H       11.36241723       9.61599446       0.37309742       0.00082314       0.00093855       0.00360739
H       12.00882749      10.75813199       1.53845708       0.00133052       0.00229460      -0.00053466
H        9.93936530      10.52561929       2.92061638      -0.00058973      -0.00057085      -0.00302467
H        9.29242897       9.37429381       1.77146107       0.00033800      -0.00025439      -0.00149124
H       11.89962609       8.97963762       3.30872777       0.00074370      -0.00044751      -0.00263274
H       11.30532026       7.84524110       2.11568907       0.00105676       0.00073868      -0.00085048
H        9.99067228      12.27609641       1.12949814      -0.00025529      -0.00015759      -0.00053022
H        9.34102273      11.11767505      -0.01451515       0.00073261       0.00064768      -0.00024319
H       13.43994829       8.12842036       0.79798379       0.00157173      -0.00079719      -0.00479715
H       13.76694143       7.56346263       2.43664443       0.00190737      -0.00203218       0.00201248
H       14.02992774       9.25435709       2.02151562      -0.00495906      -0.00688025      -0.00123160
H        7.25887621      10.89824288       1.38334698       0.00062899       0.00039786      -0.00172870
H        7.90637088      12.06775182       2.52678963      -0.00074127      -0.00001607      -0.00291020
H        7.51464969      12.57141130       0.88410381      -0.00079972       0.00099103      -0.00335282
C       10.87613207       3.09281836       4.61338682       0.00127615      -0.00421986      -0.00910002
C        9.45787410       2.62853144       4.92927357      -0.00366798      -0.00497568       0.00613105
C       11.84493995       2.92832993       5.78035611      -0.00125946      -0.00206116       0.00053918
C        8.49164116       2.76695155       3.75603659      -0.00499302       0.00948147      -0.00390178
C       13.25614047       3.41001857       5.46590024       0.00077161      -0.00555725      -0.01357980
C        7.07481119       2.31324468       4.08534994       0.00737715      -0.01774582       0.01693450
H       11.25741785       2.53793180       3.74824553      -0.00564586       0.00060000      -0.00195351
H       10.85366721       4.14625829       4.30881169      -0.00287174      -0.00162673      -0.00103830
H        9.07218636       3.19831633       5.78289491       0.00045316      -0.00509903      -0.00139806
H        9.48394467       1.58098995       5.25247043      -0.00067764      -0.00188535      -0.00230289
H       11.45642739       3.47554024       6.64587567       0.00364172      -0.00662941      -0.00572944
H       11.87185571       1.87437591       6.07623813       0.00099874      -0.00493026      -0.00668623
H        8.47639406       3.81208563       3.42703689      -0.00119046      -0.00630176       0.00310962
H        8.87552390       2.19058734       2.90742990      -0.00240080      -0.00217852      -0.00189847
H       13.69718241       2.85767938       4.63350657      -0.00060857      -0.00345008      -0.00420652
H       13.91772496       3.29232659       6.32564745       0.00230868      -0.00354856      -0.00481382
H       13.25456575       4.46749844       5.19289996       0.00043402      -0.00470176      -0.00829634
H        7.05448526       1.26535595       4.39350464      -0.00249620       0.00836292      -0.00189172
H        6.65722698       2.89956661       4.90619333      -0.00084439      -0.00138985       0.00247850
H        6.40040132       2.41802915       3.23474510      -0.00936252       0.00032099      -0.00631019
