146
Lattice="12.040313084790537 0.0 0.0 0.0 12.040313084790537 0.0 0.0 0.0 12.040313084790537" Properties=species:S:1:pos:R:3:forces:R:3 energy=-357419.53125 stress="0.003282527206465602 -0.0011320040212012827 -6.834848136350047e-06 -0.0011320040212012827 0.003014508169144392 0.0006598261243198067 -6.834848136350047e-06 0.0006598261243198067 -0.00111383106559515" pbc="T T T"
Nb       6.06111699      12.25783976      10.54500265      -0.01194077       0.01545295      -0.00693423
Nb       4.07631947      12.15209758       0.15915158      -0.00635310       0.00672793      -0.00111721
P        6.35044577       2.72795505      11.77257394      -0.00924492       0.01624209      -0.00874063
O        6.48511325       3.13220619      13.18292586      -0.00168507       0.02281353      -0.01321048
O        6.28424453       3.78298648      10.71567013      -0.02141064       0.01269177      -0.01424086
O        4.97267647       1.79704870      11.50367499      -0.00755374       0.00915202       0.00119774
O        7.31470663       1.52645761      11.34176601      -0.00813487       0.01810977      -0.01184240
H        7.59488140       5.02187113      13.11135423       0.00029051      -0.01450405      -0.00229701
P        5.31093969       6.26831478       6.80230920       0.00375178       0.00521439      -0.00313181
O        4.76298435       4.94586321       7.54435049       0.00658023       0.00740743       0.00283206
O        6.64951576       6.72087388       7.69321393       0.00470796       0.01121479      -0.00658259
O        4.44020726       7.42883222       7.14429688       0.00208610       0.00601566      -0.00578064
O        5.72103314       5.86806120       5.44121945       0.00187583       0.00095689      -0.00171006
H        4.23084851       5.19911164       8.30584816       0.00843138       0.00865471       0.00365530
P        8.51723910       5.30161109       8.61818462      -0.00201043       0.00452408      -0.00356823
O        8.10172705       6.23199405       9.79545739       0.00142390       0.00587334      -0.00359848
O        9.97424527       5.14398360       8.39907945      -0.00030622      -0.00343652      -0.00348218
O        7.90234031       6.03546220       7.31458888       0.00380445       0.00802385      -0.00399549
O        7.75210631       3.97597001       8.77967752      -0.00637516       0.00707969      -0.00603947
H        8.77889932       6.64627396      10.36663658       0.00086680       0.00016484       0.00120142
P        8.74155701       6.93131145       1.05309058       0.02788794      -0.02182332       0.00901258
O        9.26982772       7.54787373      -0.32348714       0.01111387      -0.00598133       0.00292030
O        7.85309539       5.76298918       0.49488367       0.01667592      -0.01812258      -0.00062880
O        7.76413659       8.01747223       1.62335833       0.02233323      -0.02352457       0.02205344
O        9.84691131       6.53694626       1.93560582       0.02295555      -0.02561843      -0.01425156
H        9.48709368       8.52704203      -0.28214796      -0.00578558      -0.00110784       0.00428043
P       11.62143913      12.03802385       4.17941445       0.00995636       0.00968623       0.00222141
O       10.90569252      10.73682600       4.85441056       0.00325465       0.01505989       0.00531027
O       12.17964588      11.61099606       2.83166327       0.00670481       0.00584584       0.00250006
O       12.88396099      12.30290783       5.13694858       0.01162004       0.00578806       0.00132847
O       10.66105467      13.15384511       4.26880153       0.01506317       0.01564670       0.00187239
H       11.46699088       9.94133400       4.90847518      -0.00182672       0.01097399       0.00264767
O        5.44689878       7.97923965      12.32011017       0.02397895       0.00148231       0.00577918
C        5.19880463       7.14173133      11.17856712       0.00241973       0.00184438       0.01029799
H        5.92034461       7.32568959      10.38154971      -0.01596215       0.00661387      -0.00516695
H        4.18401815       7.29613293      10.80439804      -0.00607306      -0.00083869       0.03328199
H        5.31653966       6.10766144      11.49071079       0.01327171       0.00145870       0.00546858
H        6.89303614       8.01055933      13.18150938       0.02348672      -0.01426207       0.02157725
O        5.74136408      10.23074370       9.82510850      -0.01683623       0.01522410       0.00646593
C        6.42193900       9.60580538       8.68472345      -0.02082133       0.00224672       0.01261544
H        5.68293156       9.12396104       8.04656570      -0.02355230       0.00292797       0.01477543
H        7.11784220       8.85869104       9.05907351      -0.02462836       0.00111532       0.01802169
H        6.96296862      10.38791283       8.15669626      -0.01576354      -0.00435829       0.00743525
H        4.90598806       9.80568355      10.05921006      -0.00567216       0.00723010       0.03282964
O        0.37997173       4.92971768       7.11170276       0.00138047       0.00702453      -0.00497691
C        0.98913288       3.65151317       7.20183454      -0.00824919       0.00103599      -0.01817534
H        0.39318871       2.86653788       6.72815181      -0.01391768       0.01029274      -0.02643245
H        1.18958845       3.36874283       8.24011076      -0.01085971      -0.01116807      -0.02091861
H        1.94494654       3.71298394       6.68183910      -0.00759730      -0.00110731      -0.01738253
H       -0.51335760       4.89085853       7.48707128       0.00027454       0.00852342      -0.00804111
O        9.14887450      10.46317906       7.03822346       0.00093281       0.00721025       0.00989747
C       10.12810581       9.87376304       7.86289025       0.00005758      -0.00081486       0.00550473
H       10.23623368       8.79663504       7.67634261       0.00004354       0.00090861      -0.00425549
H        9.82881025      10.00289928       8.90484935      -0.00145189      -0.01037289       0.00645450
H       11.10618758      10.34431758       7.72857615       0.00050479       0.00028569       0.01112815
H        9.58135850      10.65976522       6.18789638       0.00052507       0.01105145       0.01054290
O        4.64076299       9.40073585       2.99591123       0.00433475      -0.00655133      -0.00152078
C        4.98208045       8.15094131       3.64234887       0.00173023      -0.00086981       0.01214416
H        4.26464328       7.41120504       3.29773801      -0.00190768      -0.00211602       0.02247401
H        4.90340313       8.23787020       4.72466232       0.00419986       0.01122819       0.01152158
H        5.98675289       7.82716281       3.38033650       0.00015950      -0.00737444       0.01345810
H        3.62966933      10.33649358       4.12304187       0.00218642      -0.00506175      -0.00355482
O        2.24339657       3.50651958       1.66816135      -0.00574756      -0.00737453      -0.02543053
C        3.05495966       4.63429469       1.38128416      -0.00221801      -0.00591803      -0.00994663
H        4.07736634       4.41514134       1.69438938      -0.00464362      -0.00751001      -0.00194797
H        2.70301735       5.52516487       1.90818078      -0.00749311      -0.00918528      -0.00814697
H        3.06897493       4.84828936       0.30591370       0.00835826       0.00089308      -0.00868422
H        1.32842267       3.81664157       1.81501372      -0.00424293      -0.00577282      -0.01491677
O        3.16600937      10.88843370       4.78439519       0.00366491      -0.00504932      -0.00243205
C        3.78671474      10.74185626       6.05347907       0.00817725      -0.00181430      -0.00391763
H        3.14267217      11.23960473       6.77875860       0.00964475      -0.00128941      -0.00274074
H        4.76888573      11.22719272       6.07907350       0.00760460      -0.00004715      -0.00792678
H        3.89646820       9.69193350       6.33971958       0.01035937      -0.00121671      -0.00213556
H        1.62127446      11.78368133       4.85529832       0.00931907       0.00212713       0.00129366
O        8.09956075       6.61233358       4.35827751       0.00224262      -0.01250780      -0.00668436
C        9.26418548       5.89101205       4.66119184       0.00306606      -0.00949824      -0.00156280
H        9.26046274       4.88356450       4.22428920       0.00651843      -0.01053017       0.00079212
H        9.43703691       5.78717712       5.73705714      -0.00017783      -0.00669442      -0.00068700
H       10.10199599       6.42962020       4.22422967       0.00329217      -0.00867039      -0.00040394
H        7.32855066       6.24687334       4.83626741       0.00236776      -0.00852807      -0.00365463
O       11.88249706       4.49998124      10.43361129       0.00627887      -0.01731372      -0.00667040
C       12.43876213       5.80765731      10.55343991       0.00045158      -0.01472291      -0.00250294
H       13.04489559       6.06073942       9.67852373       0.00112456      -0.01070482      -0.00108141
H       13.05505527       5.82562110      11.44933240      -0.00141038      -0.01403003      -0.00122452
H       11.65483258       6.55815362      10.67166690      -0.00315991      -0.01834565      -0.00280263
H       11.21309888       4.54265074       9.72884403       0.00617673      -0.01819034      -0.00611520
O        7.10555959       2.37388531       6.16090368      -0.02444652      -0.00572771       0.00023353
C        7.47307967       2.58483291       4.80129000       0.00434712      -0.00719934       0.00766850
H        7.02460278       3.50111140       4.40363626       0.01854980      -0.00382590      -0.00074717
H        7.08455713       1.73430049       4.24160855       0.00977193      -0.00412974      -0.00088125
H        8.55727151       2.59206770       4.66380480       0.00691289      -0.01444066       0.02885570
H        7.38883728       3.12915347       6.68547015      -0.02097857      -0.01226309       0.00815749
O        0.12310065       8.21213466       5.43728784      -0.00512618       0.00688669      -0.00503069
C        1.29433082       7.98228050       6.22676402       0.00131974       0.00983786      -0.01376951
H        1.36300456       6.93947719       6.53367237       0.01190898       0.00801891      -0.02236196
H        1.29899034       8.61957080       7.11668695       0.00153834       0.00270930      -0.00852305
H        2.15969870       8.23327509       5.61976749      -0.00490454       0.02289553      -0.01728615
H       -0.56975951       7.62124955       5.74378968      -0.00074290       0.00315457      -0.00183948
O        4.90233854      -0.02995835       1.84500925      -0.00466748       0.00542264      -0.00195757
C        4.46736026       1.11611165       2.61044739      -0.00017649       0.00464736       0.00207508
H        5.31775486       1.77210575       2.78004332       0.00281048       0.00059956       0.00459452
H        4.01396794       0.75123042       3.53050638      -0.00074036       0.00327979       0.00128019
H        3.70079178       1.70156550       2.07085931       0.00217217       0.00887147       0.00374061
H        5.42267205      -2.08423094       2.94078309       0.00242859      -0.00314851       0.00775297
O        9.45979160      10.17651677      11.65256003      -0.01405817      -0.00665665       0.01448845
C        8.12494595      10.48997198      11.47285341      -0.01246101       0.00916582       0.02201176
H        7.54400590       9.57920528      11.33172680      -0.02445717       0.01543835       0.02920803
H        8.00040867      11.08882409      10.52367260      -0.00971873       0.00852565       0.02142394
H        7.69489057      11.05477126      12.31688958      -0.00004770       0.01852085       0.02124308
H        9.98751884      10.92401518      12.15334324      -0.00488175      -0.01077694       0.00878222
O       12.40510532       7.48759157       1.54458451       0.02265304       0.00569856      -0.00425914
C       12.02337433       8.77075040       2.01108545       0.01552579      -0.00062162       0.00650087
H       12.84371323       9.21621103       2.56700405       0.01662377       0.00128469       0.00473174
H       11.16077789       8.72355069       2.67701519       0.02032882      -0.01016055       0.01192704
H       11.77273049       9.44270803       1.18120410       0.00571863       0.00351858       0.01264924
H       11.59272200       6.95896601       1.55402283       0.02535175      -0.00133681      -0.00561324
O       10.81366401      -0.08326100       0.75432327       0.00193861      -0.00452310       0.00072625
C       10.29260330       1.23667987       0.94069177      -0.00632784      -0.00692213      -0.00311484
H        9.96079491       1.62382605      -0.02221721      -0.01364015      -0.01407024      -0.00350350
H       11.06891037       1.88312080       1.35208853      -0.00946176       0.00124857      -0.00971174
H        9.45764418       1.24398275       1.64480650      -0.00337964      -0.00941224       0.00059247
H       11.33467409      -0.29990875       1.61967658       0.00374589       0.00114344       0.00076827
O       -0.20925193       4.31688846       2.53451551       0.00466082      -0.00240219      -0.00894815
C        0.05409664       4.28665019       3.94054703      -0.00204939      -0.01333500      -0.00845349
H        0.18028439       5.29384548       4.34058002      -0.00391680      -0.01671976       0.00096661
H        0.98389577       3.73592594       4.07121190      -0.00265035      -0.01493502      -0.00825944
H       -0.72951006       3.75385167       4.48050040      -0.00392896      -0.01878229      -0.01607853
H       -0.93845614       4.92683023       2.35942478       0.00510863       0.00054163      -0.00878446
O        5.43816316       0.86547529       8.93635014      -0.01815502       0.01578286      -0.00383100
C        4.76660912       1.93197225       8.28944235      -0.03009598       0.00903782      -0.00289718
H        3.72427168       1.65260834       8.12874474      -0.02660349      -0.00294901      -0.00414671
H        5.27088127       2.11667595       7.34285739      -0.03149903       0.01618832      -0.00222602
H        4.83019335       2.81656987       8.91803241      -0.04105232       0.00842410      -0.00084746
H        7.11655150       3.88526804       9.61698348      -0.01323576       0.01153359      -0.01194163
O        3.60589640      10.35450571      -0.37027333       0.00758077       0.00334147      -0.00503881
C        2.51164672       9.91191727       0.47245185       0.00523001       0.01717958      -0.00244161
H        2.89194244       9.23993821       1.24014791      -0.00542368      -0.00315949      -0.01551306
H        1.77338497       9.40393690      -0.14554805      -0.01382962       0.04802655      -0.00363567
H        2.01049191      10.75336723       0.97902682       0.02900924       0.02032989       0.01690345
H        4.94367709       8.79671195       0.20189691       0.01045917      -0.00527352       0.02368348
O        1.97021795       2.71976109      10.55657358       0.00407404      -0.01878905      -0.02552679
C        1.87308517       1.50529135      11.21640970       0.00856715      -0.00889057      -0.00852397
H        0.86199633       1.08891531      11.28133188       0.00684667       0.00240462       0.02616928
H        2.22662537       1.59439731      12.27522863       0.03573401       0.00444042      -0.01750660
H        2.46860693       0.76065436      10.63576358      -0.01161974      -0.02187215      -0.01143219
H        1.13609487       3.23154704      10.63048590       0.00885545      -0.01189116      -0.01610398
