147
Lattice="17.244959723135807 0.0 0.0 0.0 17.244959723135807 0.0 0.0 0.0 17.244959723135807" Properties=species:S:1:pos:R:3:forces:R:3 energy=-1926977.25 stress="-0.0008472808403894305 -0.00023977746604941785 -6.517918154713698e-05 -0.00023977746604941785 -0.0008983260486274958 0.0001258574629900977 -6.517918154713698e-05 0.0001258574629900977 -0.0007865937659516931" pbc="T T T"
Nd       5.70025761      15.92111696       8.55598292      -0.00740981      -0.00376815       0.00510484
Nd       1.21661929      14.53045998       4.49025710       0.01478776       0.00153336       0.01039760
S       12.72792274      16.00283950      10.38857591       0.01351868       0.01614637       0.00365051
O       11.97438072      16.84745725      11.33766660       0.00570440       0.00349951       0.00831616
O       14.01126494      15.59108137      11.00227754       0.01290011       0.01696837       0.00436068
O       11.92981047      14.80974522      10.04701532       0.02151227       0.01461315      -0.00854397
O       13.02444589      16.79024213       9.17103791       0.01125512       0.02900159       0.01106572
S        3.08339014      16.18630676       3.12888397       0.01937634      -0.00124234       0.00963020
O        1.85119505      16.48811052       4.08552803       0.01436269      -0.00010586       0.00347096
O        2.76649180      16.60744022       1.80555700      -0.00400257      -0.00009298      -0.01165259
O        4.28921838      16.60700777       3.75674760       0.00209320      -0.00057352      -0.01770902
O        2.91548683      14.60862690       3.24363495       0.01083677       0.00136077      -0.00146991
S        8.69880787      14.83858659       6.80209069      -0.01139890      -0.01393208       0.00618844
O        7.41187030      15.49619391       7.89642855      -0.01230985      -0.01329407       0.01430875
O        9.09859458      13.67755495       7.54976713      -0.00698090      -0.00133395      -0.00288951
O        7.92864407      14.59567053       5.60661548      -0.01437473      -0.00484145       0.01396608
O        9.59577225      15.95929864       6.77773485      -0.03004241       0.01224494       0.00172272
Cl      14.16857032      14.69733636      14.18770008      -0.00804716      -0.02074569      -0.00620271
Cl      12.13451835      13.65652530      15.96792816      -0.01227155      -0.00635207      -0.00375634
Cl      11.52919438      14.06970246      13.16953395      -0.01474708       0.00551778      -0.00175214
Cl      11.89717505      16.35090336      14.90113075       0.00828221      -0.00317740       0.00422224
C       12.42308840      14.69328238      14.54369750      -0.00674100      -0.00613385      -0.00147769
Cl      13.23598077      11.94518366       7.13333456      -0.00729877      -0.00288060      -0.01040509
Cl      15.58682527      11.08112913       5.63333801      -0.00554115      -0.01522119      -0.00481882
Cl      12.97878259      11.22185099       4.35044589      -0.00524300      -0.01897021      -0.00261825
Cl      13.54322942       9.18062599       6.32767216      -0.00657087      -0.00743407       0.00829698
C       13.80589596      10.86271208       5.87514725      -0.00572632      -0.00994450      -0.00051242
Cl       5.14351548       5.47876399       1.99167968      -0.00427186      -0.00321528      -0.01020315
Cl       6.71866640       6.20545768      -0.32120888      -0.00452915       0.00868510      -0.00494316
Cl       6.80081102       7.85068160       2.06343689      -0.00651854      -0.00248551       0.00259885
Cl       4.41319382       7.79545114       0.41822728      -0.00516263       0.00434068       0.00216687
C        5.77029668       6.83917661       1.03888117      -0.00510697       0.00170010      -0.00248224
Cl      13.40901354       4.17218635       0.55876583      -0.00935206      -0.00860873      -0.00900620
Cl      13.07277769       1.39284630       1.33742910      -0.01343217      -0.00213683       0.01021861
Cl      12.04203886       3.50529036       3.02471121      -0.01551020       0.01043154      -0.00799796
Cl      14.90298716       3.10001194       2.80169914      -0.01573795       0.00744393       0.00128603
C       13.35280090       3.03638010       1.93300366      -0.01367818       0.00160570      -0.00145957
Cl      15.74987937      14.21971256       6.19627663       0.00851439      -0.01671513      -0.00252996
Cl      16.29941176      16.72151390       4.88144529       0.01421769      -0.01038269       0.01314883
Cl      15.83307859      16.67070319       7.76099793       0.01102038      -0.02306922       0.00919899
Cl      13.63500893      16.20985138       5.95086009       0.01227766      -0.01348868       0.00576111
C       15.31962032      15.99791701       6.24376754       0.01138404      -0.01709431       0.00696045
Cl       5.11800123      11.65896605       4.85265510      -0.02034979       0.01294336      -0.00015789
Cl       3.57871916      10.27392401       6.88370449      -0.02360006       0.00959153      -0.00773486
Cl       3.71040561       9.23384734       4.21979408      -0.02538860       0.01938438      -0.01067625
Cl       2.08352432      11.68240699       4.71550968      -0.03668845       0.02995311      -0.00505154
C        3.77077397      10.65498957       5.20856280      -0.00894719       0.00611915      -0.00177614
Cl      11.05202213       5.38829604      11.36470862      -0.00847596      -0.00778013       0.00339302
Cl       8.54491874       4.04315781      10.81809568      -0.00008881      -0.01822526      -0.02152535
Cl       9.58580754       4.13582943      13.52434576      -0.03307299      -0.00564342      -0.01252848
Cl      10.88628192       2.49114491      11.52245756      -0.00415343      -0.00742888       0.00708480
C       10.03251876       3.99637128      11.80602054      -0.00987835      -0.00910026      -0.00613114
Cl       3.97957819      11.37349724       1.50482064       0.00762278       0.01062073      -0.01203449
Cl       6.31345921      11.04433223      -0.16739653       0.01403376       0.01327297      -0.00280097
Cl       6.22984997      13.19263854       1.77290073       0.00339335       0.01334667      -0.00388622
Cl       4.53341471      13.29680592      -0.58113692       0.01311514       0.01057187      -0.01035249
C        5.27491375      12.23218074       0.62991189       0.00986541       0.01231727      -0.00733613
Cl       2.26804553       4.65801074      17.29969160      -0.00638592      -0.00379147      -0.00992763
Cl       1.45871501       6.72874447      15.44122426      -0.01965939       0.00621742       0.00824815
Cl      -0.52233317       4.92689352      16.55744735      -0.00668555      -0.01911028      -0.01111767
Cl       1.40172222       3.94505893      14.63080254       0.00255803       0.01486582      -0.01852614
C        1.15084314       5.06241197      15.98643555      -0.00755414      -0.00073183      -0.00773880
Cl       9.21003866      10.88457060      11.15339196       0.01642287       0.01018924      -0.01108960
Cl       9.06196880       8.39543092      12.63560437      -0.00414598       0.01007247      -0.01482803
Cl      11.50090971       9.12430594      11.28449482       0.00457090      -0.00471001      -0.00600996
Cl       9.18449511       8.35977892       9.73385831       0.00526099       0.01620099      -0.01578695
C        9.73859835       9.18874577      11.21194585       0.00547918       0.00738069      -0.01157810
Cl       6.28695338       1.23923463      13.56989095       0.00819147      -0.01092014       0.01093665
Cl       4.50875862       1.52013889      15.85351403      -0.00160038      -0.02053541       0.00211653
Cl       5.19608350       3.83406291      14.24799644      -0.00021036      -0.01519305       0.00889039
Cl       7.19180290       2.60879690      15.95916248      -0.00773156      -0.00918228       0.01825407
C        5.79465630       2.30246467      14.91311251      -0.00002948      -0.01388056       0.01026553
Cl       4.79463918      18.05494144       7.65391540       0.04487047       0.01327348      -0.00446522
Cl       4.29051898      13.40001237       8.77295479      -0.00313371      -0.00506794      -0.00583795
Cl       4.90406069      14.66154929       6.18014498      -0.02017082       0.01433613      -0.00147213
Cl       2.05691465      14.63390160       7.14232910      -0.01271498       0.01227462       0.03114801
C        3.75231562      13.49244317       6.95830718      -0.01660666       0.01147622       0.00139095
Cl      11.49365724       9.88722280      15.19980672       0.00551409      -0.01802458       0.00643179
Cl       8.98891270       8.84819680      16.23527859      -0.01044729       0.00834221      -0.00947087
Cl       9.04668521      11.37399726      14.79975058       0.02548239       0.01087004      -0.00193602
Cl      10.19696355      11.18541505      17.44661488       0.00895087      -0.00925323       0.00334275
C        9.93366543      10.32507438      15.91379552       0.00745642      -0.00148146      -0.00037903
Cl       0.05062881       9.34684555       8.16249021       0.00313568      -0.01786371       0.00546977
Cl       2.47571895       9.18517897       9.73177666       0.00664639      -0.00778985       0.00070877
Cl       1.09512417       6.76021434       8.91860147       0.01014350      -0.01251072       0.01065854
Cl      -0.03728720       8.47249776      10.94406782       0.00986934      -0.00858215       0.00728452
C        0.88924138       8.44595115       9.43963579       0.00719308      -0.01197997       0.00624174
Cl      10.71953494      15.90697373       1.09315638      -0.02062678      -0.01216033       0.01324576
Cl      10.22562446      13.51308993       2.65651479       0.00455219      -0.01444894       0.01789175
Cl      10.79909670      15.98692542       3.99881260      -0.00557013      -0.00838929       0.01198632
Cl      12.89888915      14.64003863       2.51422584      -0.00467712       0.00435208       0.00276212
C       11.15313084      15.02805491       2.57441655      -0.00646739      -0.00829859       0.01166782
Cl       8.89133078       1.19582282       2.19944724      -0.00790727      -0.00719094       0.01367840
Cl       7.83404510       2.28398577       4.67627297       0.00227187      -0.01449922       0.02389485
Cl       6.14194046       2.07545142       2.33807983      -0.01248395      -0.00027715       0.01396850
Cl       8.31636243       4.01939835       2.40908254      -0.01231153      -0.00343913       0.00244346
C        7.79041423       2.38793377       2.90556577      -0.00962394      -0.00219345       0.00313386
Cl      14.90956620       6.12903491       8.14840398       0.00644690      -0.00000039      -0.00390571
Cl      12.02948693       6.22824758       7.83617275       0.00722373       0.01030269      -0.00392415
Cl      13.42254058       3.69667501       7.62464252      -0.00386195       0.00386870       0.00636300
Cl      13.72076537       5.68906834       5.54272309       0.00489761      -0.00528006      -0.00144547
C       13.51726259       5.42808027       7.29079203       0.00378248       0.00180817      -0.00099159
Cl       0.66425043      -0.80751241      11.89446084       0.01141441      -0.01658289      -0.02346838
Cl       3.21887897      -0.65706367      10.51100677       0.00549841       0.00632018      -0.02949029
Cl       3.11378555      -1.27832169      13.37620699       0.01667708      -0.02112249      -0.03484929
Cl       2.48272176       1.38214894      12.44712625       0.00342746      -0.01534429      -0.00854126
C        2.33610262      -0.33471544      12.10875954       0.00920470      -0.01162565      -0.02163813
Cl       2.09922828       6.33215819       3.39664860       0.00596300      -0.00179201       0.00817927
Cl       0.93723973       8.52276145       1.91816911      -0.01251597      -0.02167004      -0.00619048
Cl       0.29360378       8.17275031       4.72943323      -0.01398750      -0.01522642      -0.00413349
Cl      -0.72922177       6.30927609       2.77268190       0.00904968      -0.03345227       0.00085674
C        0.64626314       7.32681643       3.20756323      -0.00355207      -0.01717797      -0.00061181
Cl       5.83356697       3.87000180       7.76707587       0.01322746       0.00589937      -0.01851468
Cl       6.96937810       6.50516648       8.12214277       0.00973520       0.00330147       0.00127274
Cl       4.11411698       6.19995363       7.79526038       0.01038361       0.00233404       0.00077684
Cl       5.87410415       5.72030226       5.54143552       0.00852415       0.02201837      -0.00364453
C        5.70286862       5.56997476       7.30890573       0.01076859       0.00856756      -0.00508951
Cl      16.45913426      13.87421734       2.46968188      -0.00277814       0.04492068      -0.01418132
Cl      15.62567007      11.09083323       1.89970445       0.00624788       0.03878582       0.00013188
Cl      18.03751671      12.10141628       0.66948149       0.01568067       0.03683130       0.01940694
Cl      15.44569700      13.09019215      -0.17477981       0.02107984       0.01500732      -0.01900810
C       16.39031388      12.43438281       1.11379209       0.01083541       0.03937379       0.00295633
Cl       5.54925548       9.05261554      11.13544140       0.00531614      -0.00274232       0.02631336
Cl       3.56547826       7.37978223      12.47444668       0.00236338      -0.00766863       0.01363318
Cl       5.73166391       8.55454368      13.97987814       0.00551862      -0.02490959       0.02147365
Cl       6.25592152       6.41360774      12.07884038       0.00023770      -0.01133442       0.00625147
C        5.27571721       7.84593942      12.41613083       0.00329442      -0.01164985       0.01672186
Cl      14.55517838      10.63822329      12.53495663      -0.00014925       0.01700559       0.00932980
Cl      16.09906792      11.99386508      10.48370165       0.01453477       0.00085357       0.01135431
Cl      13.25534623      12.41578253      10.62841288       0.01513195       0.01273721      -0.00331181
Cl      14.28223981       9.84975010       9.75632914       0.00952785       0.00654614       0.01110512
C       14.52325217      11.23729717      10.84585763       0.00965367       0.00931945       0.00708459
Cl      10.29449955       8.14143547       5.33873261      -0.02065301       0.01494318       0.02444971
Cl       9.30957718      10.06385920       3.40956058      -0.00936565      -0.00856602      -0.00379443
Cl       9.58546905      10.83405308       6.19323637      -0.02238941       0.02584338      -0.01316440
Cl       7.52511323       8.95738729       5.41478184      -0.01996958       0.01812969       0.00075591
C        9.18843800       9.51216115       5.10652831      -0.01740074       0.01321171       0.00244677
Cl       0.60971887       4.68113132       6.18773152       0.00009370      -0.01666105       0.00530699
Cl       0.71424971       2.73257063       4.03890637      -0.00679360      -0.02066508       0.00960991
Cl       0.87939545       1.88116578       6.81375052       0.04231711      -0.01169705       0.00821361
Cl       3.08768781       3.28250636       5.58239651       0.00768614       0.01132030      -0.02472201
C        1.33211968       3.14874253       5.65878194       0.01039049      -0.00914086      -0.00084315
Cl      14.45967190       4.27044697      11.50121711       0.01344413       0.01388657       0.00892649
Cl      14.62475912       1.55056827      10.52726605      -0.00662869       0.02325875      -0.01832879
Cl      15.86096672       2.26277637      13.04694515       0.00226933      -0.01170725      -0.01437974
Cl      16.99307287       3.22914403      10.54912493       0.00551230       0.00545520      -0.00514793
C       15.47110882       2.81941239      11.39788266       0.00343436       0.00802362      -0.00759321
