149
Lattice="11.310842345348748 0.0 0.0 0.0 11.310842345348748 0.0 0.0 0.0 11.310842345348748" Properties=species:S:1:pos:R:3:forces:R:3 energy=-736398.875 stress="0.002508399309590459 0.001060401031281799 0.0008328544208779931 0.001060401031281799 0.0024253271985799074 8.2022506830981e-06 0.0008328544208779931 8.2022506830981e-06 0.0038267681375145912" pbc="T T T"
Nd       9.63736753      10.94406679       1.78116246       0.00536750      -0.00506920      -0.00410055
Nd       1.64574458      10.76604961       7.76460403      -0.00013707       0.00054491       0.00335975
O        1.81000295       8.62451802       1.42668854       0.01238328      -0.00629377       0.00720596
O        2.27513691      10.66242364       3.06034097       0.00225270      -0.00236142       0.00847775
O       -0.23732315       9.65470758       2.88342076       0.00575808      -0.00726444      -0.00022268
O        0.57726486      11.04896278       0.96330062       0.00521240      -0.00912857      -0.00008017
Cr       1.19801949       9.97134938       2.08663096       0.00160527      -0.00407816       0.00195725
O        6.40983072       7.56327961       7.52014173       0.00806297       0.00435758      -0.01990068
O        5.55815578       7.97548935       5.02413538       0.02026606       0.00233966      -0.02240598
O        7.74423484       9.28318820       5.91610038       0.00388396       0.02209193      -0.00528750
O        5.35364701       9.92720385       6.89621895      -0.01258057      -0.00413048      -0.02367654
Cr       6.26315057       8.66572125       6.32720332       0.00441777       0.00414599      -0.01438785
O        1.80531952       2.62668543      10.49790575       0.00067152       0.01159072       0.00989026
O        2.70932050       4.06145275       8.40297907       0.00004238       0.00539663       0.00473666
O        2.17458952       5.27990443      10.78203701      -0.00129327       0.01416677      -0.00099272
O        0.20026698       4.34203571       9.25139192      -0.00094306       0.01035590       0.00479257
Cr       1.73074729       4.07123701       9.73899618       0.00139827       0.00712308       0.00237855
O        0.75542060       8.81850836       9.38143863      -0.00129893       0.00101942      -0.00050060
H        0.28386615       8.24378952       8.76105217       0.01673287       0.00127280       0.02140033
H        1.47514393       8.27867103       9.77211296       0.01925902       0.00712526       0.01356407
O        5.62192191       5.28506684       4.96565110      -0.01669523      -0.00657213      -0.00253335
H        4.82843749       5.02886477       4.48151393      -0.02640809      -0.00902292       0.02332992
H        5.57635035       6.27587320       5.00968650      -0.00856900      -0.00437603      -0.01393445
O        1.74825214       2.26903881       2.28980725       0.00360781       0.01246521       0.00123018
H        2.11281616       3.17458213       2.17596703      -0.00316298       0.01376859       0.00587757
H        1.76797296       1.87044738       1.41012227       0.00553717       0.02010496      -0.00862871
O        9.63749676       2.30814553       7.28184501      -0.00598216      -0.00935237      -0.00294945
H        9.12783954       1.49437583       7.46422352      -0.00657838      -0.00788644      -0.00099415
H        9.19140232       2.99481554       7.81511520      -0.00528002      -0.00744170      -0.00112259
O        7.46342948      10.61962305       0.54325928       0.00524050      -0.01337284       0.00829578
H        7.37654798      10.04536665      -0.24919202      -0.00078832      -0.02193877       0.00704503
H        6.61032454      10.54239841       0.99819330       0.01790488      -0.00295932       0.01230331
O        5.35520584       3.93771067       7.46003911      -0.00652424      -0.00150688       0.01056889
H        5.42328610       4.40206999       6.59900647      -0.00245305      -0.00299825       0.01055384
H        4.41059568       3.93636288       7.71428354      -0.00852323      -0.00398462       0.00312840
O        7.69868695       9.17340526       9.54262909      -0.00196297       0.00633666       0.00158533
H        7.81797380       9.91641746       8.91432813      -0.01012298      -0.00097462       0.00359575
H        7.24017534       8.48170438       9.02887062       0.00090061      -0.00798716      -0.00029434
O        9.98851757       7.69818992       6.59914242      -0.02849969      -0.00938523       0.02763057
H        9.06723846       7.61137749       6.87404033      -0.00990491      -0.02627480       0.03823307
H       10.43299611       6.81707547       6.73191313      -0.00699498      -0.00843970       0.01365604
O       11.26395156       6.03655714       1.01941493       0.00194895       0.00987363       0.00060256
H       12.02949479       5.81894058       0.45579364      -0.01236123       0.01745973      -0.00906503
H       10.62443477       6.44928166       0.42863558      -0.01075828       0.03169694       0.01095419
O        7.87814830       3.96326183       8.73463241       0.01033854      -0.00356449       0.02339038
H        7.62965226       3.43552921       9.50609442       0.02389538       0.01393231       0.01202713
H        7.03971733       4.09410631       8.25540654      -0.00580440      -0.00850363       0.01584821
O        9.38505613       6.01700811       9.92695323      -0.00589741       0.01254745       0.00499392
H        8.70943202       5.49583484       9.45630780      -0.00504589       0.00902050      -0.00090972
H       10.16972957       5.44297018       9.82665169      -0.00842206       0.01707206       0.01156034
O       10.77988500       1.20183558       3.38335915      -0.00075966       0.00222024      -0.01223659
H       11.53921147       1.70168767       2.99732815       0.00182541       0.00143208      -0.00670170
H       10.18511081       1.88174296       3.79165669      -0.00186448       0.00141191      -0.01058408
O        9.70807864       1.66179614       0.49971301       0.00132282      -0.00159015      -0.01193553
H        8.80744979       1.91592091       0.20888413      -0.00043881      -0.00780957      -0.01125626
H        9.97731798       2.47196960       1.03620188      -0.00398011      -0.00034136      -0.01307743
O        3.01865620       7.72017620      10.66295005       0.00648085       0.00647913      -0.00086979
H        2.78497850       6.75106490      10.63253774      -0.00031551       0.00749140      -0.00166421
H        2.55108514       8.05412768      11.48136684       0.01132550       0.00659892       0.00132443
O        3.31649764       6.45080450       7.21860714       0.02382311       0.00334921       0.00659370
H        3.09404338       5.68522846       7.79376231       0.02286787       0.00796819       0.00722148
H        4.26528759       6.61760410       7.31913215       0.02869757       0.00288834       0.00597721
O       11.11509286       5.30843733       6.72356574       0.00481565      -0.00175342      -0.00005689
H       11.28961837       4.92736107       7.60791534      -0.00203439      -0.00173486      -0.00242084
H       11.88014127       5.08057030       6.17111376       0.01216144       0.00167288       0.00405669
O        0.41039937       0.39113521       9.63580183       0.00085502       0.00388947       0.00345737
H        0.43177772       0.00821759      10.53930758       0.00458982       0.00712981       0.00608694
H        0.65951434       1.32343887       9.80022333       0.00057148       0.00468481      -0.00206774
O        3.47757620       0.36557186       6.61030889      -0.00464986       0.00958270      -0.00006032
H        3.33492890       0.93796868       5.81979606      -0.00452144       0.00835706       0.00491536
H        4.27640577      -0.21565871       6.51127481      -0.00427581       0.00389296      -0.00354808
O        8.21568094       9.56272668       3.28226305       0.01116535       0.01087160       0.00368129
H        7.25686299       9.64936194       3.04453997       0.01358909       0.00975697      -0.00397491
H        8.17582426       9.51305561       4.27362453       0.00604278       0.01842644       0.00435586
O        5.95239234       1.41648135       8.62709062      -0.01269320      -0.00817934      -0.00252721
H        5.05770303       1.07006191       8.80939006      -0.01598956      -0.00436455      -0.00175896
H        5.79417751       2.21271654       8.09036572      -0.00970089      -0.00196802       0.00862303
O        1.20647193       7.18364826       4.05227016       0.00574246      -0.01267674      -0.00506397
H        1.59442868       7.42946641       3.20033739      -0.00795448      -0.01461882      -0.00868155
H        0.25032789       7.13019546       3.85387646      -0.00063606      -0.01538871       0.00829087
O        7.06006858       2.30210471      11.51708277      -0.00992197      -0.01011712      -0.03016518
H        6.65873719       1.57584946      11.02370575      -0.00508824      -0.02041222      -0.02242436
H        6.47851743       3.07833934      11.31365635      -0.02227800      -0.01861934      -0.03231584
O        9.67018774       7.10118604       3.95053718       0.00951605       0.00084126       0.01811908
H        9.71261779       7.43033721       4.87573079      -0.00563696      -0.00072949       0.02073133
H        9.30020034       7.83933343       3.44129248       0.02620026       0.00142861       0.01234413
O        2.29918922       4.76585756       5.14799211       0.01191118       0.01543730      -0.00348832
H        2.73169879       5.38295411       5.76590656       0.01864194       0.01175006       0.01393443
H        1.98662208       5.34266072       4.42705839       0.00686909       0.02407984       0.01929548
O        2.88023295       4.75816615       2.04046777      -0.00604074       0.01407538      -0.00429989
H        2.64111268       4.93663108       1.10661823      -0.01002740       0.00851875      -0.00883900
H        3.81168507       5.00884452       2.06459270      -0.01086283       0.00845896      -0.00802783
O       10.61642968      10.23109407       7.39430676       0.00440663      -0.01495386       0.00841622
H        9.82951473      10.60283269       7.81954163       0.00818197      -0.00556662       0.00736093
H       10.36149745       9.38003712       6.97076484      -0.00203930      -0.01610168       0.01392993
O        1.05641577      11.01877252       5.39411462      -0.00694542       0.00332969       0.00151041
H        0.34988278      11.54504593       4.98828281      -0.01007135      -0.00829408       0.00277981
H        1.67415856      10.85775821       4.64797949      -0.00490100       0.00462195      -0.00010774
O        3.20728101       2.14367957       4.58467426       0.00096086       0.00189993       0.00323567
H        2.73313841       1.93371578       3.75229059       0.00248618       0.00709443       0.00359554
H        2.90771968       3.04383592       4.82282646      -0.00296060       0.00854547       0.00694533
O        8.93069250       2.62695892       4.67286286      -0.01210470      -0.00205390      -0.01489687
H        9.17789990       2.60943627       5.62469561      -0.02185320      -0.00437765      -0.01378741
H        8.72239874       3.55199313       4.43006230      -0.01247738      -0.00092551      -0.01175505
O        8.10086344       4.99904415       3.53611924      -0.00580090       0.01259212      -0.00605479
H        8.63721172       5.78913383       3.79885057      -0.00386345       0.00780228       0.00655100
H        7.22297677       5.09587708       3.95057975      -0.00649624       0.00703396      -0.00867380
O        1.07483924       1.84125937       7.38364425      -0.00494359      -0.00071621       0.01025901
H        0.14057232       2.14800546       7.40526446      -0.00171619      -0.00231257       0.00161261
H        1.65039412       2.61557578       7.51131999      -0.00088552       0.00471285       0.00512245
O        8.04556978      11.29605774       7.75428819       0.00152402       0.00152428       0.00129030
H        7.83968396      10.71574048       6.98577821       0.01211783       0.00940577      -0.00790746
H        7.20454510      11.74906884       8.02263592      -0.00129928       0.00396551      -0.00841833
O        1.71719739       8.60822456       6.53325029      -0.00761654      -0.01044697       0.00184539
H        1.43914252       8.35844904       5.62976203       0.00310356      -0.00928058       0.00371252
H        2.30508129       7.88343390       6.82855705       0.00651764      -0.00615488       0.00180151
O        3.46044583       9.42231936       8.58812257       0.00766718       0.00521418      -0.00597462
H        3.46808069       8.66557683       9.20259002       0.01650989       0.00714514      -0.00887410
H        4.30064921       9.47719070       8.05487580       0.00296053       0.00328241      -0.01875663
O       10.12534627       3.76830157       1.96141928       0.00604416       0.00687461      -0.01730965
H       10.57639065       4.57289538       1.61555515       0.00037706       0.00625316      -0.00774120
H        9.32309177       4.08954427       2.39867036      -0.00016887       0.00785718      -0.00442579
O        3.31668540       0.66160687      -1.81778516      -0.01133171       0.00413158       0.00523639
H        2.89823419       1.45315484      -1.40393053      -0.01122929       0.00798013       0.00227918
H        3.59838130       0.10237203      -1.06702320      -0.01311490       0.00701954       0.00561230
O        5.15205563       6.40796985       0.99955226      -0.00633567      -0.00883549      -0.01463015
H        4.59458126       7.06373260       0.55889184       0.02661995      -0.03258467       0.00346988
H        6.08639058       6.70567058       0.91778965       0.02896155      -0.00226400       0.01258813
O        4.42093209      10.35193123       0.28218209      -0.00282878      -0.00123161      -0.00310090
H        4.38572113      10.25941676       1.25049725       0.01032048       0.00492221      -0.00670190
H        4.22430148       9.47111129      -0.05545015       0.00399336      -0.01163121       0.00366779
O        7.92486184       1.09708204       2.66316021      -0.01030630       0.00523674      -0.03132109
H        8.02525426       1.60973358       3.49250838      -0.02481503       0.00284693      -0.02860382
H        7.47240541       1.66147193       2.01144612      -0.01443269      -0.00061092      -0.03412191
O        5.53626814       9.94282610       2.92424001       0.00844333       0.01279147      -0.01106967
H        5.48037935      10.75561054       3.47964932       0.00925004       0.00910288      -0.01043849
H        5.28720423       9.21307454       3.52063362       0.01286667       0.00683444      -0.00448658
O        5.62575218       0.93669400       4.39422391      -0.01906527       0.01824990      -0.03149682
H        5.98878871       0.86090359       5.28004981       0.00305805      -0.02146070       0.04008925
H        4.82734474       1.49827585       4.47174303       0.02021402      -0.00301586       0.00141723
O        5.42231460       4.23497191      10.75306316      -0.01020630      -0.01744410      -0.00485253
H        5.32728828       4.46951116       9.82556504      -0.02564988      -0.02690476      -0.00779031
H        5.26140460       5.05718499      11.27255593       0.02098118      -0.00894222      -0.00908457
O       -1.42848945       9.41910369      -0.15276877       0.00601767      -0.00894827      -0.00560537
H       -2.14489416       9.10077910      -0.74285139      -0.01077653       0.00101417      -0.00617935
H       -0.59375431       9.23308150      -0.61761409      -0.01042332      -0.00742523      -0.01355293
O        7.84875281       6.81517149      12.19749750       0.00952370      -0.03048321       0.03777340
H        8.06084771       6.21423647      12.92435453      -0.00957207      -0.04635297       0.01341788
H        8.36753038       6.49624511      11.43361124       0.00008491      -0.02329625       0.01905085
