137
Lattice="13.405787478211396 0.0 0.0 0.0 13.405787478211396 0.0 0.0 0.0 13.405787478211396" Properties=species:S:1:pos:R:3:forces:R:3 energy=-953515.125 stress="-0.0005481441621668637 -0.0001871711210696958 0.00012572904961416498 -0.0001871711210696958 1.9881530533893965e-05 9.601245619705878e-05 0.00012572904961416498 9.601245619705878e-05 -0.0002099744015140459" pbc="T T T"
Pm      -0.71605999      12.06424969       3.89555009       0.01195115      -0.01330198      -0.00549349
Pm       4.46258114      10.77035703       6.73328510       0.00306141      -0.00610112       0.00073922
O        5.08419956      11.27486970       4.78348337       0.00282598      -0.00660926      -0.00078392
O        5.82443888       9.19846199       6.10113997       0.00819457      -0.00289440       0.00349745
O        7.90176012      10.32662574       4.27189200       0.01057279       0.00864941       0.00703578
O        5.75938142       8.84890965       3.14709813       0.01329499      -0.00132197       0.00897163
Mo       6.25998682       9.86361037       4.43367261      -0.00368291      -0.01016581      -0.00318718
O       10.09026665      13.29523826       6.80078022      -0.00793323      -0.01711003      -0.02103603
O       11.63053443      13.84371923       4.32433906       0.01382232      -0.01391447      -0.00515006
O        8.63815797      13.52307294       4.38690552       0.01064575       0.00038686      -0.03389943
O       10.83461332      11.42493140       4.59319319       0.00473897      -0.01097399      -0.01579946
Mo      10.12017636      13.07379497       5.10716701       0.00759232      -0.01175871      -0.02198923
O        0.71828560      11.20867190       8.66405477      -0.01680166      -0.01947699       0.00043094
O        2.89882383      12.40370750       7.21734265      -0.00548007      -0.01429558      -0.00601098
O        0.26026581      11.87816520       5.82678954       0.00950463      -0.02423516      -0.00823209
O        2.38656916       9.92169348       6.67437512       0.00785270      -0.01229054      -0.00173439
Mo       1.42986661      11.38280448       7.13203714       0.01369256      -0.01742596      -0.02479029
C        6.44420739       5.31691896       8.41142099      -0.00264633       0.00096499       0.00008023
C        7.62747041       5.56906606       9.33736100      -0.00299734       0.00169562       0.00020008
C        6.83445536       5.21643585       6.94063087      -0.00200951      -0.00119441       0.00052367
C        7.24418578       5.67024593      10.80813528      -0.00327921       0.00319979       0.00014541
C        5.63723378       5.02730615       6.01905406      -0.00194803       0.00174141      -0.00011510
C        8.43590934       5.97808925      11.70466746      -0.00408229       0.00616701       0.00003898
H        5.92901020       4.39758284       8.71588661      -0.00316492       0.00156417       0.00115539
H        5.71451833       6.12627597       8.53216217      -0.00199524       0.00174305      -0.00168407
H        8.13161250       6.49195609       9.03463323      -0.00288610       0.00135288      -0.00067855
H        8.36822214       4.77026482       9.21142500      -0.00280602       0.00155959       0.00112983
H        7.37240981       6.12420647       6.65249516       0.00032161      -0.00272399      -0.00049441
H        7.53947316       4.38899082       6.81038761      -0.00413680      -0.00329149       0.00177412
H        6.48198322       6.44651953      10.92970581      -0.00389525       0.00273666      -0.00105178
H        6.77380305       4.73521852      11.12370692      -0.00267923       0.00311458       0.00104801
H        5.08148763       4.12299352       6.27767544      -0.00468341       0.00322959      -0.00085819
H        5.94097398       4.94578467       4.97461905      -0.00134436       0.00113342       0.00022724
H        4.95382694       5.87515460       6.09755003       0.00059353       0.00379312      -0.00024260
H        9.21838327       5.22588250      11.58367631      -0.00378858       0.00618769       0.00189034
H        8.87489654       6.94627735      11.45417663      -0.00436273       0.00565833      -0.00245321
H        8.15584871       6.00274731      12.75919300      -0.00467493       0.01067951      -0.00026724
C        6.36711193      11.19176396       9.44752820      -0.00399467       0.01390227      -0.00187975
C        5.26720479      10.12863898       9.39674609       0.00476608       0.02506429      -0.01334545
C        6.42064431      12.11398573       8.22422921      -0.00530500      -0.00229991       0.00409940
C        5.18192689       9.25847135      10.64595440       0.00054106       0.02280641      -0.00472474
C        7.41151735      13.25879466       8.35309247      -0.00489822      -0.00202960      -0.00110336
C        4.01341254       8.28521405      10.59248289      -0.01279065      -0.00492024      -0.00375277
H        6.21859992      11.80103223      10.34426238      -0.01208626       0.00892490      -0.00153005
H        7.33841571      10.70080341       9.56157093      -0.00977176       0.00882021       0.00712724
H        5.43747130       9.44831307       8.54189943      -0.00326345      -0.00350438       0.01683162
H        4.28418233      10.62063913       9.25663881      -0.00518802      -0.00487990       0.00426866
H        6.70047090      11.52765636       7.32983536      -0.00056574       0.00241292       0.00133307
H        5.42349173      12.56340252       8.05541783      -0.00171952       0.00464971      -0.00603362
H        6.12721296       8.71719311      10.75323059      -0.00251439       0.00596203       0.01691529
H        5.09587120       9.90266235      11.52541449      -0.00524946       0.01755308       0.01008222
H        7.10123705      13.93970970       9.14529142       0.00149170       0.00121018       0.00249362
H        7.48934251      13.82014176       7.42325214      -0.00252669       0.00489269      -0.00003800
H        8.40954118      12.88886713       8.57916139      -0.00084084      -0.00007336      -0.00351377
H        3.06315191       8.81957905      10.53536504      -0.00734530       0.00958522      -0.01156682
H        4.07866631       7.63790158       9.71525591       0.00817985      -0.01700016       0.00345902
H        3.98120007       7.64387655      11.47321403       0.01822959       0.00219258       0.01468748
C        1.64651600       8.68403954       3.31798801       0.00518107       0.00129171      -0.00914669
C        2.36761063       7.33903409       3.33584746       0.02363831      -0.00362903      -0.00845955
C        2.61836176       9.81387233       3.00140624       0.00661176       0.00385132      -0.01672567
C        1.45449635       6.13779292       3.53639474       0.00064063       0.00319172       0.00240109
C        2.07590827      11.22366375       3.17594474       0.01614474       0.00146517      -0.01667939
C        2.22436519       4.82441621       3.59005306      -0.00295967      -0.00220746      -0.00099729
H        0.83456840       8.65409747       2.57991488      -0.01221123       0.01030804      -0.01463938
H        1.18450668       8.85341819       4.29892065      -0.01239000       0.01672187       0.00747505
H        3.12512395       7.36102778       4.12683072       0.00037916       0.00541281      -0.00277245
H        2.92710007       7.22413321       2.40163559      -0.00488342      -0.01471371      -0.00598454
H        3.48365888       9.71361479       3.65387339       0.00774753      -0.01043853      -0.01623604
H        3.01353995       9.68720497       1.99114388      -0.00031690      -0.00550594      -0.01611337
H        0.88226247       6.26628967       4.45925604      -0.01690577       0.00801617       0.01957619
H        0.71999981       6.10119592       2.72502807      -0.01515277       0.00013639      -0.00566372
H        1.25281878      11.43096998       2.47813398       0.01341958       0.00511234      -0.01162795
H        2.84666525      11.97525947       3.00124321       0.01885837      -0.00551909      -0.02665253
H        1.72185302      11.36746080       4.20045966       0.02636862       0.00651734      -0.01543912
H        2.80078421       4.67526156       2.67472263      -0.00813227      -0.00678680       0.00293803
H        2.93208475       4.82037750       4.42138254      -0.00538476       0.00932913      -0.00169687
H        1.56131961       3.96635775       3.71215126      -0.00837228       0.01130547       0.00277659
C        8.12134375       2.13438397      11.31988351       0.00148854       0.00052345       0.00561351
C        6.94706376       1.30846425      11.83335457       0.00161615       0.00211006       0.00750321
C        9.43789164       1.37127231      11.23441502       0.00086769      -0.00034446       0.00982597
C        5.60785008       2.02768938      11.69706649       0.00132843      -0.00031245       0.00227694
C       10.57638959       2.23024555      10.69898534       0.00085804      -0.00540733       0.00196515
C        4.40882988       1.15496143      12.04340368       0.00258061       0.00059256       0.00707729
H        7.87712538       2.52194281      10.32297651       0.00254077      -0.00331492       0.00393763
H        8.25213513       3.01344446      11.96034296       0.00086323       0.00265065       0.00260994
H        7.11506496       1.03482281      12.88031171      -0.00071549       0.00706135       0.00900674
H        6.90366793       0.36336006      11.28139211       0.00362726      -0.00062495       0.01206338
H        9.69714867       0.98073813      12.22406442       0.00236754       0.00669517       0.01211676
H        9.30593234       0.50182003      10.58431566      -0.00023811      -0.00505537       0.01640698
H        5.61113457       2.91886179      12.33312233      -0.00011471       0.00381926      -0.00366551
H        5.50459677       2.39241195      10.66900299       0.00186863      -0.00600703       0.00064883
H       10.32446691       2.64185555       9.71954894      -0.00061624      -0.01167060      -0.00028417
H       11.49577379       1.65558037      10.58132733      -0.00012633      -0.00731987       0.00364789
H       10.78570346       3.06853139      11.36750016       0.00347775      -0.00107828      -0.00431240
H        4.35266187       0.28774280      11.38084895       0.00409373      -0.00437766       0.01362227
H        4.47134678       0.78134928      13.06681988       0.00098771       0.01005204       0.01042587
H        3.47198691       1.70540679      11.94411993       0.00194296      -0.00213873       0.00179440
C       11.16616770       7.37056681       6.91557465       0.00164148       0.00109032       0.00347090
C       11.31232123       5.93520047       7.40963990       0.00009778       0.00004980       0.00078306
C       10.00793583       8.11595545       7.56980769       0.00084096       0.00001612       0.00307268
C       12.48288079       5.18864335       6.77888979      -0.00038764      -0.00029247       0.00026852
C        9.87483249       9.55824039       7.10712155       0.00069986       0.00094891       0.00630814
C       12.65943065       3.77595584       7.32010906      -0.00256354      -0.00138563      -0.00179608
H       12.09931778       7.91590354       7.10231689       0.00166896       0.00000522       0.00682192
H       11.02662390       7.37113638       5.82805677       0.00407721       0.00395486       0.00334227
H       10.38362254       5.38577411       7.21542401      -0.00033882       0.00157976      -0.00083905
H       11.43457822       5.94129348       8.49968421      -0.00072782      -0.00175567       0.00079310
H        9.07857642       7.58009421       7.35399115       0.00126508       0.00026390       0.00058534
H       10.13522329       8.08100562       8.65764684      -0.00080703      -0.00239305       0.00315130
H       12.34192482       5.15173496       5.69372104       0.00055005       0.00157014       0.00010753
H       13.40039881       5.76352641       6.94448225       0.00028741      -0.00178277       0.00159910
H       10.77340687      10.13619075       7.33295619       0.00016323       0.00126907       0.00841528
H        9.03386338      10.05761787       7.59377152       0.00018445      -0.00064330       0.00659564
H        9.70606362       9.61813897       6.03193743       0.00182420       0.00336410       0.00634375
H       12.80170053       3.78933707       8.40288864      -0.00267434      -0.00330380      -0.00189649
H       11.78519381       3.15631493       7.11276081      -0.00358719       0.00035943      -0.00271491
H       13.52603783       3.28265331       6.87739051      -0.00317578      -0.00189220      -0.00226627
C        8.52805701      11.70998669       1.08669099      -0.00322707       0.00036615       0.00431170
C        9.80635036      10.88731708       1.14311670      -0.00228597       0.00233752       0.00815657
C        7.30183309      10.83699079       0.84648914      -0.00056692      -0.00209516       0.00268535
C       11.07563316      11.72523092       1.17631388      -0.00319174       0.00273502       0.00289761
C        5.99502351      11.60189928       0.99461805      -0.00227213      -0.00460312      -0.00173295
C       12.33077417      10.86580369       1.25434073      -0.00345245       0.00359443       0.00402190
H        8.41164244      12.25529443       2.02913930      -0.00576590       0.00062723       0.00386769
H        8.60570395      12.46157365       0.29091022      -0.00280962       0.00117925       0.00530556
H        9.85979586      10.22689654       0.26854462      -0.00163912      -0.00350451       0.01266393
H        9.77154995      10.24310180       2.02763167       0.00059672       0.00919043       0.01338756
H        7.36164880      10.39479377      -0.15522688       0.00337535      -0.00553002       0.00429517
H        7.31178720      10.00044487       1.54924108      -0.00082821      -0.00067544       0.00423053
H       11.13261780      12.35855287       0.28586244      -0.00334934       0.00002670       0.00099596
H       11.02611101      12.43231697       2.02465630      -0.00150923       0.00498924       0.00056066
H        5.91774899      12.04573095       1.99119375      -0.00676390      -0.00538115      -0.00165670
H        5.13137592      10.94919174       0.85420131      -0.00038363      -0.00587128      -0.00442899
H        5.92966734      12.41524532       0.26841200      -0.00203808      -0.00374185      -0.00073567
H       12.38332827      10.28959700       2.19407567      -0.01020800      -0.00635875      -0.00216924
H       12.34047907      10.11332527       0.46345196       0.00830083       0.01415239      -0.00563334
H       13.25045223      11.45089743       1.13648991      -0.00453389       0.00808746       0.02147131
