149
Lattice="13.284065895906643 0.0 0.0 0.0 13.284065895906643 0.0 0.0 0.0 13.284065895906643" Properties=species:S:1:pos:R:3:forces:R:3 energy=-830813.1875 stress="-0.0009139371104538441 -0.00019566388800740242 0.00031119298364501446 -0.00019566388800740242 -0.00034594410681165755 0.00012492055248003453 0.00031119298364501446 0.00012492055248003453 0.002647819695994258" pbc="T T T"
Pm      -0.99397055      12.97046899       6.94413933       0.00542644      -0.01076689       0.00090501
Pm      12.76561725      10.11258207       9.68938891       0.00314096      -0.01058456      -0.00764289
O        9.90965797       9.50897127       5.66753958      -0.01827613       0.00044388       0.01076263
O        9.11552884      10.94977138       7.89273150       0.00010924       0.00865911       0.01479377
O       10.45324537      12.18913632       5.80213682       0.00094295      -0.00146040       0.00888449
O       11.73111810      10.63581886       7.39082304      -0.00482386      -0.00849828       0.00480942
Cr      10.27094273      10.73935177       6.57344976      -0.00688024       0.00102901       0.01058340
Cr       9.72270200      11.90824663       9.24504185       0.01439151       0.00253505       0.01253903
O       10.76780684      10.92608602      10.11490609       0.00904071      -0.00579400       0.00835559
O       10.64281664      13.10776964       8.56003915       0.02121713      -0.00318912       0.01152592
O        8.52490217      12.45117746      10.10191466       0.02129644       0.01192325       0.01960504
O        2.33460181       9.11754605      -1.18762509       0.00475991      -0.02072573      -0.00152616
O        0.41147539       9.39942024       0.69661759       0.00820427       0.02845466      -0.00253411
O       -0.10909297       8.52608953      -1.96956160      -0.00438249       0.00358981       0.00808379
O        0.48409768      10.91988457      -1.74328858       0.02796233      -0.00191629      -0.01997058
Cr       0.82553121       9.47441767      -0.96888103       0.00755894       0.00323564      -0.00593978
Cr       0.91985545       8.51332438       2.22154221      -0.01089779       0.02771032      -0.00131667
O       -0.31799723       7.64433672       2.67020081      -0.01980603       0.04202777      -0.00572759
O        2.12999605       7.56468673       1.85716432      -0.01657820       0.01506031       0.00932255
O        1.37733648       9.56470684       3.42618968      -0.00518483       0.02816634       0.00303799
O        0.53948733      11.86765778       8.24498691       0.00509456      -0.01469928      -0.00557569
O        1.35924580      10.45670243       5.91351445      -0.01653191      -0.01016735      -0.00881007
O        1.14086284       9.39588353       8.45275973      -0.00591697      -0.01858974      -0.01191051
O        3.09125309      11.12370720       7.85092405       0.00059646      -0.02847703      -0.01954436
Cr       1.61070673      10.71455852       7.54478435      -0.00418162      -0.01925106      -0.01355612
Cr       0.57482077      11.23044807       4.27038610      -0.01250234       0.01038383      -0.02429199
O       -0.89065452      10.83478292       3.85626395      -0.01649129       0.01963633      -0.01595446
O        0.20874743      12.57618899       5.38934196       0.00779584      -0.00344002      -0.00392228
O        1.27444492      12.05899610       3.12932982      -0.03385031       0.02244747      -0.02864170
C        6.16079873       2.19659750      12.15885986      -0.00240599       0.00160815      -0.00025791
C        5.36560768       2.59795158      11.08256880      -0.00032572       0.00366817      -0.00201863
C        6.73396796       3.18653305      12.95491309      -0.00347818       0.00416141      -0.00035343
C        6.39503203       0.74167838      12.43969994      -0.00400502       0.00224489       0.00068119
C        5.15830442       3.94307444      10.81009077      -0.00095671      -0.00009083      -0.00221433
C        6.53617123       4.53551410      12.68218346      -0.00186337       0.00136559      -0.00110610
C        5.74717550       4.91966664      11.60701424      -0.00221632       0.00346735      -0.00272454
H        4.89956297       1.84311294      10.45927948       0.00208226       0.00078182      -0.00410192
H        7.32910122       2.89975344      13.81219418      -0.00454038       0.00338848       0.00150594
H        6.87242242       0.59859792      13.40869742      -0.00675703       0.00159097       0.00213252
H        5.45596870       0.18563326      12.44152400      -0.00454330       0.00297687      -0.00182631
H        7.03595496       0.29057167      11.67882644      -0.00210187       0.00188763       0.00253329
H        4.52688977       4.23203701       9.97844339      -0.00074856       0.00128769      -0.00321877
H        6.98374492       5.28314334      13.32661496      -0.00192932       0.00335066      -0.00257111
H        5.58261557       5.96886482      11.39916183      -0.00164553       0.00165577      -0.00305529
C       10.09718927       7.05311068       8.59004304       0.00654311      -0.02606648      -0.00329626
C        8.99656617       7.77758893       9.04668952       0.00509639       0.00508469       0.00532869
C        9.91084703       5.72920140       8.20042738       0.00079045       0.00167944       0.00622522
C       11.45890036       7.68229412       8.54126161       0.00476676      -0.01427598       0.00248064
C        7.74085955       7.19077226       9.11945666       0.00094178      -0.01785003      -0.00321981
C        8.65743956       5.13811475       8.27875974      -0.00311970      -0.01905854      -0.00165912
C        7.56832422       5.86615749       8.73784797      -0.00291532       0.01273427       0.00657071
H        9.12271678       8.81102280       9.34576281       0.00880249      -0.01198709      -0.00038837
H       10.76232340       5.15394230       7.85549407      -0.00197478      -0.01641477       0.00232309
H       12.06896674       7.29523209       7.72427741       0.00776879      -0.02732912       0.00800051
H       11.33798599       8.75130036       8.35657158       0.01016222      -0.01802479      -0.00950542
H       12.00668956       7.50410591       9.47603462       0.00074258      -0.00947996       0.00606853
H        6.89565989       7.76970464       9.47051941       0.00373617       0.00255379       0.00095461
H        8.53126107       4.10100821       7.99598828      -0.00707147      -0.00269490       0.00358060
H        6.59487937       5.40125859       8.80321570      -0.00430839      -0.00077000       0.00095687
C        5.90208859      11.41109299       5.08549034      -0.00335191      -0.00196808      -0.00434443
C        7.06667680      11.30034435       4.32796686      -0.00370175       0.00285402      -0.00517564
C        4.67560835      11.25781844       4.43357427      -0.00354138      -0.00063238       0.00323348
C        5.96370396      11.72195310       6.55078713       0.00268549      -0.00664984      -0.00224853
C        7.01431130      11.09018055       2.95725253      -0.01024558       0.00573776      -0.01080241
C        4.61485098      11.03890107       3.06402061      -0.00984991       0.00275656      -0.00224969
C        5.78707756      10.96758585       2.31873899      -0.01024353       0.00639257      -0.00229135
H        8.02980773      11.38698424       4.81535906      -0.00347435       0.00219651      -0.01109473
H        3.75841869      11.30403154       5.01111548      -0.00223965      -0.00380066       0.00456049
H        5.20615879      11.17505122       7.10821466       0.00345609      -0.00744373      -0.00200328
H        6.94401956      11.49739783       6.96670558       0.00315036      -0.00906703      -0.00573622
H        5.76692018      12.78476725       6.72663544       0.00429135      -0.00622584       0.00160848
H        7.93676344      11.00531112       2.39464026      -0.01108746       0.00960032      -0.01147584
H        3.65173652      10.91370502       2.58624776      -0.00974751       0.00458019       0.00269948
H        5.74179740      10.78916909       1.25137130      -0.01523235       0.00819140      -0.00492986
C       12.57283435       2.57642313       3.95730799       0.00711037       0.01774933       0.01384744
C       12.33590593       1.55395057       3.04067133      -0.00174601      -0.03215709      -0.01719994
C       12.90344926       3.84511490       3.48260480      -0.00584728      -0.03164881      -0.00497283
C       12.46847486       2.31410707       5.43705213      -0.00386171      -0.01785468       0.00079814
C       12.40650219       1.80176117       1.67611905       0.01054729       0.01424645       0.01359452
C       12.97644280       4.09589437       2.11757213       0.00640789       0.01842524       0.02586854
C       12.71729439       3.07538650       1.21095681      -0.00423476      -0.03394768      -0.01284951
H       12.09394811       0.55773860       3.39489643       0.00572746      -0.00628543      -0.00246898
H       13.08287638       4.65652747       4.17881767       0.00013033      -0.00531667       0.01352565
H       12.38445521       3.24340600       6.00149454      -0.00584241      -0.01193768       0.00298430
H       11.56369617       1.71633716       5.65033941      -0.00199822      -0.01455055       0.00006853
H       13.35756105       1.77111075       5.79435988      -0.00311756      -0.01179026       0.00453415
H       12.21015264       0.99951093       0.97596294       0.00713809      -0.01246354      -0.00698639
H       13.21194856       5.09617555       1.77296458      -0.00233217      -0.01183340       0.00846212
H       12.74739147       3.27411611       0.14610630       0.00392987      -0.00213634       0.00800157
C        8.78417187       2.36471500       3.94929226       0.00387206       0.00460561      -0.00546690
C        9.04885969       2.70281443       2.62130622       0.00190491       0.00320138       0.00279441
C        9.01919799       3.32670893       4.92932833       0.00164624       0.00689159       0.00209954
C        8.26401139       1.00409975       4.28717514       0.00519150       0.00492144       0.00176351
C        9.52095436       3.96127587       2.28151601       0.00098250       0.00532341      -0.00673376
C        9.50243513       4.58730802       4.59673591       0.00032430       0.00826426      -0.00820495
C        9.75306337       4.90954938       3.27085463      -0.00206149       0.00664100       0.00187502
H        8.89560103       1.95554588       1.85041837       0.00359110       0.00312898      -0.00117078
H        8.81670181       3.08068249       5.96588039       0.00277353       0.00789392      -0.00262541
H        8.06470690       0.89745150       5.35347595       0.00522795       0.00602672       0.00101548
H        7.33912642       0.78701899       3.75054474       0.00513265       0.00338135       0.00123572
H        8.97994213       0.22852423       4.01224882       0.00614072       0.00483406       0.00203325
H        9.73491874       4.19440225       1.24555107      -0.00068248       0.00394493      -0.00166927
H        9.67691296       5.31933539       5.37516592      -0.00168166       0.00914767      -0.00302452
H       10.14566489       5.88388140       3.01201647      -0.00394301       0.00826965      -0.00468408
C        3.48366838       3.12286780       1.90729845       0.00039553      -0.00045564       0.00229383
C        2.82338848       2.01439344       2.43707051       0.00086090      -0.00071511       0.00107722
C        4.66998102       3.53738707       2.51478018       0.00065657      -0.00060207       0.00470123
C        2.94103288       3.87108322       0.72718864       0.00186945       0.00059375       0.00237989
C        3.32950208       1.34263077       3.54366397      -0.00164922      -0.00164439       0.00048309
C        5.17593360       2.87590336       3.62460683      -0.00182220      -0.00117957       0.00435963
C        4.50640632       1.77214173       4.14258634      -0.00148879      -0.00148934       0.00353575
H        1.90320915       1.66945975       1.98178393       0.00087389      -0.00093640      -0.00105036
H        5.20006893       4.39308112       2.11598624       0.00114714      -0.00058444       0.00532886
H        3.73508075       4.11522116       0.02168601       0.00174871      -0.00220216       0.00119255
H        2.17870753       3.28937682       0.21096080      -0.00041512       0.00223325       0.00362821
H        2.48580060       4.81518799       1.04015802       0.00428148       0.00216442       0.00213894
H        2.80454979       0.47538305       3.92174788      -0.00146981      -0.00178483      -0.00018914
H        6.09830890       3.22184463       4.07516131      -0.00187531      -0.00131109       0.00636733
H        4.90511769       1.24071115       4.99779901      -0.00339943      -0.00197185       0.00347722
C        5.66275490       6.42746662       4.88647234      -0.00758882       0.00416134       0.00109994
C        6.97886310       6.88202802       4.98315736      -0.00772843       0.00296463       0.00014663
C        4.95354581       6.68422888       3.71413786      -0.00762194       0.00371969      -0.00028549
C        5.03126321       5.67435758       6.02162292      -0.00906050       0.00638671       0.00161356
C        7.58292068       7.54453901       3.92346256      -0.00653733       0.00170740       0.00062795
C        5.55603449       7.33909460       2.64704701      -0.00642897       0.00215457       0.00022218
C        6.87818565       7.75356589       2.74416713      -0.00690658       0.00180249      -0.00068212
H        7.53796970       6.70809523       5.89626688      -0.00756488       0.00300243       0.00090066
H        3.92313778       6.36358406       3.62184315      -0.00789939       0.00382667       0.00065027
H        4.15946142       5.11499269       5.68419515      -0.01058096       0.00814682       0.00269406
H        5.74035029       4.96788117       6.45597006      -0.01032037       0.00501105       0.00178698
H        4.71586699       6.34800695       6.82296180      -0.00687563       0.00784810       0.00138466
H        8.60026193       7.90145579       4.02536691      -0.00657353       0.00114923       0.00009661
H        4.97738868       7.53026910       1.75208078      -0.00581713       0.00167674      -0.00124332
H        7.34970283       8.26601076       1.91519791      -0.00603787       0.00116222      -0.00035402
C       12.11851855       2.99554728       9.96817759       0.01420659       0.00473636       0.00004943
C       12.70157805       4.19550484      10.37969028       0.01019922       0.00616065       0.00615958
C       10.80156290       2.72969315      10.34334122       0.01507939      -0.00014229      -0.00045662
C       12.90505626       2.01255548       9.13835905       0.01795894       0.01243146      -0.00449373
C       11.98815187       5.11092763      11.14371738       0.00680707      -0.00025320       0.00739804
C       10.08239142       3.64601057      11.10424287       0.01131588      -0.00665633       0.00077175
C       10.67283080       4.83730698      11.50424449       0.00655204      -0.00363627       0.00534098
H       13.72628773       4.41365458      10.09924185       0.01029396       0.00925249       0.00784207
H       10.33401488       1.80287420      10.03131783       0.01896777      -0.00215557      -0.00362029
H       12.33251654       1.08703530       9.05138969       0.02208855       0.01003257      -0.00766434
H       13.11129184       2.41539278       8.14006526       0.01522916       0.01736156      -0.00279933
H       13.86546211       1.77110426       9.59666001       0.01925245       0.01495134      -0.00598939
H       12.45558984       6.03764495      11.45252420       0.00334948       0.00067297       0.01239290
H        9.05419858       3.43478811      11.37314119       0.01192454      -0.01025183       0.00055046
H       10.10704835       5.55874767      12.08073393       0.00354527      -0.00802355       0.00577287
