147
Lattice="12.933813667862509 0.0 0.0 0.0 12.933813667862509 0.0 0.0 0.0 12.933813667862509" Properties=species:S:1:pos:R:3:forces:R:3 energy=-836545.9375 stress="0.0003115693689323962 7.134440238587558e-05 -0.0001338238434982486 7.134440238587558e-05 -0.0019390365341678262 -0.0004956047632731497 -0.0001338238434982486 -0.0004956047632731497 0.004793744068592787" pbc="T T T"
Pm      11.35370000      12.67022459      10.98355199       0.02610214      -0.00092563      -0.02194421
Pm      12.89242908      12.35668076       6.00017619       0.00415272       0.00605243      -0.01706189
S        5.55245727      12.41494276       2.19048028      -0.00566427       0.00046027       0.00437716
S        6.06930247      10.48814084       1.00958012      -0.00332639       0.00115174       0.00069087
O        5.12910108      11.87475969       3.45835086      -0.01381031       0.00346524      -0.00704998
O        4.52144394      12.86537223       1.29583374      -0.00262147      -0.00030974      -0.00672984
O        6.80746730      13.12555087       2.18447722      -0.01100481      -0.00119773       0.00589416
S        8.93563830      12.16163435      10.02944107       0.01905036      -0.00512588      -0.00694597
S       12.30522010      11.71253769       8.41282300       0.00803428      -0.00486866      -0.01718557
O        7.76059827      13.04053867       9.95055393       0.02108872      -0.00045604       0.01808424
O        9.44846210      12.19189548      11.62025477       0.03555689      -0.03198489      -0.01259005
O        8.61994612      10.74325254       9.78862857       0.00897497       0.00050497      -0.02599483
S       12.93205015      12.15907384       1.45462684       0.01987362       0.00709590      -0.01585323
S       11.97458402      12.18806739       3.42802643       0.00221896      -0.00314897      -0.02552669
O       13.92150667      13.20796801       1.51422962       0.00998056       0.01615256      -0.00862873
O       11.91753807      12.45601324       0.36866837       0.02573228      -0.00272809      -0.02343732
O       13.40179877      10.79543025       1.30719871       0.03688073       0.01189125      -0.01273505
S        9.51285440       1.83535773       2.79058528      -0.00885105       0.00203121       0.00211728
O        8.93260529       2.84315295       1.83496998      -0.00841403       0.00453866       0.00383759
C        8.47141981       1.85746112       4.25204168      -0.00636339       0.00490876       0.00485927
C       10.94270351       2.67935004       3.50568102      -0.00457644      -0.00252762      -0.00050724
H        7.49834147       1.48342102       3.94506843      -0.00716642       0.00466852       0.00703874
H        8.36311475       2.87876590       4.61396007      -0.00524331       0.00548097       0.00383485
H        8.90903809       1.18191535       4.98770020      -0.00499619       0.00544781       0.00463364
H       11.28837196       2.15739130       4.39760945      -0.00818581      -0.00013079       0.00252113
H       10.63052264       3.70131038       3.73047771       0.00099646       0.00014670      -0.00478471
H       11.73475259       2.67011712       2.75790720      -0.00399076      -0.01044829       0.00016038
S        7.79917764       9.91050740       1.84472611       0.00044619       0.00557259       0.00278454
O        8.17492500       8.57523582       1.43868853       0.00187851       0.00511967       0.00348487
C        9.05255817      11.05526448       1.42130442      -0.00307718       0.00851476       0.00250795
C        7.64631882      10.03438338       3.60402692      -0.00201154       0.00721505       0.00163078
H        9.13425623      11.05137193       0.33376475       0.00150103       0.00849756       0.00235149
H        9.96638525      10.70901901       1.90663896      -0.00406106       0.01197764       0.00606309
H        8.77122266      12.04857619       1.76427749      -0.00784563       0.00687519       0.00277637
H        7.65696920      11.08336123       3.89135969      -0.00275625       0.00770372       0.00024021
H        8.47570758       9.45949963       4.02272936      -0.00261283       0.00804426       0.00276835
H        6.69951869       9.57733342       3.87855912      -0.00264031       0.00717816       0.00138054
S        3.21959545       2.74765161      11.35544191       0.00247359      -0.00243807       0.00625634
O        3.90822925       3.50746492      12.43751113       0.00038552      -0.00060743       0.00635529
C        4.18117980       1.26357761      11.02653920       0.00363332      -0.00254303       0.01006055
C        3.61418462       3.61040181       9.81557126       0.00470170      -0.00467110       0.00546676
H        4.16030142       0.67103710      11.93896660       0.00109482      -0.00204755       0.01027565
H        5.20778271       1.52234361      10.76839343       0.00449039      -0.00191109       0.01334728
H        3.70215109       0.71326452      10.21566091       0.00667073      -0.00318878       0.00858720
H        3.24480103       3.03829515       8.96395054       0.00364132      -0.00492718       0.00599269
H        4.69457461       3.73997224       9.75531513       0.00514477      -0.00676071       0.00567490
H        3.12975718       4.58472216       9.86097219       0.00655302      -0.00355655       0.00425918
S        3.39207379       2.33542514       4.69426132      -0.02890587       0.00201511       0.01229179
O        4.75145983       1.78065557       4.89845477      -0.02996182       0.00586128       0.02772371
C        2.25306004       0.90006987       4.71717181      -0.02379009      -0.00172520       0.01496232
C        3.20356319       2.69204360       2.93630318      -0.01856317      -0.01412620       0.00770599
H        2.31659031       0.49038717       5.73839154      -0.02616698       0.00355884       0.01749940
H        2.63181185       0.18739277       3.98335394      -0.01615055      -0.00481036       0.02176882
H        1.23423220       1.21243695       4.45034642      -0.02356252      -0.00708127       0.00613066
H        2.18468883       3.02498742       2.74043976      -0.01710185      -0.01430219      -0.00033892
H        3.43645364       1.80683505       2.34658012      -0.01858566      -0.01936918       0.01585219
H        3.91299794       3.48633030       2.70855984      -0.01626647      -0.01707987       0.00412977
S        6.37497301       5.10586384       3.24541517      -0.01538062       0.00526705       0.00085974
O        7.22016778       4.73206391       4.42332676      -0.01040316       0.00170287      -0.00387800
C        7.49830687       5.63281209       1.95512787      -0.02166462      -0.00192252      -0.00803456
C        5.70753390       6.73097254       3.63007985      -0.00369246       0.00982016       0.00300881
H        8.05447740       4.73964063       1.68358288      -0.02806072      -0.00494070      -0.01127900
H        8.16154225       6.39201482       2.36397771      -0.01449264      -0.00482082      -0.01365587
H        6.92114765       6.03147940       1.12216655      -0.02667081      -0.00000874      -0.00385179
H        5.33621695       7.17774276       2.70588542      -0.00601297       0.01115941       0.00443120
H        6.52484817       7.30373876       4.07012298       0.00263990       0.00543756      -0.00263597
H        4.91440061       6.60487948       4.36569078      -0.00017399       0.01580885       0.00787802
S       11.89564447       1.95809424       8.12134769      -0.00002803       0.00102833       0.00199443
O       12.56519893       1.58398663       6.77600152      -0.00328004       0.00488177       0.00006413
C       10.14320716       1.88692392       7.77833002      -0.00078034       0.00273446       0.00547287
C       12.09897279       3.73495823       8.19861104      -0.00236598       0.00109094       0.01367370
H        9.88079869       0.83123865       7.71413492       0.00042223       0.00292823      -0.00330666
H        9.94274765       2.40501101       6.84321046      -0.00363611       0.01142341       0.01079476
H        9.60680946       2.33886619       8.61036746       0.00151478      -0.00519362       0.01137385
H       11.43443245       4.14941351       8.95886943      -0.00699322      -0.00508481       0.01322205
H       11.86934404       4.15796490       7.22260887      -0.00094605       0.00851724       0.01627961
H       13.13951291       3.91346475       8.46217587      -0.00456563       0.00425431       0.01995130
S        9.99312731       2.34492105      12.28079287       0.00973100      -0.00079045       0.01265240
O       10.71998974       1.90187792      10.96111059       0.01816082      -0.00551851       0.01970929
C        8.29065498       2.60691566      11.81469726       0.01411676       0.00089610      -0.00233126
C       10.54504667       4.03696455      12.45399402       0.00996388      -0.00047719       0.01135876
H        7.92191111       1.64755838      11.45272411       0.01713878       0.00102231      -0.00641727
H        8.24013233       3.36594131      11.03488938       0.02206729       0.00052468      -0.00331694
H        7.76537755       2.90734302      12.71789831       0.00541651       0.00167358      -0.00765568
H       10.07292853       4.43488703      13.34827531       0.00095585       0.00454100       0.00456791
H       10.27529377       4.60265731      11.56031801       0.02057667      -0.00385439       0.00621349
H       11.62416797       3.99421837      12.58540958       0.00844839      -0.00084298       0.02306924
S        9.88120398       6.51033836       5.04847473      -0.00218034       0.00219226      -0.00862360
O        9.03012876       7.72204244       5.26622638      -0.00225312       0.00132835      -0.00352347
C        9.42400777       5.28189562       6.28597647       0.00132276      -0.00154653      -0.01089758
C       11.50143816       6.92648524       5.74631367      -0.00067925       0.00036766      -0.01049209
H        8.35258480       5.14647715       6.16650809       0.00227073      -0.00769892      -0.01414146
H        9.68950405       5.57915741       7.29900017      -0.00281037      -0.00025919      -0.00994797
H        9.92541216       4.35572232       6.00594180       0.00853829       0.00202093      -0.01018185
H       12.17429809       6.07451665       5.64342363      -0.00132051       0.00007103      -0.01294861
H       11.39488735       7.21358410       6.79304715       0.00102510      -0.00133243      -0.00974798
H       11.88362576       7.76631444       5.17130387      -0.00110724       0.00136349      -0.00952439
S        3.44893144       6.96438979      -0.18153082      -0.00013065       0.00105911      -0.00153279
O        4.84665449       7.12929256       0.33434267      -0.00003171       0.00485334      -0.00323069
C        2.62747312       8.54218423       0.10693726      -0.00258660       0.00010467      -0.00362667
C        2.57466791       5.99831705       1.06332248       0.00251001       0.00162897       0.00125080
H        2.90726554       9.20975229      -0.70860719      -0.00382576      -0.00036749      -0.00461352
H        2.98599549       8.93626064       1.05893280      -0.00263300       0.00223186      -0.00440790
H        1.54570670       8.42254053       0.11963977      -0.00249207      -0.00132061      -0.00266597
H        1.50584476       6.01133871       0.85112179       0.00235050      -0.00168424       0.00137592
H        2.78332495       6.41832609       2.04850372       0.00159585       0.00464413       0.00030567
H        2.95925729       4.98413954       0.97597653       0.00514176       0.00231262       0.00372577
S        4.93986402      10.45567306      10.31532479       0.00173426       0.00221264      -0.00166941
O        3.52002168       9.96478296      10.25931282       0.00286746      -0.00188512      -0.00097424
C        5.46504632      10.71989205       8.61910463      -0.00109278       0.00713300      -0.00185496
C        5.96559636       9.01513377      10.63326980       0.00633514       0.00430381      -0.00608752
H        4.95421965      11.61064821       8.25897044      -0.00364333       0.00698119       0.00068573
H        5.18171597       9.84250469       8.03533486      -0.00032759       0.00789005      -0.00323364
H        6.54128094      10.88756082       8.62803505      -0.00106825       0.00905881      -0.00283573
H        7.00287962       9.35004206      10.61585265       0.00590092       0.00580081      -0.01081647
H        5.76447271       8.27008036       9.86179898       0.00402552       0.00444662      -0.00578940
H        5.70211382       8.62229834      11.61464118       0.01028521       0.00341943      -0.00518158
S        2.11799666      10.38895463       4.19069592       0.00858079      -0.00409760      -0.00884885
O        1.49921571      10.77420590       5.56442126       0.00368690       0.00257462      -0.01310253
C        1.16480647       8.96639129       3.69455932       0.00417349      -0.00204232      -0.00693654
C        3.64856099       9.60886483       4.64438093       0.00383967      -0.01052949      -0.00271507
H        0.15601873       9.32958947       3.50746935       0.00576228       0.00171064      -0.00897397
H        1.20429438       8.21413531       4.48126943       0.00011681      -0.00001903      -0.00465229
H        1.58098687       8.59942211       2.75936826       0.00435878      -0.00620355      -0.00521164
H        4.11681186       9.26956954       3.71970942       0.00300920      -0.01492158      -0.00147031
H        3.49185643       8.80493340       5.36320991      -0.00061105      -0.00887549      -0.00163406
H        4.26406156      10.39458840       5.07340350       0.00802506      -0.01336339      -0.00343105
S        3.04613317       7.21785473       8.05994256      -0.00602663       0.00077093       0.00384188
O        4.12285665       7.82274803       7.21544406      -0.00380361       0.00029427       0.00605869
C        2.19658552       6.04284053       6.97607398      -0.00292757       0.00001720       0.00199130
C        1.71208120       8.41831556       8.17268183      -0.00637352       0.00111556       0.00024393
H        2.86814991       5.20741433       6.78739001      -0.00046284       0.00203860       0.00191928
H        1.95436866       6.54549708       6.03861946      -0.00312785       0.00023301       0.00200610
H        1.28799034       5.69415158       7.46417287      -0.00262017      -0.00299527       0.00069806
H        0.84628936       7.95632783       8.64759038      -0.00805742       0.00168630      -0.00194570
H        1.46422958       8.78450234       7.17646669      -0.00370950       0.00134446      -0.00051399
H        2.09261000       9.22829249       8.79430089      -0.00756635       0.00117995       0.00095466
S       10.33857074       7.23330775       9.52033642       0.02059424       0.00910270      -0.00319830
O        9.86001625       5.81861354       9.72575569       0.04485554      -0.00001597      -0.00871187
C       10.11859054       8.10916106      11.07713527       0.00250462      -0.00122824      -0.00016469
C        9.08852401       8.11217191       8.59339633       0.00489432      -0.01127991      -0.00042856
H       10.76192118       7.63206960      11.81310804       0.01149535       0.00919567      -0.00134504
H        9.07524553       8.06080715      11.38650703       0.00344485      -0.02313936      -0.00110565
H       10.41304819       9.14764795      10.91798552      -0.01886687       0.00517130       0.00436796
H        9.38973456       9.15711566       8.54105122      -0.02233611      -0.00334850       0.01552336
H        8.13644747       8.03895344       9.11490475       0.00374669      -0.04318315      -0.00700706
H        9.01858197       7.69370539       7.59298919       0.02068884       0.00108680      -0.00627893
