149
Lattice="12.742313460742896 0.0 0.0 0.0 12.742313460742896 0.0 0.0 0.0 12.742313460742896" Properties=species:S:1:pos:R:3:forces:R:3 energy=-670464.375 stress="-0.0006363566499203444 -0.00014722390187671408 0.0007974175969138741 -0.00014722390187671408 -6.085824497858994e-05 -0.0007318776624742895 0.0007974175969138741 -0.0007318776624742895 0.001506536384113133" pbc="T T T"
Pr       2.93911464      11.04850328      -0.99578947       0.00895242      -0.01335432      -0.00600591
Pr       3.03258017      11.77931911       1.51299356       0.01983618       0.01123580      -0.00966343
S        6.43638649      12.65230403       8.56024875      -0.01117448       0.00513051       0.00836742
S        4.88670683      12.22174388       7.50318879      -0.02210379       0.01208845       0.02196521
O        6.26899784      11.77623630      10.13606336       0.00130174      -0.00173537       0.00611368
O        6.43623375      13.99431255       9.11285192      -0.00164179       0.00263375       0.01259097
O        7.69570255      12.14445445       8.07616982      -0.01644361       0.00250086      -0.00607225
S        4.94370385       9.23536115      10.55554307       0.01311894      -0.01068336      -0.00130141
S        6.74733503      10.21331326      10.12720464       0.00794411      -0.00044605      -0.00384353
O        3.85366607      10.02291705       9.87074543       0.00814166      -0.01657550      -0.00147334
O        4.63188716       9.44879793      12.02074208       0.01451600      -0.00639021      -0.00121520
O        5.08966392       7.87176196      10.15840539       0.01653942      -0.01067454       0.00284205
S       12.87877403      11.19125530      11.28968482       0.03196916      -0.01701348       0.00627631
S       13.29878759      11.62909147      13.39033041       0.01215885       0.00152824       0.00805456
O       13.64572935       9.91639183      11.14162805      -0.00044288      -0.02009507       0.03143842
O       13.65575882      12.23034248      10.58565029       0.02263159      -0.04256406       0.00653239
O       11.47711153      11.10986179      11.04429887       0.00866178      -0.00765637      -0.00555788
O        9.36355745       5.65905211       7.10237998       0.00532162       0.00602663      -0.01004808
N        9.12054713       7.92961686       7.19287902       0.00136760       0.00531217      -0.00442892
C        7.68899152       7.88693989       7.44017248       0.00084122       0.00193756      -0.00822310
C        9.75503921       9.23181419       7.18345179      -0.00072434       0.00620449       0.00203479
C        9.82022328       6.79544893       7.04829336       0.00359738       0.00614166      -0.00561493
H        7.22976488       8.76676904       6.98930782       0.00073445       0.00367770      -0.00476812
H        7.48323906       7.90405282       8.51263012      -0.00222782      -0.00414862      -0.00867891
H        7.26726016       6.98873647       6.99649462       0.00305089       0.00322598      -0.01298188
H        9.40162017       9.82133041       6.33519386      -0.00339718       0.00980285       0.00553906
H       10.83444080       9.10735873       7.11127355      -0.00032039       0.00962047       0.00171256
H        9.52016698       9.77694587       8.09913215      -0.00013739       0.00043558       0.00570747
H       10.89441857       6.98672955       6.87359405       0.00371164       0.00939184      -0.00193712
O        2.93581840      10.30924836       3.30761044       0.01838954       0.00319681      -0.02876093
N        2.87921564       8.61959228       4.85666329       0.00786372       0.01348123      -0.02026445
C        4.13849231       8.93257043       5.52250643       0.00075585       0.02147612      -0.01058710
C        2.20312076       7.41771017       5.33243737       0.00302106       0.01871181      -0.01603077
C        2.38187951       9.30867492       3.85654192       0.01532829       0.00453527      -0.02948508
H        4.82037916       8.08937199       5.39835507       0.00164738       0.01974177       0.00685292
H        3.94427528       9.07310074       6.58650379      -0.01025327       0.03362068      -0.01433325
H        4.56257154       9.84518057       5.11986789       0.00593717       0.01649749      -0.01692450
H        2.74948380       6.53423556       4.99676620       0.00999396       0.01605502       0.00330429
H        1.18951828       7.38017173       4.94314553       0.00930318       0.01325552      -0.03196017
H        2.17962621       7.43400743       6.42175055      -0.01338342       0.03199291      -0.01659459
H        1.41398310       8.95789543       3.48965024       0.02051301      -0.00052350      -0.03838290
O        8.38028614       7.54256336      -0.91542292      -0.00011647       0.00450563      -0.00848997
N       10.09910042       8.11362005       0.49490881      -0.00517800       0.00286439      -0.00321278
C       10.27024293       6.82605220       1.12563093      -0.00462982       0.00136390      -0.00542829
C       11.00511531       9.14363531       0.93718522      -0.00440201       0.00178848      -0.00242601
C        9.19629498       8.34421409      -0.47695820      -0.00405002       0.00150210      -0.00573629
H       10.10170773       6.91540391       2.20253786      -0.00669334       0.00005502      -0.00575390
H       11.28944338       6.47565094       0.95015872      -0.00395101       0.00252582      -0.00398575
H        9.58576909       6.09986623       0.70656820      -0.00345936       0.00175551      -0.00785960
H       10.84855264       9.35482353       1.99841135      -0.00275580      -0.00085375      -0.00179648
H       10.83775578      10.04962544       0.36387778      -0.00642271       0.00368133       0.00079249
H       12.03934778       8.82430534       0.78201108      -0.00450048       0.00353077      -0.00549389
H        9.26697421       9.37648186      -0.85957646      -0.00318200       0.00415385      -0.00301558
O        8.83180673       3.98673162       2.18076158      -0.00785404       0.00996721       0.00309731
N       10.67274754       2.63120421       2.07007742      -0.00826082       0.00913752       0.00790089
C       11.63015050       3.70912481       1.96749061      -0.00823458       0.00972077       0.01044731
C       11.19049821       1.29169261       1.93355379      -0.00862785       0.00823884       0.01214167
C        9.35301580       2.88109677       2.11127822      -0.00831336       0.00987506       0.00563285
H       11.96955878       3.81346621       0.93242709      -0.01088324       0.01573680       0.01016581
H       12.48786699       3.51314111       2.61135718      -0.00660214       0.00632645       0.00717220
H       11.15010374       4.63223470       2.27144050      -0.00780049       0.00810397       0.01639345
H       11.66852775       1.17579444       0.96190960      -0.01139723       0.00282021       0.01129282
H       10.37723170       0.57246263       1.99425968      -0.00897831       0.00899595       0.01869077
H       11.90498700       1.07761418       2.73530293      -0.00648755       0.01226641       0.01111075
H        8.75979642       1.95177828       2.09036895      -0.00865224       0.00991881       0.00608363
O        6.99999232       0.40882998       3.84329334      -0.03127599       0.01242799      -0.00403982
N        8.06318367       2.11700113       4.92615329      -0.01691839       0.00120413      -0.00029222
C        6.96371641       3.04909730       4.76679196      -0.00890812       0.01107274       0.00171634
C        9.29227961       2.65435906       5.47237067      -0.01344383      -0.01070683       0.00378522
C        7.97059081       0.86913349       4.44351535      -0.02688307       0.00337046      -0.00298113
H        7.14259726       3.69563476       3.90486033      -0.00142744       0.01339999       0.00510046
H        6.88084621       3.66976611       5.65734572      -0.00588522       0.00751187       0.00446254
H        6.05047626       2.47919268       4.61871924      -0.01340376       0.01967096      -0.00322584
H        9.69122892       3.43311047       4.81684681      -0.00746784      -0.00969550       0.00870228
H       10.02559317       1.85635248       5.57827065      -0.01929334      -0.01659857      -0.00023120
H        9.10740689       3.10986831       6.44483016      -0.01111740      -0.01517327       0.00639433
H        8.87802508       0.26985025       4.63290899      -0.03258401      -0.00519592      -0.00354443
O        8.42523128       9.57192349       3.04643615       0.01358879       0.00746635      -0.00264239
N        7.15266483      10.92653579       1.70604844       0.00099510      -0.00207292      -0.00073182
C        8.26850331      11.63444270       1.11159448      -0.00679655       0.00732379      -0.00345714
C        5.83327969      11.42566809       1.44759687      -0.00301816      -0.01286903       0.00205663
C        7.34685306       9.99308493       2.66905501       0.00882900      -0.00121403      -0.00142205
H        8.21558935      12.69200364       1.37659641      -0.01439500       0.00671101      -0.00236341
H        8.25747427      11.53481863       0.02525330      -0.01059998       0.00811143      -0.00361764
H        9.18299688      11.20644402       1.50984130      -0.00209978       0.01379327      -0.00732538
H        5.64514422      12.35763075       2.01532309      -0.01031092      -0.01700398       0.00762264
H        5.12872639      10.63821772       1.76715052       0.00313115      -0.02020629      -0.00342175
H        5.69120687      11.60548716       0.37318406      -0.00370237      -0.00708539       0.00268374
H        6.38975917       9.61646991       3.07429757       0.01297289      -0.00952983      -0.00035806
O        3.60682181       0.50308844      11.80049432      -0.00208244      -0.00830995       0.02357422
N        3.28805903       2.48588550      10.71001719       0.00473291      -0.01177204       0.01622038
C        1.85861641       2.55308787      10.95560546       0.00510031      -0.00224754       0.01688404
C        3.85751206       3.57521409       9.92893897       0.00921875      -0.02138814       0.00666428
C        4.04000540       1.48293027      11.10572981       0.00169486      -0.01151291       0.01972842
H        1.34565840       2.62567372       9.99582914       0.00402485      -0.01570328       0.01642489
H        1.62767440       3.44344257      11.54275180       0.00992679       0.00916776       0.00143318
H        1.51680163       1.65744716      11.46222962       0.00014659       0.00867027       0.03316563
H        3.34142919       3.63508349       8.96961769       0.00740048      -0.02745942       0.00729883
H        4.91123491       3.38870220       9.75743907       0.00772998      -0.03006398       0.00699507
H        3.72252674       4.51817016      10.46144904       0.01578330      -0.01694338       0.00005442
H        5.08169789       1.51231024      10.78487690       0.00190632      -0.01724193       0.01958028
O        2.12861722       4.33984872       3.33484499      -0.00189224      -0.01011723       0.01811302
N        2.84659818       2.17046365       3.32510337       0.00901325      -0.00622341       0.00371642
C        2.64322877       1.98485460       1.91149686       0.01298235       0.00416315       0.00191605
C        3.29437964       1.01891802       4.06862194       0.01541756      -0.00841539      -0.00369406
C        2.56736059       3.36374779       3.91511587       0.00190884      -0.01256216       0.01213760
H        1.80183541       1.29244114       1.70621852       0.01704971       0.00109518      -0.00539702
H        3.57035588       1.61956657       1.43781533       0.01603080       0.01418413       0.00081022
H        2.38084469       2.93573290       1.45025731       0.00769487       0.00633991       0.00930953
H        2.53628446       0.21683109       4.03277863       0.02355711      -0.01569678      -0.01705655
H        3.44570791       1.25807253       5.12069543       0.00198780      -0.01690116       0.00016174
H        4.25893353       0.64904840       3.68991055       0.02340743       0.00532601       0.00350893
H        2.80153346       3.35683205       4.99167084      -0.00017269      -0.02008949       0.01223344
O        6.04600262       6.22926159       5.10431832      -0.01631242       0.00928217      -0.00605702
N        6.22230483       6.22037060       2.83005933      -0.00937194       0.00402395      -0.00567788
C        5.05734709       5.39127024       2.64161557      -0.00655027       0.00003802      -0.00712497
C        6.93654860       6.63800840       1.64123767      -0.00699909       0.00331558      -0.00456880
C        6.63376085       6.53944180       4.06879043      -0.01415026       0.00805473      -0.00510967
H        5.32737858       4.50127323       2.06565982      -0.00152856      -0.00155935      -0.00236659
H        4.27391689       5.93110321       2.10447866      -0.00541887      -0.00394604      -0.01279950
H        4.68115486       5.09697926       3.61560417      -0.01010630       0.00291982      -0.00759915
H        7.34967511       5.77479665       1.12004659      -0.00566494       0.00293511      -0.00286612
H        7.75083515       7.29812685       1.92515272      -0.00692275       0.00295974      -0.00339511
H        6.27034111       7.17572014       0.96341120      -0.00543937       0.00284016      -0.00651830
H        7.55993600       7.13816964       4.06838274      -0.01519841       0.00996602      -0.00368023
O       10.90848174       1.48557076      11.61228126       0.00676215      -0.01929462       0.00393534
N       10.99151215       2.35835323       9.49759138      -0.00365883      -0.01099861       0.00560871
C       10.08260330       1.39176101       8.92035999      -0.00460097      -0.00998491       0.00579948
C       11.50296314       3.40114385       8.63720687      -0.01000129      -0.00647784       0.00627147
C       11.30903631       2.31264216      10.80571504       0.00313440      -0.01177144       0.00169158
H       10.55683185       0.87832015       8.08047280      -0.00712602      -0.00832269       0.00335351
H        9.17284110       1.88000044       8.56537339      -0.00576052      -0.00955722       0.00970879
H        9.82211663       0.65935245       9.67777413      -0.00258882      -0.01156351       0.00530285
H       12.14568549       2.97971887       7.85606784      -0.01274498      -0.00243966       0.00190528
H       12.08108932       4.10818573       9.23259286      -0.00954868      -0.00680149       0.00609924
H       10.69130856       3.95183208       8.15449510      -0.01368380      -0.00709249       0.01163466
H       11.98618663       3.13153010      11.08881874       0.00075310      -0.01320750       0.00313067
O       10.32443989       4.80059263      11.55253985       0.01341736       0.00511152      -0.01471996
N        8.26991267       4.42772562      10.61526386       0.01084891       0.00162926      -0.00825773
C        7.87894682       3.37532209      11.52716785       0.01547842       0.00190875      -0.00588130
C        7.29144885       4.86862985       9.64632989       0.00623584      -0.00045617      -0.00493773
C        9.44740270       5.06607289      10.73949844       0.00949866       0.00413503      -0.01219261
H        7.58666556       2.48752018      10.96250546       0.01197310       0.00195545      -0.00401086
H        7.03638969       3.70494066      12.14606539       0.01913387       0.00231498      -0.00110915
H        8.71784083       3.13770739      12.17376518       0.01893878       0.00183146      -0.01025875
H        6.91216931       4.00636709       9.09268646       0.00562437      -0.00143993      -0.00299348
H        7.76578037       5.53851893       8.93527851       0.00252314       0.00016901      -0.00696209
H        6.46421799       5.39353727      10.13348185       0.00718796      -0.00171082      -0.00207421
H        9.55578298       5.86881457       9.99500310       0.00584829       0.00464344      -0.01185048
