148
Lattice="10.983586472140175 0.0 0.0 0.0 10.983586472140175 0.0 0.0 0.0 10.983586472140175" Properties=species:S:1:pos:R:3:forces:R:3 energy=-148521.109375 stress="-0.002935750177130103 -0.00018877799448091537 0.00029751085094176233 -0.00018877799448091537 -0.0009159194305539131 -0.0006634149176534265 0.00029751085094176233 -0.0006634149176534265 -0.0006969966925680637" pbc="T T T"
N        4.08022497       7.03547320       1.93860877      -0.00836542      -0.00881271      -0.00057410
C        3.67389083       7.90826970       1.00705082      -0.00594869      -0.00868395      -0.00151533
C        4.06472882       7.30808348       3.25286502      -0.00697164      -0.00589294      -0.00098759
C        3.21358637       9.14936307       1.39657399      -0.00053377      -0.00667799      -0.00415975
C        3.62245330       8.53651524       3.68557874      -0.00189522      -0.00389391      -0.00357372
C        3.19126878       9.46651718       2.74843627       0.00156470      -0.00349061      -0.00451429
H        4.42615796       6.10627599       1.66308579      -0.01037778      -0.01015252       0.00079858
H        3.76179977       7.61728323      -0.02883918      -0.00864379      -0.01178804      -0.00090292
H        4.41149393       6.52194696       3.91270085      -0.00863241      -0.00586008       0.00025333
H        2.91631680       9.85887636       0.63657811       0.00153311      -0.00683731      -0.00517216
H        3.62501237       8.75718894       4.74273077       0.00022068      -0.00118525      -0.00397690
H        2.84806941      10.43784936       3.07827679       0.00645479      -0.00164200      -0.00647250
N        7.83357225       8.31881030       5.52689616       0.01384949      -0.00127101       0.00364290
C        8.84219201       7.49270896       5.21412818       0.01160595      -0.00476667       0.00597732
C        6.86310431       7.98662352       6.38495774       0.01098308       0.00201939       0.00178573
C        8.89891103       6.24192684       5.78716994       0.00662155      -0.00435543       0.00673136
C        6.88381001       6.74491729       6.99004806       0.00597815       0.00256912       0.00179823
C        7.90549082       5.86055294       6.68048208       0.00354677      -0.00080802       0.00462443
H        7.85912498       9.24412153       5.04118191       0.01608681      -0.00178993       0.00225776
H        9.57624044       7.89416144       4.52974748       0.01394929      -0.00839701       0.00683421
H        6.09134458       8.72000139       6.55913918       0.01255403       0.00422192       0.00022971
H        9.69660270       5.56941404       5.51550523       0.00669588      -0.00559150       0.00983942
H        6.11486627       6.48694150       7.70063784       0.00373870       0.00505066       0.00050060
H        7.92944546       4.88310288       7.14261581      -0.00033980      -0.00054854       0.00505877
S        5.64797157       1.00198241       0.73853075      -0.00154698       0.01880093       0.00551337
S        8.02591455       3.13606316       3.38847049      -0.00712213       0.01011565      -0.00171566
S        7.80200495       1.02488724       0.86091031       0.00494838       0.00005384       0.00238942
S        8.25068301       2.93820300       1.25908234       0.00932400       0.00058107      -0.00564435
O        5.28508936       2.14293112      -0.12076155       0.01002577       0.00050813       0.00424987
O        8.80000274       2.06553737       4.00872851      -0.00751317       0.01007366      -0.00037301
O        5.11799253       1.12672602       2.08248440       0.00611454       0.00315087      -0.00721598
O        5.46888841      -0.30053798       0.12061079       0.00056432       0.00000465      -0.00439507
O        8.63930051       4.46758286       3.51908286       0.01435876       0.00853759      -0.01137704
O        6.61387461       3.11199536       3.71092188       0.01313233       0.02567261      -0.01322803
O        0.78484140       7.19044320       2.65107748      -0.01575327       0.01170295      -0.00627618
H        0.92085170       6.55970584       3.37145829      -0.01109024       0.01546700      -0.00444177
H        0.35407072       6.68789163       1.93296224      -0.00306369       0.00461629      -0.00915550
O        2.13228894       4.59472148       0.81088693       0.00341819      -0.01113438       0.01765828
H        2.92806531       4.37886469       1.32396432       0.01040570      -0.01480422       0.00498774
H        1.41102986       4.67430570       1.45199027       0.00775120      -0.03947389       0.02561463
O        1.95502737       5.29474935       9.19718361       0.00706676      -0.01120820       0.01979616
H        2.03983728       5.08352659      10.15605638       0.00185494      -0.01298203       0.02001856
H        2.55641876       4.65673059       8.75841216       0.00253197      -0.01499970       0.01909377
O        6.21583993      11.14118659       5.43870520      -0.00420651       0.03851996       0.02071047
H        6.50344376      11.08359609       4.52003319       0.02374400       0.00709158       0.03183325
H        5.24176066      11.01422284       5.45026304       0.00144184       0.01148162       0.00384790
O       10.32082489       4.85495018       8.83919603       0.00968332       0.00272936      -0.00737455
H       11.30872801       4.87474781       8.88359333       0.00880923      -0.00275348       0.00360406
H       10.04963321       3.93561234       8.69489535       0.00568540       0.00288110      -0.00194723
O        4.59887608       0.35222512       8.35292480      -0.00855046      -0.00726902       0.00272724
H        4.32349098       0.88154539       9.11202390      -0.01903803      -0.01397843       0.00226457
H        5.57195447       0.46892400       8.30030866      -0.00847048       0.00013629       0.01137699
O        4.46019295       5.00455668       5.43621341      -0.00306837      -0.00248110       0.01318086
H        5.09068198       4.34150060       5.78122393      -0.00482274      -0.00623710       0.01071457
H        3.60276077       4.55020024       5.49455696      -0.00334698      -0.00139962       0.00718752
O        3.01529481       1.82846099       3.82457407       0.00273405      -0.00281855       0.00218856
H        3.80604259       1.82111317       3.25902253       0.00762089       0.00087794       0.00629731
H        2.25291985       1.67568830       3.21209117       0.00913222      -0.00609503      -0.00304410
O        9.44854280       2.07888902       8.55566512      -0.00141073       0.00180118       0.00610147
H        9.90120584       1.47367854       9.19815580       0.00057575       0.00495970       0.00685385
H        8.81118219       1.47622085       8.10875991      -0.00525348       0.00034435       0.01342572
O        6.46262553       9.12151098       2.29232979      -0.00712010       0.00029766      -0.00343543
H        6.07734790       9.45812540       1.46801023      -0.00482029       0.00157650      -0.00205448
H        6.62931473       8.17057057       2.16681985      -0.00261063       0.00170048      -0.00500128
O        3.30515890       3.09945552       8.31730762      -0.01484041      -0.01427364      -0.00381555
H        4.07736494       2.97585798       7.73667475      -0.00883116      -0.01514026       0.00394717
H        2.58332828       2.57740665       7.92083413      -0.01618040      -0.00270903      -0.01573171
O        7.59974615       9.10038897       9.45469482      -0.00454872       0.00028539       0.00837177
H        6.66441121       8.79161521       9.38522953      -0.00455924       0.00099123       0.00671936
H        8.15974566       8.38587421       9.10007858      -0.00485280       0.00049668       0.00686920
O        9.78293853       7.54972337       8.87220208      -0.00146825      -0.00126705       0.00779050
H        9.95317729       8.26491433       8.20229572      -0.00203823       0.00190372       0.01108025
H        9.92735155       6.67378467       8.48315736       0.00082691       0.00076634       0.00377858
O       10.35152706       6.00452896       0.59673933      -0.00353684       0.00746475      -0.00472341
H       10.42527859       5.52433798      -0.24135257       0.00499921       0.00820898      -0.00421156
H        9.95718559       6.86937755       0.37385665      -0.00246339       0.00689475      -0.00753506
O        7.00423987       3.35912603       9.07669968       0.00298098       0.01060638       0.00278045
H        7.85869815       2.88476729       9.09549729       0.00492078       0.01114060       0.00218891
H        6.41794778       2.86762131       9.68791463       0.00553200       0.00846730       0.00461202
O        7.33795503       5.86794498      10.27556633      -0.00389680       0.01042527      -0.00263585
H        7.22000400       4.96787690       9.91097458      -0.00035468       0.00907521      -0.00204171
H        8.24342840       6.10308387      10.04199865      -0.00417257       0.01323562      -0.00133776
O       11.32983164       0.80352531       4.92266975      -0.00690466       0.01250933      -0.01042084
H       11.27854092      -0.15116019       4.67945919      -0.00343421       0.01147432      -0.00706097
H       10.48868473       1.20217654       4.66573217      -0.00704799       0.00971782      -0.01226090
O       12.00884445       1.74102633       2.01079795       0.01857191      -0.01679039      -0.01412980
H       11.36484515       1.01299024       2.02021521       0.02323782      -0.02215619      -0.01804045
H       11.56580221       2.55692446       2.32916097       0.00961066      -0.02178327      -0.01845917
O        1.67053555       8.08168056       9.27560356      -0.00143757      -0.01181371      -0.00289261
H        1.94366763       7.14866474       9.17619480       0.00297236      -0.01153832       0.00548971
H        0.71275517       8.01662993       9.41934425      -0.00074570      -0.01439297       0.00035602
O        3.91607383       7.26254453       6.87657410       0.00824747       0.01015284      -0.00527734
H        3.00594589       7.46387097       6.62176643       0.01106828       0.02220431      -0.00395659
H        4.13392399       6.41755711       6.42782686      -0.00167596       0.00468580       0.00001495
O       -0.05694859       0.26016336       9.79342346       0.00304831       0.00394727       0.00577351
H        0.83379148       0.67874390       9.84598293       0.00383405       0.00350882       0.00263994
H       -0.16249206      -0.13753361      10.68350941       0.00707877      -0.00042766       0.00389264
O        3.56173771       0.09696355       5.92187194      -0.00838479      -0.01026478       0.00062896
H        3.23719563       0.78484768       5.30788939      -0.00582912      -0.00801749       0.00110390
H        3.82285641       0.49015702       6.78395937      -0.00808099      -0.01150969       0.00047009
O        8.39344020      10.20184252       3.75712077      -0.03072339       0.01524495       0.00900906
H        7.79616874       9.94834551       3.01959013      -0.02209952       0.00681624       0.00371612
H        8.57987380      11.14813883       3.68213357      -0.01491589       0.00988208      -0.00335044
O        0.43982970       9.16415305       4.48517619      -0.00412097       0.01363683      -0.00726458
H        1.04182455       8.86030188       5.18212613      -0.01051030       0.00205312      -0.00714380
H        0.54770672       8.55544639       3.72827322      -0.01047369       0.01534724      -0.00877038
O        9.02946099       8.41649094       0.76469037      -0.00253224       0.00800885       0.00395269
H        8.44855071       7.89681646       1.34872940       0.00146008       0.00246524       0.00282414
H        8.45292142       8.74043436       0.03985771      -0.00521643       0.00733956       0.00594293
O        1.35284183       6.38900771       5.40874211      -0.01116750      -0.00059561      -0.00823110
H        1.56343470       5.44453113       5.52203274       0.00100458       0.00087703      -0.01823160
H        0.72190825       6.60309986       6.10160904       0.02558044      -0.00502510       0.02281047
O        4.72384443       4.26962859       1.78913318       0.00842330       0.00073776      -0.00710133
H        5.22673397       3.98068945       2.56977971       0.01723684       0.00144273      -0.00647639
H        4.98486700       3.64084016       1.09424787       0.00703593       0.00177083      -0.00585609
O       10.15178252       9.77713640       7.52202344       0.00152999       0.00035819       0.01082973
H       10.39921794      10.28521907       8.32182610       0.00419129       0.00276934       0.00901681
H       10.99821801       9.71765837       7.04038711      -0.00017896      -0.00403089       0.00912943
O       -0.12451729      10.25107500       1.39236693       0.00791623      -0.00990993       0.00480342
H       -0.89578956       9.63704139       1.35334103       0.00248725      -0.00307244      -0.00013439
H        0.62148357       9.66406934       1.55862441       0.00163475      -0.01726432       0.00556532
O        1.93296674       3.70308073       5.35887170      -0.00512496       0.00408393      -0.01574013
H        2.39645506       3.05129962       4.77214361      -0.00110406       0.00020460      -0.00816995
H        1.54636008       3.16034840       6.08738761      -0.01333223       0.00922712      -0.01668080
O        5.69703172       2.92764089       6.69941123      -0.01034850      -0.00998604       0.01212188
H        6.02644730       2.20777744       6.13961048      -0.01569150      -0.02228637       0.02183614
H        6.28297436       2.98783410       7.48309453      -0.00702612      -0.00151094       0.00766063
O        7.29330967       6.52029414       1.94040815       0.00306352       0.00519635      -0.00192963
H        7.74271419       5.87514008       2.50946021       0.00362363       0.00689907      -0.00639713
H        7.27928929       6.12944695       1.03583378      -0.00082066       0.00665672      -0.00453599
O        1.00527658       1.94574716       7.18643860      -0.01684818       0.01337057      -0.01250321
H        0.78416545       1.35156055       6.41803821      -0.01615983       0.01362195      -0.01293328
H        0.15486534       2.05843819       7.64694659      -0.01571732       0.00850167      -0.00836650
O        7.36262851      11.38385752       7.90478220      -0.00272208       0.00310025       0.02052110
H        7.57720502      10.54599084       8.37523939      -0.00446979       0.00224079       0.01884888
H        7.18507794      11.15774960       6.97233294      -0.00673627       0.00515764       0.02068182
O        1.78377436       9.19305787       6.83614002      -0.00374578      -0.01476924      -0.00240621
H        1.87101291       8.90039080       7.77539497      -0.00418251      -0.01210665      -0.00151248
H        2.43258730       9.89692060       6.64001374      -0.00708678      -0.01124162      -0.00293784
O        4.95177777       8.56458008       9.09444074      -0.00022615       0.00196816       0.00310804
H        4.67229275       9.49079548       8.99167252      -0.00002067       0.00124449      -0.00047071
H        4.54317042       8.08323304       8.34846537       0.00442930       0.00112697       0.00019335
O       11.34897108       4.16404415       3.08046468       0.00411965      -0.00872763      -0.02669872
H       10.40197300       4.35752950       3.21778828       0.01068427       0.00082378      -0.02911330
H       11.73476102       4.02483421       3.96504909       0.00655562      -0.00157064      -0.02472954
O        2.25379689       1.43212023      -0.43993942       0.01219052      -0.00194367      -0.02404249
H        2.71496748       2.19552200      -0.81078393      -0.00204189      -0.00081931      -0.03891550
H        1.88104515       1.72601951       0.41589100       0.02474208      -0.00085562      -0.01934487
