149
Lattice="11.636488279865114 0.0 0.0 0.0 11.636488279865114 0.0 0.0 0.0 11.636488279865114" Properties=species:S:1:pos:R:3:forces:R:3 energy=-104508.5703125 stress="0.0005081617855466902 0.00010232005297439173 -7.652457497897558e-05 0.00010232005297439173 -0.0009869260247796774 -5.403979048423935e-05 -7.652457497897558e-05 -5.403979048423935e-05 0.0006665131077170372" pbc="T T T"
N        2.86251718       8.78542780       0.42493978       0.01285149       0.01138583      -0.02412371
C        3.40755726       8.95740239       1.64714915       0.00576741       0.01136724      -0.01403111
C        1.55509061       8.97324796       0.16840702       0.00343359       0.00756141      -0.00946659
C        2.60337054       9.34121753       2.69054104       0.01477352      -0.00345553      -0.02102935
C        0.71913442       9.36049534       1.19024088       0.01049966      -0.00771480      -0.01548206
C        1.24687292       9.55396450       2.45829056       0.00780581      -0.00696855      -0.00833163
H        3.47427863       8.55537579      -0.34828259       0.00397664       0.02591969      -0.01658547
H        4.46808260       8.77679158       1.73559968       0.00969859       0.01550671      -0.02256664
H        1.22652922       8.82904480      -0.84872300       0.00464015       0.00933802      -0.01368144
H        3.02654704       9.48571904       3.67562260       0.01148897      -0.00438122      -0.01573262
H       -0.32021159       9.56742428       0.99205773       0.00482056      -0.01220345      -0.00574960
H        0.61156408       9.89665772       3.26051591       0.00896069      -0.01517477      -0.00896633
N        6.29549131      10.77594018       4.61872777      -0.00294249       0.00502342      -0.00320895
C        7.41451729      10.42184158       3.97026647       0.00715658       0.02022755       0.00528976
C        5.87661350      10.15532208       5.73252635      -0.00018659      -0.00182950      -0.00503260
C        8.15585415       9.35730875       4.43740945       0.01105680       0.02483597       0.00818814
C        6.59689833       9.10304223       6.25455975       0.00283645       0.00133187      -0.00149818
C        7.74542132       8.68788032       5.58596807       0.00900958       0.01270726       0.00059451
H        5.70803827      11.58573930       4.26128324      -0.00414738       0.00464311      -0.00355744
H        7.71909550      11.01716490       3.11900864       0.01179520       0.02814042       0.01214555
H        4.98000187      10.54963768       6.18744547      -0.00374249      -0.00699542      -0.00797600
H        9.05715197       9.09661793       3.90621574       0.01189253       0.02880378       0.00855155
H        6.25204179       8.61832321       7.15639523      -0.00436992      -0.01331744      -0.00992852
H        8.31088497       7.84307882       5.96539897       0.01083599       0.01166924      -0.00426138
S       10.60401642       0.71961279       2.32518442      -0.00233105      -0.00849605      -0.00054558
S        9.19069586       2.10672145       2.75351162      -0.03357852      -0.03551728      -0.00420558
O        9.98943788      -0.61559954       2.32559271       0.01110762      -0.01327097       0.00442924
O       11.63697840       0.78551375       3.42550110      -0.01176375       0.01891313       0.00496519
O       11.26195159       1.03982152       1.04780412       0.00503409      -0.02900854      -0.00230455
O        8.80469486       3.49002985      11.65753090       0.00870588      -0.01411709       0.01282746
C        8.98271858       2.42615600      10.71418416       0.00376759      -0.00590411       0.00367820
H        9.95452621       1.95050377      10.84772135       0.00431636      -0.00607230      -0.00251003
H        8.90375352       2.85862001       9.71688665      -0.00019583       0.00062715       0.00651276
H        8.20158928       1.67104265      10.83573125       0.00507730      -0.00701317       0.00427797
H        8.95459478       3.08940684      12.56780384       0.00537202      -0.02580546       0.00916635
O        9.08846449       5.56947503       6.38088683      -0.00329736      -0.00202125      -0.01055035
C        9.09783943       4.47706216       5.46383017      -0.00251047      -0.00540873      -0.00611195
H        9.28657181       3.52547341       5.97224331       0.00838010      -0.00240019      -0.00450736
H        9.85347313       4.59977934       4.68575330      -0.00986308      -0.00323682      -0.01300561
H        8.12215064       4.41803127       4.98125544      -0.00599942      -0.01373482       0.00238885
H        9.98909663       5.93472318       6.37854066      -0.00260920      -0.00339748      -0.00930183
O        2.80390104       6.00375921       2.29428750      -0.00398880       0.00725472       0.00894213
C        3.63380013       5.49635606       1.25219071      -0.01130179       0.00050640       0.00671732
H        4.35609054       6.27132825       0.99931378      -0.01481356      -0.00002131      -0.00472214
H        3.05713364       5.25369661       0.35479693      -0.01766397      -0.00739647       0.01298419
H        4.20133728       4.61564346       1.55877909      -0.00702590       0.00406390       0.00899372
H        2.13788884       5.34683197       2.53981356      -0.00107053       0.00827861       0.02105838
O        5.45432018       9.99747537       9.47469602      -0.00599998       0.00050274       0.01223731
C        6.45680263      10.14241248      10.46657829      -0.00551969       0.00097833       0.01177308
H        6.37131766      11.09773768      10.99736358      -0.00895029      -0.00186625       0.01640618
H        7.46393813      10.05481126      10.04732071      -0.00569010       0.00742415       0.01008873
H        6.33591633       9.33315337      11.18937959      -0.00110142      -0.00309844       0.00783479
H        5.53023768      10.78199159       8.89761521       0.00022808      -0.00393198       0.00677096
O        1.73446166      11.67140856      -0.66732401      -0.02869368       0.01377680      -0.01223939
C        3.09968155      11.93023074      -0.39377143      -0.02871180       0.01619549      -0.01856551
H        3.33630966      11.82467047       0.67018040      -0.02102924       0.00773315      -0.02126133
H        3.39412706      12.93595199      -0.71359026      -0.03255164       0.01967621      -0.01202679
H        3.69740625      11.21718072      -0.96525486      -0.02993326       0.02108267      -0.02553242
H        1.16816643      12.08006665       0.01021481      -0.02669186       0.00369088      -0.00367485
O        6.17413887       4.33020701      11.02834822       0.01387024      -0.00390005       0.02352710
C        5.45656635       3.12866006      10.82316896       0.00879031       0.00199628       0.00749737
H        5.45710390       2.49084720      11.71626266       0.00019344      -0.00674483       0.00114948
H        5.84366411       2.53914513       9.98323571       0.01085515       0.00787412       0.00435296
H        4.42329340       3.38947175      10.59209265       0.01121786       0.00882863       0.00399909
H        7.07641601       4.09372931      11.31270466       0.01273075      -0.01110620       0.02208981
O        4.25242078       7.08498111       7.19672164       0.00088310       0.00066483       0.00394325
C        3.23937696       8.05701072       7.36701321       0.00020972       0.00058448      -0.00039466
H        2.66152613       8.21754339       6.45200606       0.01640511       0.01446925      -0.00792581
H        3.69172467       9.00198145       7.67847897      -0.00202198      -0.00496590       0.01886189
H        2.52914642       7.75954133       8.15116411      -0.01458117      -0.00707376      -0.01690942
H        4.10130623       6.61482585       6.35538385       0.00549312       0.00215229       0.00216969
O        8.40003577       7.80059289       9.04244700      -0.00276971       0.00434065      -0.00160129
C        7.37885565       6.81515198       9.15353793      -0.00413090       0.00476271      -0.00791213
H        6.45351345       7.24923458       9.54424609      -0.00709480       0.00651979      -0.01688416
H        7.67956587       5.99200258       9.80494256      -0.01031943       0.00603628      -0.00337037
H        7.18468928       6.41661042       8.15981415       0.00396085       0.00278684      -0.00870827
H        8.84670275       7.89723314       9.91718227      -0.00822114       0.00330195       0.00127111
O        9.78957507       7.90234249      -0.31758330      -0.00970262      -0.00244713       0.00276631
C        9.04694773       8.13689768       0.87344649      -0.00481963      -0.00998491       0.00745510
H        9.61907646       7.83136082       1.75441593      -0.00087696      -0.01530121       0.00292286
H        8.09437386       7.59391611       0.86829404      -0.00447968      -0.01059982       0.00805881
H        8.86072459       9.20755424       0.94980612      -0.00393208      -0.01040804       0.01483373
H       10.09866585       6.96188337      -0.32078042      -0.00736847      -0.00137690      -0.00190419
O        6.02292839       0.60377452       7.96388867       0.00600541      -0.01008759       0.00376071
C        7.40212233       0.80159629       7.69925441       0.00399378      -0.01033184      -0.00500772
H        7.76310673       1.73557848       8.13869755       0.01287895      -0.01890698       0.00449893
H        7.61718245       0.82236076       6.62471413      -0.00173281       0.00469424      -0.00582448
H        7.95698619      -0.02226937       8.14515721      -0.00016876      -0.01782957      -0.01590706
H        5.54341533       1.41058920       7.65018694       0.00324793      -0.01246569       0.00552024
O        4.95475898       2.83375483       7.03749431       0.00423968      -0.00282162       0.00736126
C        5.81196287       3.97480645       7.05203126       0.00316355      -0.00210096       0.01336606
H        5.56089773       4.65542301       7.86727695       0.01172730      -0.01252335       0.02467951
H        5.73672966       4.51509395       6.10782418      -0.00664014       0.01058652       0.02135950
H        6.83975984       3.63820975       7.18524151       0.00482386      -0.00260241      -0.00130037
H        4.09563738       3.08896138       7.42544137       0.00443808      -0.00477795       0.00860196
O        2.68707291       3.51010613       8.36894826       0.00177842      -0.00303933       0.01031581
C        2.49970166       4.85961624       8.80328926      -0.00709671      -0.00114554       0.00051596
H        1.92560517       4.89256989       9.73210973      -0.00338912       0.00226014       0.00291088
H        2.00062762       5.45881905       8.03887652      -0.01513635      -0.01098417      -0.00199291
H        3.48878905       5.28095187       8.96734074      -0.00948471       0.00811525      -0.00936112
H        1.83855600       3.14002606       8.11153597       0.00268865      -0.01291984       0.02147227
O        1.40713903       4.84846702       4.59935533       0.00308236       0.00419956      -0.00563837
C        1.01932865       3.58199570       5.13443612       0.00331782       0.00451455      -0.00478187
H        0.44564463       3.70770754       6.05781068       0.00711998       0.00524253      -0.00267804
H        1.91188739       2.98777899       5.35289993       0.00343886       0.00373745      -0.00786386
H        0.39636106       3.03423468       4.42528755       0.00056937       0.00512828      -0.00270599
H        1.03166227       5.53930366       5.16649751       0.00027719       0.00433124      -0.00742269
O       10.54614612       8.47701147       7.69373577       0.01376199      -0.01266044       0.01434750
C       10.32466147       9.87726748       7.86820645       0.02156025      -0.01099423       0.01187798
H        9.63842441      10.03724242       8.70157603       0.02318799      -0.00536892       0.01216912
H        9.91542753      10.32822351       6.96155166       0.02336489      -0.01020765       0.01141122
H       11.27064765      10.36234113       8.09450666       0.02442530      -0.01611006       0.01067054
H        9.74547335       8.03145960       8.05634315       0.00827536      -0.00686843       0.00945307
O        4.23852414       5.87065320       4.73595053       0.00826496       0.00711450      -0.00021571
C        5.37748762       6.42682327       4.09894129       0.01014024      -0.00138627      -0.00443153
H        5.20555855       7.46607194       3.79654997       0.01329564      -0.00311920      -0.01208492
H        5.67514026       5.84480459       3.22197277       0.00759016      -0.00836980      -0.00064054
H        6.19517102       6.41763960       4.81796553       0.01073132       0.00086963      -0.00499436
H        3.52207788       5.83063871       4.07892940       0.00743155       0.00874161       0.00039397
O        2.45549189       1.25351783       2.69137788      -0.00931591      -0.00344950      -0.00538376
C        2.40291942       2.53854363       2.08988819      -0.00919420      -0.00266051      -0.00385858
H        1.43982917       2.69011022       1.59787974      -0.00948462      -0.00045160      -0.00262944
H        3.19807340       2.60293665       1.34627747      -0.01019722      -0.00239671      -0.00472331
H        2.56013215       3.32243103       2.83839916      -0.00725900      -0.00340310      -0.00361544
H        1.53106854       1.03543934       2.99747538      -0.00859864       0.00074629       0.00054782
O        0.38238833      10.66601093       5.37514637       0.01378679      -0.00536072      -0.00535893
C        1.35295095      11.29334811       6.18228166       0.00460219       0.00737096      -0.00338212
H        0.93989605      12.14708521       6.73511691      -0.00603645       0.00464243      -0.00744613
H        2.21145825      11.65243848       5.59902366       0.00263977       0.01383787      -0.00183690
H        1.71150042      10.56795246       6.91343451       0.00930650       0.01386762       0.00062498
H        0.09727949      11.32288455       4.69756339       0.00324968      -0.00723924      -0.00183261
O       11.54109505       6.85088850       5.84898321      -0.00059651      -0.00474215      -0.00147212
C       11.10327091       7.38940413       4.59704954       0.00119086       0.00482643       0.00190836
H       11.15095833       8.47793462       4.62066804       0.00258082       0.00456253       0.00985166
H       10.08212122       7.06381907       4.37677447       0.00130802       0.00654162      -0.00115062
H       11.75842873       7.01696497       3.80965413       0.00190262       0.01023674      -0.00009255
H       11.33043763       7.52879787       6.53815199       0.00326656      -0.00841838       0.00337781
O       10.61130639       5.38841726      11.01533450      -0.00451645      -0.00195402      -0.00332576
C       10.68818527       5.24667701       9.60087022      -0.00324786      -0.00413699      -0.00283432
H       11.19801239       6.12504873       9.20366401       0.00834592      -0.01030007      -0.00131679
H        9.70318824       5.18944960       9.13224954      -0.00261456       0.00763193      -0.00535968
H       11.25955183       4.35311779       9.32749168      -0.01284955      -0.01056129      -0.00187328
H        9.99348784       4.69551619      11.35109243       0.00340945      -0.00638231       0.00161628
O        4.77956591       1.13535340       3.90844573      -0.00728580       0.00773749       0.00464813
C        5.43462352       2.38437693       3.69655512      -0.01041499       0.00995281       0.00714803
H        5.60835409       2.56545574       2.63087276      -0.01359558       0.01506729       0.00794452
H        6.40708453       2.33413533       4.18594629      -0.00859049       0.01545989       0.00465773
H        4.85829202       3.20484413       4.12999115      -0.01285475       0.00631827       0.00905138
H        3.88079420       1.13494951       3.48581876      -0.00541326       0.00492632       0.00044607
