147
Lattice="17.48090952412237 0.0 0.0 0.0 17.48090952412237 0.0 0.0 0.0 17.48090952412237" Properties=species:S:1:pos:R:3:forces:R:3 energy=-2062803.625 stress="-0.0009891486261039972 1.2328986940701725e-05 0.0001053693049470894 1.2328986940701725e-05 -0.0006755056092515588 -9.870895155472681e-05 0.0001053693049470894 -9.870895155472681e-05 -0.0005195644916966558" pbc="T T T"
Rb      -1.27017490      17.32388629       4.86310375       0.00595301      -0.01222600       0.00206074
Rb       2.69615140      18.04737098       8.92017599      -0.02829809       0.01428579      -0.01230529
O       17.74157314       1.16807365      -0.22606611      -0.00850201      -0.01285081       0.00919843
O       15.09701140       0.21540694       0.53136846      -0.00798225      -0.00221872       0.00379604
O       15.79253915       2.97002484       0.97643524       0.00708818      -0.00463581      -0.00465182
O       17.00919983       0.87852084       2.60780832      -0.00645328      -0.00103515       0.00208449
W       16.41552350       1.31106431       0.95988392       0.01203987       0.00126690      -0.00336599
Cl       8.87184623      10.09656652       7.74146255       0.01033802       0.00440609       0.00978087
Cl       8.65282937      12.95417038       8.20667828      -0.00425169       0.00700378      -0.01570851
Cl       9.96134859      11.96674100       5.80876080       0.01196638      -0.00726113      -0.00044447
Cl      11.23450676      11.65326132       8.37533829      -0.00035405       0.01948971       0.00879771
C        9.68034848      11.66937365       7.53112963       0.00450359       0.00608561       0.00030354
Cl       4.78880784       7.87454281       6.49466581      -0.00612070      -0.00333637       0.00646996
Cl       3.41276334       6.40230146       4.40152123       0.00685665       0.00726382      -0.00976793
Cl       5.94882087       5.44610780       5.43993528       0.00402474       0.00668865      -0.00391181
Cl       5.86795380       7.81987803       3.80350235       0.00646910       0.01640186       0.01118067
C        5.00351273       6.88713833       5.03089835       0.00285763       0.00631502       0.00040696
Cl       8.63216969      15.61005592      11.15878453      -0.01065600       0.01067352       0.00322613
Cl      11.29897797      15.49774528      10.04099540      -0.01333088      -0.00093329      -0.00045240
Cl      10.25972285      18.01192691      11.05293362      -0.00045846       0.00403738       0.00063956
Cl       9.19532592      16.87777180       8.60255221      -0.00884834       0.00681719       0.00326979
C        9.85028176      16.49793162      10.21335293      -0.00817168       0.00532585       0.00214210
Cl      14.65581817      12.42098020       6.69049878      -0.00797505      -0.01230726       0.02390940
Cl      14.08077704      13.39999613       9.36723526      -0.00234316       0.01481537       0.01431924
Cl      12.97288745      14.75014714       7.03739082       0.00061476      -0.00249837       0.00418675
Cl      15.81372605      14.91930926       7.61254974       0.00177076      -0.00678551       0.00064830
C       14.36932800      13.87378833       7.68190725      -0.00169589      -0.00149872       0.01015648
Cl      15.44850872      10.62649584      14.96512464       0.00223497       0.01175529       0.00019845
Cl      18.12080520       9.70401926      14.32543179       0.00122315       0.01502979      -0.00871641
Cl      16.05088119       9.68831936      12.29595328      -0.01032092      -0.00517432       0.00376099
Cl      15.94106016       7.80070211      14.50041647       0.00787415       0.01061812       0.01754664
C       16.39081114       9.44808454      14.02216159       0.00012380       0.00793798       0.00332434
Cl       8.20172567       5.78657565       9.55870401       0.00458407      -0.00852862      -0.00501393
Cl       5.64180467       4.54557605       9.00122582      -0.00422397       0.00762442       0.00603563
Cl       7.65267914       3.09518965      10.50016353      -0.00735305      -0.00574213      -0.00163549
Cl       8.05167340       3.58548449       7.67713829      -0.01615199      -0.00676619      -0.00254959
C        7.39156750       4.24812121       9.18565036      -0.00582632      -0.00393637      -0.00031046
Cl      12.23903874       7.09328416       2.18636932       0.00020826      -0.00532684       0.00010335
Cl      14.07517285       5.78542077       0.36335267      -0.00278352      -0.01360577       0.00360453
Cl      14.98995462       7.97751680       2.01394601      -0.00095874      -0.00581995      -0.00844616
Cl      13.16448465       8.49639273      -0.17547644      -0.00424825      -0.01698279      -0.00793061
C       13.61643384       7.32141315       1.08776698      -0.00204919      -0.01056643      -0.00336936
Cl       6.85288527      10.48135246      11.24580278      -0.00686276       0.01080821       0.00083131
Cl       5.30753836       8.32449674      10.08166529       0.00758075       0.00064135       0.00162945
Cl       5.19369430      10.98035729       8.92024090       0.00448395      -0.00527702      -0.00847349
Cl       3.96069379      10.47236981      11.50466229      -0.00798264       0.00017243      -0.01380354
C        5.33556683      10.05534538      10.45209676      -0.00057074       0.00136171      -0.00431759
Cl       9.66964877       1.69220370       2.27080998      -0.01227102      -0.00479794       0.00582257
Cl       7.53558458       2.79961599       3.88607932       0.00494915       0.01041554       0.01743145
Cl       9.96444032       4.31799132       3.45635443       0.01369399      -0.00877821       0.00747664
Cl       9.99867169       1.94890736       5.13905665       0.00329526      -0.01017819       0.00446048
C        9.30144088       2.69311534       3.68214904       0.00252553      -0.00373891       0.00871914
Cl      12.34644131      13.40821028      13.07893149       0.00389679      -0.00207913       0.00070351
Cl      11.71651666      14.43279281      15.71194571       0.00161999       0.00933347      -0.00454009
Cl      12.20650748      16.27389805      13.53690407       0.00676164      -0.00033903      -0.01080817
Cl      14.39830991      14.73028424      14.64558662       0.00271451       0.00165449      -0.00133023
C       12.66714396      14.71802237      14.24518362       0.00365107       0.00216458      -0.00428117
Cl      16.13993504      11.38655392       0.78987113      -0.00022015      -0.01462694       0.00791201
Cl      14.36052804      11.60515512       3.06437078      -0.00759679      -0.00662293       0.00370525
Cl      16.69333354      13.31449804       2.88048390       0.00003732      -0.00052541       0.01083005
Cl      17.01601350      10.49221980       3.41333000      -0.00736485      -0.01475838       0.01332115
C       16.04210319      11.69413734       2.52375555      -0.00491798      -0.01454954       0.00801790
Cl      15.54702886       3.03609311       5.99138546      -0.00179514      -0.01082438      -0.00071031
Cl      13.69872765       2.17699926       3.90398370      -0.00590199      -0.00082102      -0.00014907
Cl      14.90178933       4.80680939       3.79022206       0.00465009      -0.00715309      -0.00064564
Cl      12.90646469       4.21426697       5.80725631       0.00352007       0.00147353       0.00001165
C       14.25617042       3.57767882       4.85365820       0.00040358      -0.00401349      -0.00015648
Cl      14.18068101      14.73138531       0.84919858      -0.00065750      -0.00317207       0.01042181
Cl      11.58541688      13.93658112       1.84812730      -0.00424442      -0.00892940      -0.00369259
Cl      12.15057751      16.73580470       1.35271104      -0.00641969      -0.00752932       0.00422212
Cl      13.41233069      15.36745127       3.57924184      -0.01415737      -0.00946712       0.00640911
C       12.84235122      15.20572774       1.87318129      -0.00627030      -0.00723749       0.00478753
Cl       7.85660734      10.63130284       3.12765475       0.00490922       0.00658318      -0.00581166
Cl      10.65333189      10.53724880       2.39102385       0.00362468      -0.00517678      -0.00671422
Cl       8.84082755       8.44469505       1.51081256      -0.00347884      -0.00010279      -0.00171202
Cl       9.59713819       8.61225422       4.29212181      -0.00215166       0.00300324      -0.00252882
C        9.23965533       9.55200150       2.82812953       0.00049792       0.00093441      -0.00417026
Cl       9.19823423       2.79941435      14.47636156       0.00685249      -0.00279835      -0.00112155
Cl      10.86343819       3.98773879      12.41777181      -0.00200897      -0.00670578      -0.00935277
Cl      10.83584583       5.12046511      15.08335696       0.00791493      -0.00084710      -0.01237682
Cl       8.50630758       5.38219536      13.36708995       0.00145334      -0.00604928      -0.00373083
C        9.85347877       4.32343223      13.84004255       0.00362336      -0.00420732      -0.00658233
Cl       3.91867664      10.31256658       2.31938938       0.02055889       0.01715502      -0.00384620
Cl       2.01463215       9.71264733       0.22663810       0.01213160      -0.00337005       0.01191321
Cl       4.38058953      11.27057231      -0.37665069      -0.00164238       0.00989490      -0.01072934
Cl       2.26333075      12.42796273       1.22646267       0.00133464       0.00102061       0.00018775
C        3.14328740      10.92808648       0.84435670       0.00830360       0.00671047      -0.00099769
Cl      10.49318524       7.79663152      11.66845942      -0.00123313      -0.00875491       0.01076230
Cl      10.59647445      10.68448795      11.81708283       0.00432369      -0.00888827      -0.00323461
Cl      12.71358520       9.23402111      10.47054047      -0.00654837      -0.01916549      -0.00783405
Cl      12.45806325       9.08225921      13.35185934       0.00955415      -0.00515617      -0.00556368
C       11.56594419       9.19789502      11.82624924       0.00173071      -0.01021566      -0.00114303
Cl       2.03295944       6.42522395      15.88159812       0.00002673       0.00059408       0.00330731
Cl       0.84149684       6.26285929      18.52082818      -0.01447022      -0.00133267      -0.00413972
Cl       2.31448228       4.00252898      17.47026901      -0.01513064      -0.00262910      -0.00016838
Cl      -0.24567847       4.70064130      16.33316168      -0.00655907       0.00524187      -0.01220801
C        1.23249546       5.33470769      17.04875407      -0.00864264       0.00026091      -0.00301262
Cl       2.36471397      14.13219782       4.76217682       0.01325136      -0.01101372       0.00553906
Cl       0.89356604      16.44375441       7.14766685       0.00417952       0.00001846      -0.00217117
Cl       3.26096125      13.82271285       7.46604814       0.00268418      -0.01876751       0.02586102
Cl       0.75058173      12.72005951       6.65017230      -0.01833928      -0.00789380      -0.01836185
C        2.09353734      13.60226080       6.30275859      -0.00147024      -0.02521703      -0.00068103
Cl      10.46465131      10.98094186      15.97488204       0.00828284       0.00374862      -0.01043116
Cl       8.39148938       9.52783833      14.56767277      -0.00157982       0.00337771       0.00555858
Cl       8.58509469      12.41403714      14.28807221       0.00527186       0.00105566      -0.00841975
Cl       7.70332995      11.25537386      16.79039279       0.01299745       0.01523730       0.00042903
C        8.78712236      11.04277389      15.40666306       0.00614017       0.00581072      -0.00297755
Cl       5.64934543       4.57828686      -1.41515668      -0.00646850       0.00061598       0.00698423
Cl       6.73234688       4.76304488       1.26843019      -0.00294974       0.00035974       0.00542068
Cl       5.06840280       6.89860750       0.23676126       0.00858960       0.00739807       0.00155668
Cl       7.72983301       6.49331197      -0.83332046       0.00565273      -0.01149070       0.00100844
C        6.28837777       5.68730813      -0.18017309       0.00123769      -0.00081964       0.00372097
Cl       3.55776723       4.70425786      12.85866974       0.00687894       0.00268829      -0.01653668
Cl       2.18721562       4.79175413      10.29666076      -0.01038105      -0.00135036      -0.01588948
Cl       2.29832124       7.14988193      11.99111368       0.00486500       0.00736558      -0.00312237
Cl       0.65881605       4.89497055      12.75499216       0.01232097       0.00358856       0.00876297
C        2.17258572       5.38875819      11.99513359       0.00292837       0.00733897      -0.00421542
Cl       7.06322362      14.00523567       4.63797806      -0.00697900       0.00883129       0.00932956
Cl       9.57967163      15.44548810       4.84182480       0.00040483      -0.00299271      -0.01263854
Cl       7.10880442      16.89160654       4.44208800       0.00617960       0.00732768      -0.01024334
Cl       8.19670550      15.29079899       2.29484678      -0.01232550      -0.01261675      -0.00439608
C        7.99192763      15.40565396       4.05016111      -0.00360069       0.00070656      -0.00449032
Cl       4.11003299      15.64228716       2.22712564       0.01680205       0.01834892       0.00362816
Cl       4.44854647      15.40372665      -0.64167431       0.00075045      -0.00339872       0.00309435
Cl       5.45994298      17.73879341       0.76000700       0.00670475       0.00772372      -0.02165598
Cl       2.59540725      17.37419430       0.42101569       0.00572914       0.00246599      -0.00144191
C        4.12670061      16.55932226       0.67404331       0.00805634       0.00564137      -0.00370857
Cl       2.87417049       2.99103735       6.12287078      -0.00482345       0.01708046      -0.00563020
Cl       4.25605691       2.74722693       3.57271899      -0.00049078       0.00916515      -0.00189617
Cl       1.68522712       1.50104463       3.89254142       0.00009477       0.00816904       0.00051558
Cl       4.00238398       0.44583660       5.32315008      -0.00116542       0.01565033       0.00640908
C        3.18577969       1.91876655       4.70184741      -0.00059469       0.01099360      -0.00106196
Cl      11.94684520       5.41194841       9.22256715       0.00311315      -0.00266753       0.00472156
Cl      14.60305576       6.21129041       8.39219798       0.00409967       0.00179142       0.01332751
Cl      14.15858718       3.55857555       9.48680359       0.00240013      -0.00319159      -0.00040847
Cl      14.01716198       5.88030946      11.21083344      -0.00100252      -0.01223636       0.01041982
C       13.68196623       5.26801814       9.57861780       0.00213008      -0.00415280       0.00726530
Cl       1.22883724       0.53284642      14.72921022      -0.00656968      -0.00973585      -0.00008118
Cl       2.05571883      -1.23486907      12.53246837      -0.00913073       0.00500065      -0.01155302
Cl       3.96625303       0.53899484      13.80550781      -0.00677681      -0.00519944      -0.00261745
Cl       1.86094881       1.62583783      12.11394239      -0.00886035       0.00534564       0.00780445
C        2.25987674       0.35714107      13.34726759      -0.00766537      -0.00223225      -0.00098148
Cl      -0.17638208       8.26122842       9.52995043       0.01471826       0.01073940       0.00002706
Cl      -0.74241976       9.33053100       6.89291072      -0.00547889      -0.00792786      -0.00255740
Cl       0.84843962       6.92470138       7.16669904       0.02599211       0.01466858       0.00373712
Cl       1.93991362       9.48869625       7.99402852      -0.00536895       0.03066832      -0.01020945
C        0.46493838       8.49060134       7.90457070       0.00666648       0.01157248      -0.00230980
