145
Lattice="12.561473902867121 0.0 0.0 0.0 12.561473902867121 0.0 0.0 0.0 12.561473902867121" Properties=species:S:1:pos:R:3:forces:R:3 energy=-1513863.875 stress="-0.0021826718002557755 -0.001697585394140333 -0.000916524266358465 -0.001697585394140333 0.00011158267443533987 -0.0008391409064643085 -0.000916524266358465 -0.0008391409064643085 -0.004793303553014994" pbc="T T T"
Re       8.61295487      11.89581159      11.17893705      -0.00257713      -0.00970031      -0.00576419
Re       6.16765891      12.23567867      12.02219732      -0.00177203      -0.00625271      -0.00186098
O       10.66968496      11.34586276      10.75534384      -0.00509721      -0.00454077       0.00386110
O       11.99418729       9.29850837      11.96535583       0.00366376       0.00085412       0.00179815
O        8.90621118      11.07629484      12.76402395      -0.00396971      -0.00697361      -0.00291895
O       13.08858335      11.65622149      11.75777185      -0.00210690       0.00164354      -0.00395870
Cr      12.13480271      10.66203970      11.01418108      -0.00237283      -0.00046641       0.00004387
Cr      11.61266634       7.45986163      12.06644880       0.00047553       0.00277352       0.01072927
O       12.19406754       6.88707346      13.42625352       0.00060868       0.00860703       0.01285672
O       10.02295229       7.32929915      11.98588103       0.00061774       0.00570846       0.01215214
O       12.30994404       6.74184909      10.82854004      -0.00110042      -0.00304782       0.01383328
O        8.79803613       4.79403562       7.76921924      -0.03198957      -0.01418799      -0.00798225
O        8.83729076       3.56147278      10.24609322      -0.03303569      -0.00586446      -0.00041845
O        6.59426270       3.66784190       8.58462104      -0.03861356       0.01118982       0.00702405
O        7.39376390       5.93774715       9.63291102      -0.00694805       0.00321913       0.00032544
Cr       7.86538314       4.52629416       9.02357148      -0.02719557      -0.00202924      -0.00203586
Cr       9.50620449       2.96513476      11.65289608      -0.00346875       0.00200704      -0.01276749
O        9.72880357       4.52116769      12.54170236       0.01363291      -0.00203970      -0.01841356
O        8.97285463       1.02493843      10.97985660      -0.00778865      -0.01072764      -0.00849828
O       11.01483664       2.62672675      11.54715996      -0.00710762      -0.00235048      -0.04628829
O        7.83544977      11.49132942       6.78898326       0.01883566      -0.00006631      -0.01119381
O        5.95468446      10.95053754       4.75942248      -0.00332868      -0.01248825       0.01381199
O        6.51741708       9.11864834       6.66610811       0.01429027       0.00204134       0.02102202
O        8.27654672       9.58651910       4.91079138      -0.00469899      -0.01456654      -0.00115663
Cr       7.14066193      10.23525469       5.76748499       0.00611903      -0.00594401       0.00604430
Cr       5.73374988      11.10889954       2.98963042      -0.00430393      -0.00981885       0.01489919
O        6.29780720      13.88492299      -0.38282558       0.00408573      -0.00641751      -0.00462147
O        4.34602373      10.43545910       2.72197608      -0.00684249      -0.00195348       0.01032071
O        5.54750877      12.66959041       2.80977967       0.00831197      -0.00911713       0.01344830
O        2.64381332       7.01671187       6.88768661       0.02009930       0.02698398       0.01567757
O        2.43387027       9.67598081       7.67565817      -0.02112383       0.03193706      -0.02485633
O        1.35781965       8.71522389       5.29920370       0.00750518      -0.02074361      -0.01760483
O        3.97120896       8.75104299       5.45700806       0.00482178       0.02417377      -0.00286639
Cr       2.60994793       8.47718164       6.25271629       0.00460309       0.01591802      -0.00701594
Cr       2.02111090       9.72568462       9.29583154      -0.00947917       0.02049589      -0.02224153
O        2.87526522      10.83396758      10.01574448      -0.01192617       0.01738191      -0.01461107
O        0.29076671      10.16993149       9.53578935      -0.01096220       0.00303041      -0.00410318
O        2.31332726       8.34468701       9.99562560       0.00267714       0.01549709      -0.03977674
O       10.78802561      10.50426072       4.41969136      -0.01114000       0.00688529      -0.00307167
O        9.54888692       9.50927678       2.15685887      -0.00649429      -0.00484175       0.00182155
O       10.51912948       7.79568973       4.14512032       0.00300891       0.00604153       0.01304469
O       12.17925728       9.29835636       2.62715175      -0.00665510       0.00658190       0.00253803
Cr      10.79821071       9.35412167       3.35470525      -0.00690460       0.00271416       0.00178419
Cr       8.05339564       9.92122482       1.38124838      -0.00458513      -0.00085822      -0.00230999
O        7.73176052       8.75322102       0.42779963      -0.01117000      -0.00342780       0.00437152
O        6.91566344       9.72419668       2.65079933      -0.00230922       0.00607729       0.00594294
O        6.56622312      11.25084012       0.94852528      -0.00106806      -0.00246549      -0.00306292
O       11.94013114       4.37610290       3.42244850       0.00815403       0.00642967       0.01648539
O        9.49689352       4.00589752       2.83737347       0.01518556       0.01277371      -0.01337385
O       11.02493397       6.76650768       3.42435479       0.00775787       0.00514561       0.01783109
O       10.33211427       4.75345184       5.31773766      -0.00824136      -0.00616169       0.00344610
Cr      10.59264027       5.05809213       3.81798133       0.00537407       0.00470972       0.00859189
Cr       8.20732660       3.55505063       1.85265105       0.01636490       0.00433035      -0.00821298
O        6.77894621       4.10794231       2.13184963       0.01843989       0.00793821      -0.01022670
O        8.55682430       4.84848555       0.58501657       0.01084839      -0.00159863      -0.02108803
O        8.61772757       2.43596523       0.52085125       0.01738681      -0.00453436      -0.00435042
O        8.22991827      -0.69017230       2.97645437       0.01485837       0.00806117       0.00068337
O        9.21732694       0.76385976       5.12275810       0.00555348       0.01705416      -0.00167061
O        7.95085296       1.94633958       2.90822602       0.01210237       0.00944757      -0.00854249
O       10.30922802       0.79650727       2.62637703       0.01288676       0.00988802       0.00174528
Cr       8.93946058       0.69582130       3.36016576       0.01103947       0.00939012      -0.00227511
Cr       8.16265476       0.62420245       6.49603033       0.00241268       0.00315118      -0.00619441
O        8.86808966       1.22922292       7.75490010      -0.00802755       0.00759846      -0.00270355
O        6.82041356       1.37157586       6.19490250      -0.00330198      -0.00923961      -0.00897926
O        8.15811361      -1.58346611       9.81314402      -0.00514971      -0.01108578      -0.00345629
O        2.21594911       2.79395996       1.55629541       0.01550043       0.00313389       0.00107300
O        2.14591214       1.83855519       3.56501569       0.01301470      -0.00152096      -0.00209403
O        0.33724349       1.73975709       2.23695016       0.01089668       0.01153398      -0.00148833
C        3.57709477       2.79655654       2.03056856       0.01627213      -0.00476523       0.00072241
C        3.41547745       2.51802834       3.51455728       0.01561612      -0.00602747      -0.00097626
C        1.45693474       2.10081901       2.42716999       0.01371062       0.00526392      -0.00042064
H        4.02744959       3.76032477       1.81140627       0.02162555      -0.00758821       0.00222068
H        4.12583747       2.00863412       1.51484952       0.01170278      -0.00587517      -0.00141037
H        4.18107752       1.85665372       3.91201773       0.01191533      -0.00973761      -0.00083618
H        3.32560506       3.42793641       4.10764455       0.01698598      -0.00720429       0.00030416
O        6.51620887       6.64603961       4.93730739       0.01358300       0.00598335       0.01229195
O        7.37258562       4.60704942       5.04118784      -0.00420326      -0.00159079      -0.01150921
O        8.45103650       6.21314403       3.89898517       0.00712860       0.00088990       0.00464833
C        5.67949777       5.94294504       5.88841431       0.00787143       0.00340343       0.00458302
C        6.06743522       4.49349663       5.66145158      -0.00234626       0.00288880      -0.00769247
C        7.51972461       5.84651818       4.58132904       0.00585198       0.00171347       0.00189009
H        4.63960525       6.17724234       5.67978765       0.01007766       0.01277646       0.00547205
H        5.94563983       6.29233984       6.88631746       0.00900045      -0.00799528       0.00782669
H        6.17712201       3.91332603       6.57643024      -0.00360234      -0.00397220      -0.01254505
H        5.41311568       3.98895024       4.95239626      -0.00800157       0.01302510      -0.00892544
O       12.77150400       2.50252042       7.23845071       0.00717474      -0.00166273       0.00099009
O       12.57659357       0.28728882       7.19816654       0.00460124       0.00002253      -0.00206620
O       13.31301503       1.30843819       9.06833688       0.00520992      -0.00388439      -0.00023270
C       12.12560636       2.20453480       5.98048544       0.00680465       0.00019121       0.00074109
C       12.36643075       0.71375554       5.83250902       0.00584590       0.00064546      -0.00054092
C       12.91989047       1.36290396       7.93872526       0.00576177      -0.00189981      -0.00033295
H       12.58440815       2.80911398       5.20173535       0.00712961      -0.00022563       0.00093132
H       11.06963697       2.45827193       6.07374320       0.00701791       0.00037697       0.00095448
H       11.52185589       0.16574089       5.42562137       0.00587493       0.00100511      -0.00061664
H       13.26700637       0.49253081       5.26030242       0.00514281       0.00211458      -0.00135201
O        3.83108210       5.41563478      11.04613559      -0.01395193       0.01112163      -0.01795665
O        4.14418014       3.31170353      10.40562084      -0.02318004      -0.00044417       0.01960024
O        5.62833147       4.28674244      11.80327187      -0.03073549       0.01132974       0.01875627
C        2.58444716       5.01043287      10.41730963      -0.01010223       0.01033711      -0.02394885
C        3.02882439       3.80579209       9.61776757      -0.01172468      -0.00564688       0.00110123
C        4.63616534       4.32116786      11.13508637      -0.02334225       0.00748696       0.00759035
H        2.20024467       5.84178960       9.83330389       0.00287856       0.00330234      -0.04131326
H        1.87364097       4.76003610      11.20723740      -0.01991439       0.02946025      -0.02755737
H        2.28689245       3.01413071       9.53669194      -0.01674044      -0.00122476       0.00724084
H        3.40825494       4.08206147       8.63217191       0.00114456      -0.02530384       0.00127727
O       11.55527107       7.59519987       8.20615676       0.00073582      -0.00233221       0.01261616
O        9.93661476       7.40008761       6.69201160       0.00093639      -0.01699040       0.01497585
O       12.03159602       6.72983020       6.18506196       0.00058007      -0.01726830       0.01992321
C       10.34444152       7.83751931       8.92522743      -0.00006777       0.00063041       0.01021951
C        9.30501214       7.98594782       7.82665444       0.00271893      -0.00239118       0.00820863
C       11.25206743       7.19235595       6.95400378       0.00164950      -0.01287648       0.01547664
H       10.46090274       8.73860521       9.52457952      -0.00045360       0.00227007       0.00720042
H       10.14215730       6.99648958       9.58549746      -0.00134707       0.00270790       0.01214224
H        8.39389339       7.43125321       8.04298670      -0.00136763       0.00624827       0.01091731
H        9.07075051       9.02910343       7.60669033       0.01057017      -0.00312096      -0.00130846
O        2.17618113       6.70573955       2.38148038       0.01241028      -0.00930142       0.00835961
O        4.02489110       5.80815587       3.23931140       0.02101886       0.00090575      -0.00117052
O        2.04320014       5.40392740       4.22862979       0.03765142       0.00519586       0.00249171
C        3.19095214       6.82067859       1.36557006       0.00496078      -0.00534175       0.00292394
C        4.46655882       6.66853958       2.16788924       0.01066607      -0.00054106      -0.00623959
C        2.67203900       5.93510847       3.36866868       0.01239556      -0.01013198       0.01896071
H        3.09030290       7.77559582       0.86000839      -0.00135097      -0.00488526       0.00371949
H        3.04575699       6.01849387       0.64297993       0.00368516      -0.00577503       0.00266567
H        5.27485826       6.17034141       1.63613103       0.00824782      -0.00011805      -0.01098874
H        4.80957254       7.60738353       2.60728149       0.01156765       0.00163507      -0.01026753
O        5.75434274       9.50999527      11.12643053      -0.01159006      -0.00842711       0.00378063
O        5.38551260       9.69764985       8.96619331      -0.02023850      -0.01005353       0.00590247
O        5.55004658      11.52768255      10.24446706      -0.00723454      -0.00923090       0.00152490
C        5.95415688       8.13389462      10.63041123      -0.01578385      -0.00895721       0.00417644
C        5.49824516       8.24771227       9.18277020      -0.02122028      -0.01014912       0.00634700
C        5.55122870      10.28672706      10.09534242      -0.01285037      -0.00920688       0.00388619
H        5.34645878       7.46800628      11.23062658      -0.01402643      -0.00792000       0.00674060
H        7.00700174       7.90204109      10.74525362      -0.01603657      -0.01025188       0.00020294
H        6.23503266       7.88677128       8.47979360      -0.02447343      -0.01042122       0.00341597
H        4.51909273       7.82099568       8.98228702      -0.02210784      -0.00903623       0.00990406
O        2.43628397      12.20525985       1.39350940      -0.00044240      -0.00156736       0.00102341
O        2.90792281      10.26068504       0.47564773      -0.00305982      -0.00198880       0.00165437
O        4.11872334      12.07034242      -0.03610161      -0.00099698      -0.00377176       0.00169539
C        1.44566162      11.31187945       1.97986006       0.00002292      -0.00028473       0.00288323
C        1.81877191       9.95203022       1.39760084      -0.00333360      -0.00046861       0.00168100
C        3.19885823      11.52637214       0.58278140      -0.00125444      -0.00225807       0.00142625
H        0.47059375      11.68198092       1.68258798      -0.00010979       0.00095689       0.00564505
H        1.56483885      11.35703735       3.05771323       0.00281702      -0.00091847       0.00242776
H        2.19946420       9.27049117       2.15057280      -0.00499836      -0.00223079       0.00066921
H        1.03506160       9.48469656       0.81665520      -0.00464791       0.00206035       0.00212371
