147
Lattice="16.19249155218221 0.0 0.0 0.0 16.19249155218221 0.0 0.0 0.0 16.19249155218221" Properties=species:S:1:pos:R:3:forces:R:3 energy=-1924327.5 stress="-7.104160613380373e-05 7.607224006278557e-07 -0.00012412533760652877 7.607224006278557e-07 0.00026896156487055123 -2.9325182367756497e-05 -0.00012412533760652877 -2.9325182367756497e-05 -0.0005335701280273497" pbc="T T T"
Re       4.27739538      15.17600718      10.06544556      -0.01466000       0.01709601       0.01357189
Re       1.55878193      15.02504654       7.01207974      -0.00529873       0.00487974       0.00461732
S       13.76000952      14.27632082      10.26684751       0.00531135       0.01330552      -0.01740856
O       12.49890500      14.77897326      10.83923992      -0.00350475       0.00119472      -0.00617611
O       13.61909174      14.19855313       8.79912937      -0.01522683       0.00075935      -0.02401638
O       14.85540195      15.19307239      10.62645273       0.01074886       0.03538716      -0.02922046
O       14.06712130      12.93966416      10.80487556       0.01818812       0.01031423      -0.00977385
S        8.43723473       8.40308200       5.69705492      -0.00344461      -0.00165379       0.00239223
O        7.32311381       9.09074596       6.34962338      -0.00497556      -0.00512505       0.00314224
O        7.71575597       7.66465890       4.34012746      -0.00105083      -0.00407010       0.00360429
O        9.31155716       9.27991048       4.95773522      -0.00646996       0.00108147       0.00184226
O        9.01634480       7.35548794       6.48016937       0.00039327       0.00088882       0.00312495
S        5.31984039       6.77575027       4.31498941      -0.00181478      -0.00080673      -0.00106737
O        5.33574876       7.34457696       2.98266591       0.00468682      -0.00437224      -0.00256896
O        4.83407776       5.42822948       4.43551989      -0.00448024       0.00028563       0.00014094
O        6.95152227       6.50911382       4.70537652      -0.00412571      -0.00214706       0.00649026
O        4.87606172       7.72846311       5.31791365      -0.00492936       0.00183797      -0.00516820
S        1.09307318      12.48305496       7.99332800      -0.02763563      -0.02835450      -0.01992828
O        2.21060648      12.04120798       8.77997104       0.01873696      -0.00268644       0.01330578
O        1.78811713      13.17818874       6.62987444       0.01103374       0.00683890       0.00877154
O        0.11023926      11.54656151       7.58358102       0.03790164       0.01785731       0.00546592
O        0.55645804      13.81224760       8.48867419       0.00018924      -0.00092316       0.00673503
S       13.39919875       9.49163181       4.02658108      -0.00325909       0.00715042       0.00329259
O       14.72607573       9.68334359       3.38315914      -0.00395703       0.00615630       0.00196791
O       12.50477870       8.79250694       3.08500134      -0.00474703       0.00886691       0.00305367
O       13.56640220       8.70103310       5.25284744      -0.00300348       0.00639832       0.00233293
O       12.82727148      10.81463762       4.33406565      -0.00183237       0.00757647       0.00431818
S       12.80247904       8.76492933      12.41914897      -0.00346769      -0.00868974      -0.00885455
O       12.12221242       7.89975519      11.43774503      -0.00800049      -0.00165725      -0.01157033
O       13.07337915       7.98193439      13.63965087      -0.00783539      -0.01209211      -0.00989914
O       14.06687278       9.25675523      11.84148282      -0.00018024      -0.01507521      -0.00678122
O       11.94465736       9.91887605      12.75275275       0.00290477      -0.00459909      -0.00664663
S        6.94360171       3.85306857       7.71329313      -0.00274049      -0.02061714       0.01018864
O        6.18813649       5.02969075       7.24032736      -0.00703144      -0.02810192      -0.00039184
O        6.87581421       3.81151535       9.18779020      -0.00624608      -0.01025902       0.01182580
O        6.34171881       2.61943100       7.15977291      -0.00172400      -0.02428699       0.01592672
O        8.33785189       3.95473332       7.25787472      -0.00308418      -0.02412067       0.00968993
Cl       3.84710188       6.70685950       8.19100164      -0.00048918      -0.00125867       0.00056291
Cl       2.70868712       9.23727112       9.10574949      -0.00314677      -0.00386965       0.00404555
Cl       1.48032178       6.73861086       9.91874821       0.00433266      -0.00632143       0.00736649
C        3.01551120       7.53926855       9.47888160       0.00128525      -0.00312873       0.00306594
H        3.64079940       7.51437136      10.36193657       0.00371525      -0.00188779       0.00112271
Cl      10.15618901       2.96571785       4.81634475       0.00831748      -0.00093466       0.00305286
Cl      11.05906518       0.20241379       4.87278650       0.00476971      -0.00235051       0.00192636
Cl       8.21059143       0.81062364       4.87302961       0.00651437       0.00106470       0.02541247
C        9.80702455       1.33303624       4.30589669       0.00174353      -0.00181684       0.00996697
H        9.80557754       1.29396626       3.22405860      -0.00675797      -0.00401415       0.01007557
Cl      10.02824684      14.97174403      13.51636822       0.00547379      -0.00287661      -0.00583619
Cl      11.96997239      12.79648156      13.56767803       0.00836530      -0.00036407      -0.00571787
Cl      12.85751593      15.54646650      13.98706520       0.00412905      -0.00027996       0.00004080
C       11.55543270      14.36819442      14.20375550       0.00551641      -0.00178234      -0.00406688
H       11.39025759      14.26784566      15.26886337       0.00397633      -0.00370235      -0.00437450
Cl      10.15857152      12.20616714      10.00333791      -0.00253171       0.00249535      -0.00869370
Cl      12.37404705      10.48366150       9.19520867       0.00868940       0.00956416       0.00351867
Cl      10.47049379      11.42062988       7.20126762       0.00734079      -0.00944081      -0.00499058
C       11.31444122      11.79706109       8.71461678       0.00279714       0.00158775      -0.00366487
H       11.93291053      12.67115863       8.54772985      -0.00128114       0.00451630      -0.00806018
Cl       8.17875219       4.53509080      -0.71625812      -0.00091445       0.00122640      -0.00495869
Cl       7.84021951       4.33628760       2.17605717      -0.00317448       0.03988434      -0.00493813
Cl       5.65168397       5.30848517       0.52060793      -0.01369369      -0.01251554      -0.02176751
C        7.04959647       4.23109890       0.60607759       0.00024683       0.00613096      -0.00233865
H        6.68239020       3.21983206       0.49606248       0.01251866       0.00017089       0.01072463
Cl      12.07578371       2.99564916       1.55452933      -0.01162297       0.01261973      -0.00571698
Cl      14.85737980       3.32775193       2.33784870      -0.01549208      -0.00638738       0.01550052
Cl      13.13831579       5.67482506       2.01624021       0.00262940       0.00503290       0.00169191
C       13.21624747       3.99463871       2.48442441      -0.01213711       0.00476912       0.00267272
H       12.93144628       3.92024898       3.52670459      -0.02017002       0.00672046       0.00058842
Cl      13.49502264      13.48316838       3.51235860       0.00140914       0.00896978       0.00632021
Cl      15.62506167      15.31075890       2.69467841       0.00676829      -0.00256297      -0.00445995
Cl      13.00082858      15.49598947       1.44711329       0.00395003       0.00702307       0.00395870
C       13.87857913      15.09674712       2.93609685       0.00640101       0.00596219       0.00182512
H       13.56948298      15.81536152       3.68333939       0.01234525       0.00880891       0.00155678
Cl       6.77223913      10.02126956       1.95271436      -0.00304264       0.00408284      -0.00079280
Cl       6.74363496      11.64550379       4.33911062      -0.00499773       0.00048134       0.00192515
Cl       4.24759997      10.63013459       3.26316102      -0.00291044      -0.00619560       0.00348184
C        5.95265799      10.26796543       3.46866096      -0.00147077      -0.00063033       0.00082806
H        6.06145864       9.38780768       4.09797901       0.00193970      -0.00136530      -0.00065270
Cl       9.85282450       2.10422579      12.08133394       0.00993198       0.00591707      -0.00043344
Cl       9.90910535       4.99169024      12.50812076      -0.02311936       0.01032144      -0.02826470
Cl      10.54333768       3.90139127       9.89122153       0.00996166      -0.00974962      -0.01114666
C        9.58433495       3.69291650      11.33986542       0.00044399      -0.00468614      -0.01716408
H        8.54057355       3.75868948      11.05596208       0.00263786      -0.01669601      -0.02936241
Cl       3.74284753      10.45537811      -0.16345190      -0.00347429       0.01167166       0.00308311
Cl       2.50274610      13.06368709       0.22793795      -0.00127423       0.01873922      -0.03681642
Cl       5.36107105      12.86065500      -0.33176297       0.00159824       0.00614068      -0.01504034
C        3.76393453      12.15963961      -0.60894212       0.00219277       0.00598381      -0.01726888
H        3.55731058      12.21799884      -1.66865007       0.00941088      -0.00627296      -0.01922336
Cl       9.32109284       8.52746588      10.33665009      -0.00662494       0.00410749      -0.00345320
Cl       6.61188086       9.64683350      10.17706317      -0.00855964       0.00145507       0.01221508
Cl       7.03424391       6.74638822      10.11131980      -0.00380746       0.00238264      -0.00996298
C        7.64436264       8.27423978      10.72844182      -0.00474700      -0.00112659      -0.00046957
H        7.54445816       8.26464035      11.80534757      -0.00152289      -0.00857739      -0.00010049
Cl       4.76214344       2.75666613      12.98555861       0.01243919      -0.00511935       0.01300484
Cl       1.98904930       3.12191185      13.83122751       0.01327628      -0.00344853      -0.00243503
Cl       3.44853829       0.73023043      14.63399305       0.00785808       0.00375593       0.00550888
C        3.56893075       2.45438327      14.25744351       0.01872970       0.00325477      -0.00324747
H        3.91070561       2.96598848      15.14920340       0.00438704       0.00150797      -0.00002274
Cl       5.86549407      12.90498402       7.26779975       0.00806672      -0.01304230       0.01499300
Cl       5.02845133      13.47602046      11.18376453      -0.01668859       0.01353478       0.00783247
Cl       4.40126559      10.53165951       6.57990646      -0.00934479       0.00266571       0.00099432
C        5.82562700      11.31114718       6.74799018      -0.00390416      -0.00889575       0.00471263
H        6.73045577      10.68043453       6.75580299      -0.00739047      -0.01540446      -0.00309454
Cl       8.72107187      10.88505156      13.42240823       0.00193448      -0.00146657      -0.00207001
Cl       6.75004745       8.97968975      14.40572007       0.00393122      -0.00058275       0.00424025
Cl       9.57480511       8.24293724      14.29541454       0.00485098       0.00184536       0.00496104
C        8.43481516       9.55034966      14.53354577       0.00351249       0.00139405       0.00162584
H        8.56022360       9.92551581      15.54109064       0.00359380       0.00425223       0.00043887
Cl       0.44818948       8.81835124      12.85220909      -0.00232577      -0.00641271       0.00701457
Cl       2.25301478       6.70540555      13.73842553       0.00186307       0.00139397       0.01614699
Cl       3.34745076       9.19002667      12.67214783      -0.00296628      -0.00091249       0.00701058
C        1.98629094       8.45445497      13.56942049      -0.00197068      -0.00048981       0.00943959
H        2.01996973       8.87698462      14.56468998      -0.00340318       0.00389212       0.00767338
Cl       9.13011707      14.08387910       2.68964039       0.00571620       0.00284541      -0.00742078
Cl      10.05227498      11.32475270       2.89292808      -0.00399902       0.00093031       0.00283492
Cl       9.50869473      12.49376346       0.27105877       0.00688335      -0.00437713      -0.00186777
C       10.07974983      12.77046449       1.94027577       0.00363791      -0.00200555      -0.00114803
H       11.09918953      13.12694259       1.86468607       0.00521380      -0.00633240      -0.00008618
Cl       2.84003873      15.71720002       8.63125850      -0.01374233       0.01152933       0.00734815
Cl      -0.27214871      16.20615688       6.58317856      -0.01660144      -0.01262555      -0.00304758
Cl       4.30682577      16.32106450       5.80560818      -0.00639169       0.00051232       0.00894131
C        2.76422287      15.57558298       5.67352042      -0.01571081       0.01807875       0.01012982
H        2.57671477      15.30456683       4.62831330      -0.02734697       0.04048633       0.00337917
Cl       4.68329966       2.34058926       2.50604176       0.00926870      -0.00216514       0.01885777
Cl       4.02733774      -0.47761566       2.08953658      -0.00232539       0.00203538       0.00440760
Cl       6.51909021       0.58946773       1.04434254       0.00369874      -0.00188100       0.01265121
C        5.31423467       0.71423384       2.34683485       0.00195597      -0.00408548       0.01142265
H        5.82194284       0.45431911       3.26488532       0.00039208      -0.01057532       0.01045215
Cl      12.09302050       6.86494433       8.15540887       0.01402247      -0.00109625       0.00156903
Cl      13.61028612       4.56971641       7.20685853       0.01727992       0.00813949      -0.01498002
Cl      11.74704441       5.93100723       5.41945219      -0.00534391       0.00111629       0.00355941
C       12.86077235       6.13404847       6.77078954       0.00561851       0.00481371      -0.00588666
H       13.64586297       6.79360884       6.43020165      -0.00101936       0.00928336      -0.01186368
Cl      -0.06655834       6.02058360       4.35114491      -0.00353624      -0.00205600      -0.00059700
Cl       0.53359980       7.93772771       6.46464902      -0.00388059      -0.01006250       0.00632048
Cl       1.92984392       8.10049609       3.91305947      -0.00743389       0.00272447       0.00555223
C        0.41878012       7.69000697       4.72166323      -0.00580907      -0.00295427       0.00562645
H       -0.34931781       8.35281244       4.33483693      -0.00716829      -0.00257719       0.00927961
Cl       0.96358924       3.70561075       7.36973412       0.00665033      -0.01626597      -0.00335521
Cl       1.41189275       2.50777511      10.00151743       0.00422484      -0.02670884       0.01858842
Cl       3.62849338       2.77273305       8.12181121       0.02017009       0.01331508      -0.00530413
C        2.11621067       3.47645508       8.67775082       0.01788096       0.00414945      -0.01102442
H        2.33603781       4.45089629       9.09028782       0.00303578       0.00978523      -0.00521287
Cl      14.90420034      12.62820644       0.13114367      -0.00783315      -0.00463945       0.00916108
Cl      13.52057329      10.10167306      -0.25778827       0.01048928      -0.01058334      -0.01460892
Cl      16.39189677      10.11850301       0.25780047       0.00628078       0.00424990       0.00968038
C       14.82015991      10.90641194       0.57408206      -0.00137111      -0.00705797       0.00013638
H       14.66582165      10.82452264       1.64610912      -0.00911546      -0.01293911      -0.00134188
