149
Lattice="11.59114211191707 0.0 0.0 0.0 11.59114211191707 0.0 0.0 0.0 11.59114211191707" Properties=species:S:1:pos:R:3:forces:R:3 energy=-1113789.125 stress="-0.0011377002811059356 -0.0009675435721874237 0.0012041457230225205 -0.0009675435721874237 0.0024681889917701483 0.00019428237283136696 0.0012041457230225205 0.00019428237283136696 0.0006209001294337213" pbc="T T T"
Re       6.09164430      11.18036911       2.96026965      -0.00113913       0.00140462      -0.00279531
Re       9.93731286      12.04480219      10.76465424       0.00392193      -0.00828740      -0.00142127
S        8.09536399       5.25917620       3.51340201       0.00608945      -0.00219682       0.00943403
O        7.00144674       6.17146727       3.81616054       0.00501779      -0.00087278       0.00485393
O        8.60351515       5.34776145       2.16994813       0.01542301      -0.00192242       0.01625168
O        9.08316960       5.13335799       4.55804024       0.00036502      -0.00392901       0.01954955
O        7.18406802       3.81658319       3.57068801       0.00509982      -0.00088492       0.00496376
S        3.39049373       3.71951379       1.27940834      -0.00024234       0.00015135       0.00416759
O        3.56428278       4.53186327      -0.09874616       0.00140829       0.00573564       0.00732104
O        3.23659372       2.35920551       0.80336704       0.00190808       0.00148767      -0.00040638
O        4.62238546       3.92403113       2.04488144      -0.00183403      -0.00054045       0.00668713
O        2.22500169       4.29974453       1.92929605      -0.00274992      -0.00410104       0.00420430
S        7.76128842       2.36808709       3.16228497      -0.00124231       0.00141039      -0.00492762
O        8.05190129       2.37646043       1.74604618       0.00038201       0.00247509      -0.00088900
O       11.41608203       0.57638670      -0.04978743       0.00195575      -0.00060908       0.00042179
O        8.85154952       2.06317824       4.03579100       0.00811562      -0.00431308      -0.00049531
O        6.50893117       1.58130095       3.46025106       0.00193411       0.00065786      -0.00069095
S        9.05967517      10.15717166       3.70948975      -0.00460929      -0.00555445       0.00206019
O        9.58975495      10.77474826       2.49633528      -0.00347486      -0.01102626      -0.00029135
O        7.69310651      10.88090240       4.04966003      -0.00331259      -0.00223139       0.00012690
O        8.74409314       8.74129464       3.53333484      -0.00669813      -0.00539708       0.00751711
O        9.88924946      10.42239637       4.88167687      -0.00309986      -0.00168493       0.00078386
S        3.56838295       6.66262435       5.93728094       0.00766355       0.00360638       0.00696534
O        2.16567547       7.00761077       5.95104490       0.00890338       0.01023419       0.00447144
O        3.54613434       5.60674528       4.61371571       0.00207255      -0.00361761       0.01220840
O        4.45542538       7.74403659       5.54474932       0.01336581      -0.00377876       0.00019804
O        4.05063320       5.84765909       7.02705267       0.00316525       0.00781929       0.01192322
S        5.97222913       2.34794765       8.05997115      -0.00191438       0.01367585       0.00143590
O        6.69322910       3.59889710       8.32619844       0.01113796       0.00666350      -0.00045279
O        5.65623825       2.16543939       6.64800128      -0.00648844       0.01884191       0.00095642
O        7.06051070       1.18392262       8.35525388      -0.01209539       0.00304091      -0.00312200
O        4.87236212       2.09980716       8.96428142      -0.00175345       0.02406797       0.00318998
S        3.70733882       9.92597263       1.15684600      -0.01008003       0.01396036      -0.00318876
O        3.36852667       8.63065069       1.77314087      -0.00681959       0.01009977      -0.00916374
O        4.23555055      10.81874095       2.38990000      -0.00392032       0.00868452      -0.00330985
O        4.80990765       9.78007767       0.21059761      -0.01603383       0.01731549      -0.01071519
O        2.56365701      10.64939336       0.64016479      -0.01345545       0.01680636       0.00670186
N        7.23170315       6.54016593       7.02329718       0.00776321      -0.00875274       0.00563580
H        6.82753265       5.62573126       7.21644579       0.00310778      -0.00814990      -0.00067989
H        6.44435299       7.12958468       6.77013184       0.01011432      -0.00307070       0.01136672
H        7.76903756       6.42682914       6.16838673       0.01107831      -0.00293120       0.00719541
N        0.84258689       3.53594771      10.36718597       0.00203848      -0.00749708      -0.00466089
H        1.46238803       2.83528306      10.76694625      -0.00697330      -0.00052959       0.02156900
H        1.43883683       4.34633961      10.22425412       0.00275373      -0.00593881       0.00578841
H        0.61781319       3.19264200       9.43832024       0.03617881      -0.01827431      -0.00892545
N        1.55702487       8.75686678       3.78113346      -0.00639069      -0.00192469      -0.00583112
H        2.35416363       8.69716113       3.10985702      -0.00695044      -0.00098416      -0.00629219
H        0.97739114       7.84246748       3.70601188      -0.00767013      -0.00208884      -0.00581780
H        1.90789154       8.85824522       4.72887974      -0.00576892      -0.00212395      -0.00589788
N        6.43207895       6.99614455      11.93892194       0.00987644       0.02234977      -0.00462395
H        6.94381243       6.71154564      12.76739786       0.01835930       0.02599303      -0.00812280
H        6.29875393       8.00141453      11.95726267       0.00813805       0.02256437      -0.00113220
H        7.21338247       6.32269410      10.64321432      -0.00111397       0.01216936       0.01089531
N        3.64167239       5.98119130       0.12997649      -0.00045705       0.00553850       0.01170135
H        3.02938588       6.31068825      -0.63307996      -0.00327484       0.00532201       0.01402432
H        3.09980208       6.14809582       0.98146149      -0.00212325       0.00162708       0.01153103
H        5.49236619       6.58243305       0.38080049       0.00899842       0.02445127       0.00923968
N        8.80695238      10.71759821      -0.17908499       0.00470477      -0.00623840       0.00193025
H        8.07572930      10.21252810      -0.77727577      -0.00264148       0.00349620      -0.00003521
H        8.88552761      10.50480537       0.83176720       0.00640477      -0.00966706       0.00157750
H        7.06906622      10.53201119       1.85214900      -0.00094266       0.00021117      -0.00189859
N        0.76367208       9.89403396       3.38788646      -0.00610995      -0.00147060      -0.00561823
H        1.22187881      11.67496884       2.93738989      -0.00033142      -0.00017613      -0.00295831
H        0.31093668       9.58767310       2.51626392      -0.00586356      -0.00071414      -0.00556937
H        0.03010520      10.01062484       4.08779147      -0.00638142      -0.00188239      -0.00575797
N        5.89576412       0.61201555       1.07558460       0.00184710       0.00313365      -0.00156331
H        5.70855454      -0.06548045       0.33609334      -0.00234424       0.00463939      -0.00184569
H        5.10376978       1.26087144       1.08430360       0.00532305       0.00716153      -0.00052608
H        6.73063123       1.15527296       0.86940461       0.00454953      -0.00041892      -0.00202167
N        9.35050983       2.85916443       7.03690465       0.00680949      -0.01226512      -0.00323632
H        9.01284880       2.21831037       6.32145871       0.00743651      -0.00685046      -0.00847759
H        9.84726151       3.57068423       6.51063532       0.01244415      -0.01127177       0.00330414
H        8.50450720       3.31204467       7.38187471       0.00736165      -0.01036688      -0.00453856
N        1.48696511       0.08378466       8.80872559       0.00704724       0.00079476       0.00154616
H        1.99828733      -0.61879582       8.28779011       0.01258346       0.00516190       0.00097341
H        1.78307961       0.00229305       9.77802121       0.00492167       0.00012179       0.00227153
H        1.81000615       0.99213911       8.46395711       0.00318319       0.00330497       0.00528055
N       -0.05116901       6.63120962       3.23353921      -0.00860637       0.00102341      -0.00214851
H       -0.80700138       7.10107479       2.74437496      -0.00556912       0.00098819      -0.00707499
H       -0.49320638       6.01286794       3.90558431      -0.01318025       0.00479319      -0.00154349
H        0.44283309       6.05156290       2.56265124      -0.00996402      -0.00348105       0.00065014
N        1.23255716       3.58975570       4.65990666      -0.01152965       0.00062288       0.00283620
H        1.48477873       3.94498248       3.74078564      -0.00687350      -0.00429492       0.00217222
H        1.35123518       4.36394976       5.30228052      -0.01192982       0.00360230      -0.00055069
H        0.24235031       3.37129667       4.63760226      -0.01225276       0.00384473      -0.00032242
N       11.73229809       8.85557024       0.67931013       0.00971094      -0.01441783      -0.01265407
H       12.30602507       8.12749993       0.27091367       0.00139318      -0.02190375      -0.01120871
H       12.16314701       9.73392525       0.40315822       0.02599225      -0.01947340      -0.00459508
H       10.80865911       8.81090635       0.26784691       0.01387748       0.00095745      -0.02396488
N        2.04968245       6.86267608       9.33676250      -0.01015066       0.01025297       0.00956389
H        2.72090291       6.46429469       8.68459395      -0.00554628       0.01447045       0.01160297
H        2.25703060       7.85517450       9.37023117      -0.01033988       0.01001815       0.01815542
H        1.13782956       6.77569543       8.89035261      -0.00680693       0.01394257       0.00198058
N        5.24941646      11.25072876       5.01202080      -0.00258139       0.00724886      -0.00258803
H        5.44775166      12.15073348       5.46661259      -0.00030239       0.00761884      -0.00512147
H        5.66201845      10.54263200       5.61150455      -0.00438815       0.00761929      -0.00070205
H        4.24514900      11.10803063       5.02042015      -0.00313878       0.01033509      -0.00196034
N       11.12587830       6.05136742       7.51390109       0.00030012       0.00461155      -0.00168499
H       10.23432426       6.16640413       7.04323984       0.00312561      -0.00776748      -0.01015226
H       11.17402831       5.07795313       7.79499251       0.00839069       0.00715146       0.00620460
H       11.84762247       6.19886888       6.81393880       0.00483044       0.00737287       0.00353135
N        4.74010162       4.85839956       4.49893430       0.00385958      -0.00035395       0.00799024
H        5.58101393       5.48219277       4.40735092       0.00222033       0.00156462       0.00720129
H        4.83445348       4.21509393       5.29545121       0.00790271      -0.00234842       0.00623065
H        4.64573564       4.35401443       3.56164791       0.00193968       0.00050232       0.00772339
N        1.45208939       1.08053651       2.75898420       0.00067842      -0.00015860      -0.00085267
H        0.62399338       1.67491842       2.42323003       0.00087506       0.00048447      -0.00145619
H        1.76733351       1.49197149       3.63799438       0.00018506      -0.00178531      -0.00000709
H        2.18230892       1.14253706       2.04672242       0.00135884      -0.00082123      -0.00027862
N       10.28033521       0.42067002       8.68312340       0.00234285      -0.01196137      -0.00189920
H       11.32816740       0.23808402       8.58971213       0.00226676      -0.00789993      -0.00243758
H        9.80825965      -0.39700759       8.27548112       0.00434577      -0.01603216       0.00239110
H       10.03072217       1.26126049       8.12452372      -0.00080597      -0.01370817      -0.00350660
N        5.96667180       9.02577519       3.20284543      -0.00602219       0.00100711      -0.00610870
H        6.90951650       8.65712541       3.38323154      -0.00718009      -0.00143832      -0.00241516
H        5.36314944       8.72390837       3.96759443      -0.00921145       0.00216767      -0.00827926
H        5.60514364       8.54034166       2.38591531      -0.00705476       0.00222677      -0.00636613
N        2.35744309       2.79503348       7.50760477      -0.00421686       0.01330167       0.00112540
H        2.22045261       3.78911117       7.65274293       0.00376458       0.01505478      -0.00242680
H        3.23323715       2.57993845       7.98517191      -0.00238770       0.01046748      -0.00338680
H        2.51809717       2.68763837       6.51117313      -0.01189295       0.00827813       0.00039244
N        7.05984558       9.75470017       9.53099424      -0.01217183       0.01227246       0.01494315
H        7.72316094       9.51390506       8.79628746      -0.02114600      -0.00261157       0.01252384
H        6.54736180      10.57321427       9.21849752      -0.01181662       0.00994866       0.00798355
H        6.39541570       9.00165190       9.65193886      -0.01315453       0.01608250       0.03294273
N        9.45239566       9.08392935       7.50886954       0.00326077       0.00906491       0.00710585
H        8.78786956       8.32141147       7.38780380       0.00240325       0.00863557       0.01446285
H        9.61456989       9.45408305       6.57060432      -0.00157777       0.00468353       0.00439511
H       10.30945046       8.62734435       7.80496026       0.00443469       0.00811766       0.00282018
N       10.30786503       5.69184129      -0.38425387      -0.01130193      -0.02026306      -0.01626235
H       10.01077536       5.71286567       0.58680530      -0.01152520      -0.02272370      -0.01621536
H       10.87644257       6.51144545      -0.55710009      -0.02081240      -0.01502974      -0.02103265
H       10.92523773       4.88736335      -0.50654059      -0.01221878      -0.01918162      -0.02445410
N        8.97641799       2.11274474      10.26558894       0.00080611      -0.01144999      -0.00627774
H        9.24194675       2.66251063       9.45006596       0.00400598      -0.01122738      -0.00504149
H        7.60542025       1.48423234       9.12795392      -0.00388810      -0.00277148      -0.00636989
H        8.63233056       2.72512021      11.00005848       0.00037415      -0.01036815      -0.00711951
N        7.79296352       5.81721077       9.87754191      -0.00822033      -0.00515097      -0.00414228
H        8.76849419       5.70695000      10.26589790      -0.00373372      -0.02101062      -0.03412993
H        7.79672772       6.35005552       8.99752839       0.01517842      -0.03957474      -0.02516598
H        7.36662979       4.91488477       9.64974301       0.01283342      -0.01221952      -0.01132587
N       12.15052273       0.58478152       5.75106201       0.01098841      -0.00848033       0.00017845
H       11.83989353      -0.14479301       6.38088756       0.01357216      -0.00681512       0.00349003
H       11.32689059       0.79849485       5.19587194       0.01094688      -0.01544569      -0.00242610
H       12.35829005       1.39638582       6.32382095       0.00360467      -0.00419027      -0.00308409
N       11.13183869       2.89365907       1.85054511      -0.00184911      -0.00395244      -0.00146016
H       11.51213540       3.15993441       0.94559842      -0.00583924      -0.00269328      -0.00249211
H       11.05266673       3.74725102       2.39133284      -0.00329993      -0.00344194      -0.00243374
H       10.18106600       2.57006820       1.70743529      -0.00193404      -0.00553223       0.00020594
