149
Lattice="12.697385880970224 0.0 0.0 0.0 12.697385880970224 0.0 0.0 0.0 12.697385880970224" Properties=species:S:1:pos:R:3:forces:R:3 energy=-696033.5625 stress="-0.000845287402626127 -7.377566726063378e-05 0.000437726266682148 -7.377566726063378e-05 -0.0008940031402744353 -6.194786146807019e-05 0.000437726266682148 -6.194786146807019e-05 -0.0007143444963730872" pbc="T T T"
Rh       0.85242973      12.31435548      -0.73128129       0.00401175       0.00556362      -0.00961444
Rh       1.04302978      12.53472594       1.57320579       0.01210089       0.02740157      -0.01448281
O        5.35755176      11.00615633       8.42946138       0.00362894       0.00837582      -0.00806333
O        7.66882737      12.31322388       7.21143899       0.00759637      -0.00034696      -0.01535049
O        5.19340217      12.86639969       5.97492971       0.00765717       0.00082386      -0.01056606
O        6.41217425      10.32335499       5.67360795       0.00026339      -0.00265694      -0.00555933
Mo       6.14484282      11.64663417       6.74374243       0.00545692       0.00207812      -0.00782347
O        7.98923075      10.62895807      10.02837889       0.00638369      -0.00014435      -0.01869053
O        5.90913541      12.75235113      10.68358877       0.01250990      -0.00681311      -0.00029567
O        7.11538234      10.05165360      11.02587879       0.01279851      -0.00709416      -0.01735768
O        4.31920364      10.54053458      11.02485574       0.01297134      -0.00705978      -0.00621241
Mo       5.69784342      11.11542645      10.22507379       0.01035094      -0.00294721      -0.00771499
O       11.56756745      11.84361236       9.20176119       0.00754839       0.00345090      -0.00934619
O       11.80625225      11.46817742      12.06066162       0.00684458       0.00093415      -0.01492417
O       10.59980233       9.58748903      10.40251667      -0.00460101       0.00292957      -0.01511930
O        8.77805527      11.64219336      10.65416302       0.00370537       0.00158913      -0.01888847
Mo      10.75241349      11.27656730      10.59947046       0.00408059       0.00152934      -0.01312459
O        6.94930265       8.12111687       7.99686648      -0.01563823       0.03225267       0.02263820
N        9.13190280       7.98403426       7.29965550      -0.00191078       0.00984007      -0.00138322
C        9.38141448       9.40947237       7.25178114       0.00470530       0.00639080      -0.00780750
C       10.26492998       7.11498591       7.11317766      -0.00529067       0.00497557      -0.01256112
C        7.92575853       7.48182222       7.65095975       0.02806950      -0.00661725       0.00139403
H        9.68996243       9.70482908       6.24659772      -0.00290978       0.00418445      -0.01043832
H       10.16045117       9.67643369       7.96784771       0.00892675       0.00778753      -0.01380736
H        8.46599528       9.93449034       7.49718249       0.00671414       0.01023734      -0.00195107
H       10.77360346       7.33579966       6.17108086      -0.01100594       0.00737245      -0.01634246
H        9.92892105       6.07864323       7.08811608      -0.00769110       0.00617930      -0.01493538
H       10.98633404       7.23836247       7.92815951       0.00290114      -0.00061418      -0.01847708
H        7.91412585       6.38113445       7.58025592      -0.00066275       0.01513737       0.01629112
O        2.90461322      10.46746717       5.30237271       0.00115395       0.00393796      -0.00769448
N        2.84707197       8.17817526       5.41464942      -0.00466827       0.00458911      -0.00319861
C        4.23050154       8.01530383       5.81156355      -0.00614285       0.00164114      -0.00012602
C        2.07988068       6.97957419       5.17735053      -0.00946374       0.00603325       0.00576539
C        2.32168318       9.40376201       5.19432833      -0.00162542       0.00566125      -0.00609569
H        4.78444892       7.46949219       5.04543798      -0.00931661      -0.01316731       0.00850978
H        4.30311217       7.45092491       6.74220682      -0.00981872       0.01452368       0.00821805
H        4.69148202       8.98956793       5.94250297      -0.00029524       0.00057775      -0.01353527
H        2.46021777       6.41556191       4.32225051      -0.01080151      -0.00234669       0.01084501
H        1.04263724       7.24071988       4.97182455      -0.00769922       0.00968172       0.00277984
H        2.10761891       6.33196260       6.05858098      -0.01335305       0.01302367       0.01099765
H        1.25954893       9.34099389       4.89124376      -0.00154322       0.00839335      -0.00703610
O        8.44839267       7.37808255      -0.52565793       0.00924850      -0.01777387       0.00337505
N       10.27392088       7.98406718       0.70176054       0.00894386      -0.00677869      -0.00212821
C       10.68042290       6.62539166       0.96544838       0.01416947      -0.00409174       0.00433754
C       11.20698851       9.02371304       1.07373349       0.00163122      -0.00023142      -0.00164740
C        9.18155073       8.23488405      -0.04834445       0.00803947      -0.01308113      -0.00125754
H       11.02355288       6.55216998       1.99930578       0.01120646       0.00220013       0.00557914
H       11.49254938       6.31399611       0.30125663       0.01785275      -0.00264086       0.00828457
H        9.84651771       5.94853853       0.81558638       0.01783291      -0.00872955       0.00435060
H       11.49707591       8.89836340       2.11834040      -0.00110820       0.00575799      -0.00028649
H       10.74031382       9.99695185       0.98152466      -0.00560540      -0.00420699      -0.00550200
H       12.09771709       8.99395745       0.43990634       0.00373027       0.00332515       0.00158376
H        8.98454940       9.31068094      -0.16798777       0.00469011      -0.01470613      -0.00721480
O        9.09437712       3.80493269       2.29798842      -0.00385806       0.00417221       0.00078495
N       10.76168240       2.28022947       1.92718055      -0.01482740      -0.00586524       0.00011794
C       11.80119369       3.26659091       1.73547984      -0.00910068      -0.01246609      -0.00169246
C       11.09386439       0.90221183       1.64900722      -0.02354559      -0.00919449       0.00605515
C        9.48661914       2.65350291       2.15020355      -0.01211125       0.00410008       0.00223066
H       12.20172499       3.19272177       0.72214498      -0.01746244      -0.00889692      -0.00511414
H       12.61580943       3.11067921       2.44388301      -0.00538337      -0.02344152      -0.00837359
H       11.37209476       4.25184908       1.87583066      -0.00116546      -0.01056653       0.00795099
H       11.25383536       0.74225942       0.58225097      -0.04507373      -0.02096395       0.00466663
H       10.32078701       0.22534898       2.01107438      -0.01697573      -0.00323701       0.03120323
H       12.05396848       0.63215668       2.18593115      -0.01327354      -0.00458815      -0.01312917
H        8.81232855       1.78296710       2.19412215      -0.01717430       0.00681037       0.00483582
O        7.92438338       0.04868588       4.20901301       0.00335300       0.00228250      -0.03100419
N        8.11595674       2.18760620       4.95499979      -0.00159210       0.00376737       0.00118788
C        6.82916098       2.57746972       4.41765805      -0.00229967       0.00398162       0.00592309
C        8.97572058       3.21983584       5.47454771      -0.00365062       0.00474551       0.00610775
C        8.53586127       0.91203853       4.80918465       0.01632446       0.02116358      -0.00400651
H        6.95428310       3.05171895       3.43941557      -0.00688565       0.00287026       0.00491276
H        6.36727531       3.29509095       5.09373061      -0.00079909       0.00328678       0.00698313
H        6.21025319       1.68698076       4.34438174      -0.00274353       0.00304320       0.00825839
H        9.21082634       3.95040119       4.69640562      -0.00524974       0.00888905       0.00926280
H        9.89945887       2.76261842       5.82686783      -0.00272240       0.00666133       0.00550919
H        8.49043226       3.74730674       6.29959475      -0.00586742       0.00064930       0.00792196
H        9.51081116       0.72655835       5.29067893       0.00621450       0.00939631      -0.01632822
O        9.17602731      10.36064849       2.76274811      -0.00372195      -0.01252759      -0.00694513
N        6.94236522      10.66198487       2.36100616      -0.00542623      -0.00355366      -0.00442299
C        7.10866806      11.82957147       1.52887147      -0.00342195      -0.01432410      -0.01799962
C        5.58981840      10.30031562       2.72650752      -0.00655712       0.00561863       0.00183465
C        8.00097169      10.08890801       2.96535579      -0.01029170      -0.00465494      -0.00017850
H        6.66356659      12.69614095       2.02570579       0.00756508      -0.00430557      -0.02533647
H        6.64111985      11.68517025       0.55401461      -0.01515852      -0.02319832      -0.01074067
H        8.17145040      12.01288297       1.39652287      -0.00320467      -0.02423851      -0.03135822
H        5.14106320      11.05083098       3.38197108      -0.00265205       0.01245394      -0.00375530
H        5.60581936       9.36257611       3.27882654      -0.00761065       0.01076433       0.01007836
H        4.98266478      10.18600941       1.82506389      -0.01202540       0.00338730       0.00564408
H        7.69114154       9.30624971       3.67654026      -0.00977635       0.00730062       0.00904763
O        2.63100296       0.41955197      11.56033386       0.01068950      -0.00630292       0.00217026
N        2.81702770       2.61690246      10.88641515       0.00164277      -0.00601656       0.00520095
C        1.40137842       2.87107043      10.74551962       0.00065395      -0.00978687       0.01006269
C        3.72462397       3.72354151      10.66606798      -0.00437118      -0.00287804       0.00105606
C        3.29219030       1.42767791      11.26235748       0.00712251      -0.00492245      -0.00049803
H        1.22100805       3.37696811       9.79565409      -0.00531806      -0.03021994       0.00036797
H        1.02995837       3.50405982      11.55681901       0.00697068       0.00700913      -0.00041044
H        0.86878441       1.91812532      10.76550285       0.00005624      -0.00945285       0.03451192
H        3.53380586       4.18315406       9.69507199      -0.00508366      -0.00927443      -0.00190777
H        4.74528570       3.35369087      10.68313560      -0.00208884       0.00386085       0.00594126
H        3.60597546       4.48318510      11.44429255      -0.01217297      -0.00130180      -0.00207168
H        4.38201493       1.35068980      11.28302565       0.00729951      -0.00411601      -0.00836649
O        2.18814574       4.59549457       2.78254910       0.00840613      -0.01292825       0.00975156
N        2.85523095       2.42833061       3.06687968       0.00861171      -0.01350322       0.00868602
C        2.87788502       2.14335265       1.66563757       0.02086425      -0.01033172       0.00896527
C        3.06452879       1.31239098       3.96426586      -0.00340457      -0.01817180       0.00604305
C        2.47079040       3.64723766       3.50194549       0.00330910      -0.01590061       0.01021180
H        2.05895274       1.36458408       1.41304958       0.01228113       0.00247050      -0.00794913
H        3.83102796       1.71022450       1.36215867       0.01802829      -0.02283522       0.01859033
H        2.65472192       3.05043623       1.10953899       0.02781985      -0.01224850       0.00381598
H        2.28249164       0.55264663       3.80456479      -0.00660375      -0.01356144      -0.00128925
H        3.03975890       1.64044693       4.99904687      -0.00820971      -0.02383311       0.00765362
H        4.03070278       0.84122776       3.79129962      -0.00467423      -0.02196777       0.01012530
H        2.45160617       3.70955007       4.60327404      -0.00724736      -0.01847656       0.00950563
O        6.77832457       5.69926153       5.41726684       0.00133336       0.00951672       0.00261545
N        6.51306237       6.07964090       3.17724354       0.00107402       0.00590914       0.00371486
C        5.23224037       5.42290365       3.07419014      -0.00030966       0.00848635       0.00478093
C        7.11229246       6.54976370       1.94705692       0.00279237       0.00217273       0.00377873
C        7.17466259       6.13954601       4.34807058       0.00025734       0.00467503       0.00676298
H        5.30619483       4.53795202       2.43519945      -0.00233269       0.00901577       0.00397846
H        4.48847591       6.09260228       2.64006608       0.00098914       0.01033098       0.00535028
H        4.91129311       5.11974334       4.06660992      -0.00052600       0.00843773       0.00436944
H        7.35698184       5.71529274       1.28869502       0.00087705       0.00046408       0.00540805
H        8.03059228       7.08445254       2.17327348       0.00415927      -0.00008047       0.00329196
H        6.43785290       7.22844105       1.42293804       0.00493565       0.00323595       0.00264792
H        8.14490319       6.65523353       4.24325393       0.00271434       0.00321755       0.00294915
O       10.37077098       0.85395241      11.09357308      -0.00985062      -0.00844347      -0.00151157
N       10.39776175       2.11810075       9.19262942      -0.00456034       0.00260177       0.00582957
C        9.42718553       1.30561107       8.48110986      -0.00089812       0.00767958      -0.00481659
C       11.03055501       3.19490167       8.46896697      -0.00544529       0.01123789       0.01776081
C       10.76282238       1.82881697      10.43361095      -0.00641754      -0.00368935       0.00279248
H        9.91723797       0.65434146       7.75929975       0.00305574       0.01487085      -0.00852242
H        8.71886423       1.94779031       7.96214428       0.00061843       0.01135460      -0.00209796
H        8.88834104       0.68585951       9.18859333      -0.00306694       0.00052395      -0.01276520
H       11.67276317       2.79759187       7.67651185      -0.00081304       0.02080315       0.01704437
H       11.62547440       3.79948418       9.14965806      -0.01098897       0.00565553       0.02741309
H       10.27321659       3.83101199       8.01062780      -0.00628701       0.01277219       0.02160574
H       11.44501909       2.55841579      10.87413408      -0.00519916      -0.00915810       0.00786594
O       10.04428910       4.14311242      11.80319080       0.01133764       0.00802016      -0.01613653
N        7.91042102       4.34828729      11.00680647       0.00681755       0.00511532      -0.00133988
C        7.36637781       3.25653988      11.78531858       0.01768806      -0.00689699      -0.01087587
C        7.00663609       5.09684505      10.16511875      -0.00328745       0.01469259       0.01864050
C        9.20279132       4.71085214      11.11927635       0.00704002       0.00913668      -0.00483131
H        6.99707260       2.45164367      11.14388436       0.01819713      -0.00139058      -0.01792407
H        6.54396552       3.62669771      12.40626173       0.01949051      -0.01884963      -0.00157513
H        8.14487697       2.86449973      12.43203934       0.02375534      -0.01019640      -0.02059887
H        6.59446969       4.46201822       9.37420094      -0.00196984       0.02886209       0.00677373
H        7.53547865       5.93044906       9.71414548      -0.01303294       0.03028613       0.03600375
H        6.18743044       5.51826540      10.75183309      -0.00415125      -0.00694299       0.03269544
H        9.43641495       5.59479412      10.50618140      -0.00099747       0.01560885       0.00023401
