150
Lattice="11.667564857147536 0.0 0.0 0.0 11.667564857147536 0.0 0.0 0.0 11.667564857147536" Properties=species:S:1:pos:R:3:forces:R:3 energy=-337192.40625 stress="0.003433047328144312 -0.00036981303128413856 0.0006176746974233538 -0.00036981303128413856 0.002312231343239546 0.0006552046106662601 0.0006176746974233538 0.0006552046106662601 0.002623558510094881" pbc="T T T"
Rh       9.44847270      11.25326965       0.38436034      -0.00015141      -0.00403066      -0.00533620
Rh       7.99369437      11.80543019      10.38589136       0.00066659       0.00098431      -0.00416833
O        2.80036151       9.41998481       3.79801008      -0.01139373       0.00003725       0.00713746
O        1.57182082      11.12080859       4.68504156      -0.00524120       0.00810587       0.00668192
O        0.61738199       9.47596303       3.46040533       0.01321208       0.02109313       0.01448804
C        1.53348805      10.08684127       4.00532607      -0.03222907      -0.02105805      -0.01617707
O        6.52444077      10.72756748       7.48374582      -0.00654481       0.00652838      -0.00486076
O        6.72699201      12.36437262       9.01829023       0.00071925       0.00477229      -0.00366724
O        6.01062402      12.85716918       6.99961418       0.00287300       0.00965834      -0.00385404
C        6.40911365      11.94064065       7.76807005      -0.00087306       0.00637037      -0.00391263
O        3.90795344       8.92910804      -0.09834450       0.01155353      -0.01511006      -0.01343358
O        5.98281263       8.30380183      -0.61896462       0.01718056      -0.00886881      -0.00028265
O        5.61954373       9.65994760       1.11932041       0.00169498      -0.01393294       0.00116575
C        5.16087863       8.95161893       0.12317177       0.00979483      -0.01307146      -0.00467589
N        7.52494777       7.37342703       6.88408456       0.00780375       0.00341107       0.00482775
H        7.88957757       6.92361184       7.72274323       0.00584501       0.00294083       0.00577044
H        7.45995359       6.68217948       6.14268770       0.01047465       0.00359711       0.00419146
H        6.56771677       7.64403986       7.12678783       0.00663516       0.00213958       0.00267679
N        0.62553792       4.80400513      11.57860599      -0.00758488       0.00861427       0.00036137
H        0.90839020       4.13084022      10.87549991       0.00499302       0.01824345      -0.00333507
H        1.44143566       5.02409407      12.14399906      -0.01180953       0.01842454       0.00336852
H        0.39583603       5.66517062      11.09499843      -0.02031850       0.00825131       0.00539044
N        1.70233944       7.88496129       6.24724408      -0.00795978       0.00186208       0.01631699
H        0.83091333       7.81902946       5.72369575      -0.01569504      -0.02613181       0.03380297
H        1.81841538       7.00909890       6.75728215       0.02447304       0.00994393       0.02080828
H        2.44495585       7.93148041       5.55989682      -0.02564648       0.01526793      -0.00044373
N        7.87044199      11.02781386       1.67885580      -0.00028613      -0.00995567      -0.00553900
H        7.39234995      11.91487448       1.81690027      -0.00202050      -0.01110861      -0.00318779
H        7.11026647      10.37090901       1.34635563      -0.00030726      -0.01146844      -0.00503457
H        8.13856454      10.73966824       2.62512945       0.00183181      -0.01055064      -0.00622019
N       -0.31517899      11.36795225      -0.48624555      -0.00022157       0.00337663      -0.00422364
H       -0.11428800      10.67313134      -1.21403775       0.00528187       0.00157925      -0.00140727
H       -0.09434484      12.27452492      -0.90352267      -0.00650783       0.00374863      -0.00754403
H        0.40378846      11.22096847       0.22237190       0.00007269       0.01118101      -0.00254512
N        4.22829237       0.25502852       2.30488222      -0.00670304      -0.00973544      -0.00554928
H        4.61222453      -0.49611583       1.71154543      -0.00656981      -0.01195361      -0.00333544
H        4.81920138       1.07257339       2.22307933      -0.00812070      -0.00912444      -0.01122987
H        3.31874902       0.53354108       1.94183330      -0.00765547      -0.01328573      -0.00549797
N       11.23141870       2.45300961       9.58248617       0.00004604      -0.00301482      -0.00187883
H       10.55649382       2.65046644      10.31055739      -0.00038644       0.01184436      -0.00603984
H       10.85554196       1.69321678       9.02266818      -0.01118672       0.00343002      -0.00284274
H       11.22674540       3.26663473       8.96173039       0.01825248      -0.00439768      -0.00325030
N        3.07978671      -0.13229624      10.33591780       0.01695720      -0.00462750       0.01420788
H        2.43255390      -0.44949102       9.62122221       0.02014354       0.00614797       0.00650942
H        3.36488893      -0.98287091      10.83631962       0.00914604      -0.01118484       0.00787400
H        3.90548813       0.18683575       9.84095551       0.02273530      -0.00489679       0.02371034
N        2.32310083       6.94554378       1.60567255      -0.00293364       0.01084338      -0.01486218
H        2.92186628       7.55052398       1.03246457       0.00664178       0.00000049      -0.01641953
H        2.37848704       7.34268173       2.53884470      -0.00407285       0.01949266      -0.01876175
H        1.37657353       7.15607796       1.29804563      -0.00019816       0.01927016      -0.02021180
N        1.00537914       3.64186297       3.95268314      -0.00531235      -0.00610876      -0.01207122
H        1.15881234       2.94386032       3.23039567       0.00922672       0.00086802      -0.01580220
H        1.61426167       3.36169582       4.71705202      -0.01007571      -0.00413839      -0.00791515
H        1.39505354       4.50490478       3.58751041      -0.01280707       0.00139964      -0.00323613
N       10.90280643       8.06556736       1.02168443      -0.00431821      -0.00599082       0.00657476
H       10.43944454       7.26689619       1.45056004      -0.00077545      -0.00662389       0.00891430
H       10.17239429       8.68466411       0.67561269      -0.00597498      -0.01066627       0.00292501
H       11.37211707       8.56822496       1.77346747      -0.00740716      -0.00051659       0.00666417
N        2.08200624       5.65136016       8.31486632       0.01049439       0.00480650       0.00634506
H        2.91318650       5.23140803       8.71553438       0.00140846      -0.02442748      -0.00778702
H        1.31740339       4.98595035       8.36426602      -0.00145994       0.01781882      -0.01846537
H        1.82715411       6.43897593       8.89838451       0.02533856      -0.01313363       0.03479091
N        3.89529705      10.13154096       4.34262983      -0.00556183      -0.00612646       0.00586849
H        3.66547610      10.40709565       5.29480644      -0.00725177      -0.00506315       0.00588575
H        4.85249593       9.42425510       4.22704181       0.01507404      -0.01702076      -0.00393911
H        4.04274982      10.98702177       3.71734524      -0.00806451      -0.00735939       0.00745207
N       10.79740364       4.68174660       7.37565218       0.00825735       0.00315173      -0.00514898
H       11.33975555       4.95825748       6.56458065      -0.01356331       0.01942275      -0.01383455
H       10.21440475       5.48118899       7.59986350       0.00292552      -0.00663951       0.01582835
H       10.18579198       3.92321085       7.06346187       0.01103994      -0.00139014       0.00095621
N        4.02077554       4.36527445       2.01075231      -0.01119519       0.00470211       0.00701533
H        3.43866998       5.18410538       1.79614005      -0.01222803       0.00353531       0.00316216
H        4.93049477       4.56123264       1.61113993      -0.01000959       0.00720613       0.01065722
H        4.13656365       4.37822706       3.02129748      -0.01050983       0.00864709       0.00697979
N        2.00740087       1.93103547       0.90747365      -0.00586326       0.00432305      -0.00227000
H        2.35433207       1.38976699       0.11082381       0.00331608       0.00026716       0.00448374
H        2.70116045       2.64348026       1.13768628      -0.00688916       0.00356460       0.00362140
H        1.17891549       2.42515510       0.59928468      -0.00076240       0.00494316      -0.01547041
N        9.31685034       1.97300941       6.83258918       0.00100118       0.00363106      -0.00106491
H        8.90403156       1.92342396       7.75751967      -0.00668410      -0.00776467      -0.00491080
H       10.12181442       1.34632884       6.84678457      -0.00031942       0.00222556      -0.00320546
H        8.63271867       1.55480604       6.21250994       0.00485791       0.01269230      -0.01170556
N        6.03644534       8.75336671       3.84663179      -0.01050717       0.00503629      -0.00158048
H        6.23282503       7.81658340       4.18304510      -0.01342465       0.00394836      -0.00106166
H        6.81245003       9.36015339       4.12555481      -0.00951048       0.00377988       0.00124029
H        5.98000837       8.76710853       2.82121041      -0.00885109       0.00567658      -0.00309358
N        4.00508268       3.03024098       8.76542617      -0.01280089      -0.00898809      -0.01269166
H        3.44081296       2.62377645       9.50327459      -0.00976813      -0.01462054      -0.01362070
H        4.69376769       2.33347481       8.49116925      -0.00098491      -0.00008488      -0.00527128
H        3.40532770       3.14037470       7.95560507      -0.01277699      -0.02709559      -0.01501337
N        7.83855774       9.86750762       9.78585082       0.00321311       0.00244576      -0.01013644
H        7.35000184       9.92264478       8.87441716      -0.00178887       0.00312735      -0.00759549
H        7.23528714       9.28326224      10.41009272       0.00906582      -0.00120780      -0.00821828
H        8.72565451       9.39879638       9.61522886       0.00434056       0.00607451      -0.01627442
N        9.94207321       9.25910129       7.65602962       0.00615897       0.00293903      -0.00099285
H       10.66050080       8.90517492       7.03285068       0.01445559       0.00586155       0.00683363
H        9.91744604      10.26514371       7.52947270       0.00119913       0.00229949      -0.00399544
H        9.05991400       8.87054268       7.31592759       0.01063506      -0.00413122      -0.00598627
N        9.92232866       4.98807267       1.89688851       0.00602517      -0.00435047       0.01801317
H        9.05530838       4.64326301       1.50675677       0.00260837      -0.00383601       0.02432432
H       10.14823292       4.42460386       2.70847623       0.01337057      -0.00498339       0.01549786
H       10.66491050       4.82699748       1.21025625       0.00052029      -0.00330646       0.01188776
N        7.12125070       3.70878052       8.43472585      -0.00142307       0.00502212       0.00748363
H        6.25211113       4.17738077       8.67562279      -0.00061232       0.00843302       0.00329931
H        7.63994687       4.33318301       7.82840550       0.00522611       0.00562518       0.01321154
H        6.84079230       2.89394821       7.88360731      -0.00063976       0.00769706       0.00303026
N        8.20920368       6.37720607       9.96303496      -0.00690011       0.00576845       0.00973259
H        8.02387960       5.38149432       9.97301824      -0.01624411       0.00760341       0.01874018
H        7.42232690       6.85484657      10.40246117      -0.00595059       0.01598352       0.00132938
H        9.02732350       6.54362486      10.53563109      -0.01042256       0.00374894       0.01554982
N       10.55975428       0.82938534       3.92194713      -0.00554210       0.00321588      -0.00535609
H       10.57049442       0.94735882       2.91387395      -0.00688073      -0.00602503      -0.00726047
H       11.36547618       0.24275569       4.13928284      -0.01044852      -0.00006406      -0.00265559
H       10.76689765       1.74282523       4.31467544       0.00335335       0.00581960      -0.01598853
N        7.03754591       5.58755551       3.99761717      -0.00426891       0.00526367       0.00389552
H        6.04854854       5.37266434       3.92012336      -0.00278243      -0.00778422       0.01815556
H        7.50937791       4.74195050       4.29115667       0.00836624       0.01427571       0.00963457
H        7.40464126       5.83857402       3.08820944      -0.01622041      -0.00397828      -0.00337375
N        1.01367065       9.20521540       9.25421443       0.00597155      -0.00047679       0.01231890
H        1.38918117       8.97960516       8.33212756       0.00081050      -0.00107648       0.01010936
H        0.14178609       8.69210796       9.33109388       0.01087683      -0.00783575       0.02021743
H        1.66907862       8.86478410       9.95205182       0.01350603       0.00515556       0.00833485
N        4.75459690       8.26807745       8.12791567       0.00717982       0.00030839      -0.00177743
H        3.76685395       8.22752530       7.90464519       0.00702989      -0.00274325      -0.00108466
H        5.07860492       9.20570005       7.90400551       0.00388518       0.00211599       0.00100839
H        4.85160557       8.17153181       9.14004424       0.00792629      -0.00345679      -0.00178108
N        0.37989576       0.24805691       7.38405242      -0.00144123      -0.00292654       0.00340212
H        1.02717240       0.99246584       7.61935001      -0.00261034      -0.00156532       0.00413788
H        0.66593949      -0.10569169       6.47176629      -0.00104007      -0.00284071       0.00529617
H        0.55451042      -0.50509167       8.04515936      -0.00091896      -0.00207978       0.00545309
N        3.48954021       1.79061678       5.48017913      -0.00219361       0.00013801      -0.00231218
H        2.78003004       1.06348362       5.49980762       0.00077344      -0.00149187      -0.00129686
H        4.28714443       1.47374882       6.03515322       0.00150499       0.00134354      -0.00544287
H        3.80280131       1.80631515       4.51512500      -0.00489377       0.00344989      -0.00334188
N        7.95828397      10.98948779       4.79594092      -0.00112325      -0.00555097      -0.00213836
H        8.84542781      11.47107654       4.61825930      -0.00472732      -0.00046170      -0.00741389
H        8.04425097      10.47736618       5.66924417       0.00948148      -0.00608465      -0.00326759
H        7.25810253      11.69562306       5.00728559      -0.00262484      -0.00918397       0.00519267
N        7.86551626       2.19032724      10.88333262      -0.00102416      -0.00049262       0.00254667
H        6.99884893       2.33894472      11.39100667       0.00037900      -0.00304714       0.00598881
H        7.77490148       2.75853311      10.01643578      -0.00399087       0.00224531       0.00419265
H        8.61925886       2.53992165      11.46315442       0.00011721      -0.00160421       0.00205432
N       10.33817473       7.53455399       4.91234243       0.00946709      -0.00352530      -0.00794287
H        9.42250138       7.68258472       5.32546400       0.01271141       0.00124253      -0.00408508
H       10.23932380       6.80341279       4.21745588      -0.00018882       0.00804853      -0.01870725
H       10.60157382       8.37715987       4.40890227       0.01967046       0.00112021       0.00288241
N        4.19536233       4.83882015       5.47536992       0.01540328      -0.00761925      -0.01320092
H        4.98762867       5.00092592       6.08827424       0.00326198      -0.00990786       0.00274904
H        3.91820256       3.86390533       5.60634562       0.00007080      -0.00200033      -0.00730804
H        3.44552553       5.39680882       5.87252015       0.01464255       0.00772619      -0.03733608
