148
Lattice="12.882711977455012 0.0 0.0 0.0 12.882711977455012 0.0 0.0 0.0 12.882711977455012" Properties=species:S:1:pos:R:3:forces:R:3 energy=-445065.65625 stress="0.00026825570967048407 -0.0005936321686021984 -0.00024175479484256357 -0.0005936321686021984 6.79789372952655e-05 -0.00021116076823091134 -0.00024175479484256357 -0.00021116076823091134 -0.000203600138775073" pbc="T T T"
Ru       8.55279487      12.85751403       0.29991503      -0.01141332      -0.00052714       0.00483644
Ru       4.26068988      12.63187934       2.59100946       0.00270070      -0.01265866      -0.01648380
S        6.87473304      11.81167513      11.68695326      -0.03494924       0.00462121       0.01666740
S        7.95119793      13.35487621      11.03092387      -0.02404165      -0.00777590       0.00784004
S       10.19204315      13.81958992       1.30285136      -0.01610041       0.00552809       0.00656749
S       11.95025494      12.98298042       1.35107928      -0.01153761       0.01460946       0.01111255
S        5.28195203      12.80470262       4.32446555      -0.01376775       0.00146829      -0.00435460
S        6.92914888      12.99317203       5.29235425      -0.01438445       0.01917470      -0.00309479
O        8.56547246       9.84762261       0.62420756       0.00602227       0.00166172      -0.00905249
O        6.93664391      10.07590412       2.11972118      -0.00750826      -0.02007882      -0.02170204
O        6.79513992       8.44356460       0.57627186       0.01892215       0.00725067      -0.03335363
C        8.87946685      11.04353786       1.29729442      -0.00752807       0.00040719       0.00225526
C        7.92167102      11.04843121       2.48359100      -0.01224389      -0.02181059      -0.00131488
C        7.37742829       9.36233812       1.05981017      -0.00415197      -0.02090937      -0.03220737
H        9.64575412      12.11720328      -0.48147258      -0.01422982      -0.00108858       0.00045350
H        9.93590986      11.00595027       1.56569670      -0.00972196       0.00635286       0.00774623
H        8.41409022      10.75521419       3.41387442      -0.01397383      -0.03705925      -0.00612581
H        7.40913510      11.99787226       2.64583474      -0.01634908      -0.02736634       0.01204430
O        4.55768362       1.17820481       0.93344953       0.01582387       0.01419073       0.00361657
O        5.51481866       3.06475908       1.61023185       0.00830102       0.01190740       0.01694919
O        6.81822507       1.32576116       1.10686502       0.01445778       0.01689243       0.01339216
C        3.45800784       2.16024664       0.98188519       0.01245677       0.01004212       0.00465128
C        4.08772722       3.33189946       1.71558001       0.00733337       0.00899184       0.01077256
C        5.73856828       1.83806074       1.21510403       0.01094574       0.01541075       0.01058448
H        2.63287532       1.69399747       1.51949307       0.01312388       0.00463557       0.00136338
H        3.18526729       2.38359551      -0.04605862       0.01425550       0.01282876       0.00504008
H        3.90855708       4.28101356       1.22378114       0.00725438       0.01018074       0.01332262
H        3.83871264       3.37520346       2.77281919       0.00236328       0.00554630       0.00962093
O        8.96623337       2.57939198       4.51578577       0.01449773       0.02813683       0.01542318
O        9.53431122       4.07099348       2.97285666       0.01457812       0.00092193      -0.01068634
O       11.11683907       2.74610863       3.87834779       0.01672685       0.01353949       0.01006931
C        7.72868615       3.15639214       4.05767846       0.01437888       0.02077276       0.00715086
C        8.19338778       4.43168887       3.38530942       0.01327197       0.00632125      -0.02018453
C        9.97636522       3.10336921       3.79784617       0.00954229       0.01561564       0.00445790
H        7.08219060       3.31088508       4.91808836       0.01689567       0.03898311       0.00594294
H        7.26946501       2.45314147       3.36383363       0.01172800       0.00715363       0.02334505
H        7.62205816       4.70621822       2.50380017       0.01344031      -0.01527606      -0.02684942
H        8.26422362       5.26985734       4.07727966       0.01022394       0.02221984      -0.03976604
O       10.59903402       1.06991101       6.57438334      -0.01043266      -0.00419226       0.00420821
O       11.08231481       0.16734714       8.55158529       0.00122407      -0.01052943      -0.00154434
O        8.94525535       0.20079714       7.82740345      -0.00333476      -0.01183033       0.00963980
C       12.03445458       1.07699184       6.64162426      -0.01023460       0.00198042      -0.00159144
C       12.30052904       0.79546496       8.11498412      -0.00249067      -0.00560501      -0.00448674
C       10.09809333       0.45438149       7.65439998      -0.00266391      -0.00885481       0.00439992
H       12.38859840       2.04370853       6.29533641      -0.01666246       0.00603917       0.00287228
H       12.40866714       0.28927389       5.99114487      -0.00862721       0.00830314      -0.00820822
H       13.12636257       0.10877635       8.29120136      -0.00007901      -0.00464392      -0.01277274
H       12.44878851       1.70909868       8.69431748      -0.00132272      -0.00844148      -0.00025266
O       10.64603089       4.02743230      10.11298710      -0.00455581      -0.00620745      -0.00861770
O       12.61480563       3.54554184      11.02112568      -0.00637461       0.00257957      -0.00023125
O       12.53909066       4.58629666       9.03223361      -0.00170413      -0.00984165      -0.00945568
C       10.34843008       3.58841994      11.45634830      -0.00780219       0.00076926      -0.00688180
C       11.63534437       2.88807958      11.85360272      -0.00776927       0.00599325       0.00131705
C       11.97651067       4.11349967       9.98019785      -0.00608006      -0.00690815      -0.00274473
H        9.48444115       2.92955526      11.41942557      -0.00626919      -0.00157440      -0.00593080
H       10.14313615       4.47099298      12.06169383      -0.01208491       0.00365365      -0.01271209
H       11.91447667       3.01674807      12.89394118      -0.01147039       0.01309314       0.00146666
H       11.63489865       1.82333818      11.61184572      -0.00449741       0.00441092       0.00842091
O       10.52608366       5.33776867       5.33928561      -0.00939095       0.01458755      -0.00319040
O       11.26550930       7.35244657       5.91630988       0.00745697       0.00520869       0.00531641
O       10.03134649       7.10276068       4.04429516       0.02482706       0.01387256       0.01677179
C       11.14888971       5.13332268       6.61443024      -0.02149099       0.00550979       0.00187850
C       11.89347050       6.44375048       6.84322640      -0.00703961      -0.00317627       0.00798249
C       10.53853528       6.64197463       5.02012414      -0.00599900       0.02622613      -0.02247739
H       11.81119707       4.27700076       6.53447017      -0.03307420      -0.00161225       0.00519073
H       10.37726611       4.94326243       7.35740161      -0.03046045       0.01567709      -0.00584951
H       11.78138275       6.82655053       7.85254733      -0.00846105      -0.00261569       0.00608450
H       12.95412019       6.37204168       6.59242583      -0.00790173      -0.01450342       0.01181941
O        1.17128098       6.55205097       3.25964927      -0.03132352      -0.00553486       0.01609823
O        1.44308798       4.35615218       3.02199983       0.01450518       0.00704519      -0.03413761
O        2.88076898       5.51814891       4.30056915      -0.01627076       0.00458886       0.00343323
C        0.07563144       6.15431942       2.39801049      -0.00867108      -0.00323433      -0.01322063
C        0.29793676       4.65544862       2.19454113       0.00407411      -0.00025660      -0.02166733
C        1.91796807       5.48449158       3.59338441      -0.01353967       0.00251110      -0.00564140
H        0.14059053       6.73556278       1.48075477       0.00958945       0.00498074      -0.00657219
H       -0.85881392       6.37593080       2.90939823      -0.02119997      -0.01239061      -0.03283328
H       -0.53062578       4.04075781       2.54336906       0.01286098      -0.00915569      -0.01632404
H        0.56053764       4.41062318       1.16476133      -0.00365795       0.00647541      -0.02497610
O        3.90627642      12.06946137       8.83831678      -0.00015180       0.00355877       0.01143478
O        5.40541862      10.47542546       9.21031510      -0.01630922      -0.01542771      -0.00574420
O        3.55893383      10.57467978      10.48897878      -0.00897431      -0.00377733      -0.00142759
C        4.86503128      12.18836322       7.76290896      -0.00132577       0.00440687       0.01059881
C        6.03462236      11.34641165       8.24228770      -0.01033056      -0.01650561      -0.00257554
C        4.23999535      11.00061614       9.60044707      -0.01168901      -0.00701466       0.00521260
H        5.11028002      13.23632987       7.62518564       0.01089868       0.00274631       0.02260854
H        4.41170040      11.79668453       6.85165749      -0.00885291       0.02224751       0.00699481
H        6.49062611      10.73094174       7.47360942      -0.02446117      -0.01667854      -0.01006472
H        6.80157668      11.93599478       8.74439483       0.00134769      -0.03247693      -0.00208730
O        2.81048819       8.82946643       0.49482968      -0.00760880      -0.00408132      -0.00665795
O        1.70026326      10.69597929       0.99840745       0.01704592       0.00918679      -0.00085748
O        0.56452299       8.86018788       0.35826073      -0.01126945       0.02138579      -0.00444466
C        3.84713684       9.77794046       0.82093302       0.00413924      -0.01451367      -0.01496856
C        3.06402345      11.00510640       1.26623951       0.01812351      -0.01535207       0.00905889
C        1.60577846       9.39758401       0.58086204       0.00559074       0.01297888      -0.00309633
H        4.44440884       9.95896276      -0.06957048      -0.00872159      -0.00982717      -0.02291512
H        4.47259291       9.36205026       1.60605090       0.01430315      -0.02524652      -0.02910239
H        3.12251981      11.15116977       2.39425726       0.02561283      -0.03695989       0.01311812
H        3.33808452      11.92496121       0.71755943       0.03407360      -0.00367021       0.02904239
O        2.95814411       3.54752801      10.72695539       0.00755604      -0.01424638      -0.00426766
O        4.80749264       3.83435412       9.53063550       0.00667059      -0.01318345      -0.00540727
O        4.86641998       4.12795718      11.75820526       0.01098436      -0.03335363      -0.00530565
C        2.59823741       3.12911090       9.39055189       0.00325322      -0.00291243      -0.00652467
C        3.76542088       3.63119926       8.55015753       0.00397043      -0.00110592      -0.00492895
C        4.26719670       3.86384228      10.75315680       0.01105306      -0.02043819      -0.00075650
H        1.64826113       3.59387956       9.14254778       0.00456426       0.00199547      -0.00137731
H        2.51364054       2.04049041       9.39690430      -0.00033949      -0.00257736      -0.01432964
H        4.12593800       2.90476405       7.82593626      -0.00049902       0.00338450      -0.01119812
H        3.57745892       4.58433717       8.06140152       0.00698093       0.00342900       0.00319551
O        3.79599814       8.62739797       6.92966605      -0.00312212      -0.00486022      -0.00174974
O        2.65419046       7.23359262       8.23749778       0.00500455      -0.00805002       0.00205356
O        4.68657408       6.62858299       7.49218850       0.01493001      -0.00869292      -0.00235398
C        2.48496975       9.20546896       7.05834133      -0.00455340      -0.00932866       0.00178427
C        1.90399697       8.46518671       8.25065518       0.00091124      -0.01058184       0.00295973
C        3.79694778       7.42056301       7.54180411      -0.00866026       0.00616670       0.00006113
H        1.93435701       9.01067204       6.13582049      -0.00672388      -0.00996399       0.00287792
H        2.58851282      10.27686058       7.21818224      -0.00787460      -0.00813001       0.00136259
H        2.08655590       8.97430167       9.19769431       0.00062245      -0.00936553       0.00247103
H        0.85189391       8.22265732       8.15345009       0.00059512      -0.01383194       0.00585237
O        9.82153313       8.29322162      10.43990727      -0.00265625       0.00564003      -0.00251139
O       11.98153568       8.32941379       9.92099551      -0.00223508       0.00720645      -0.00001462
O       11.18226676       6.69480777      11.25364150      -0.00409834      -0.00605071      -0.00836325
C        9.94853083       9.36522344       9.47820064      -0.00072730       0.01258107       0.00544447
C       11.45448477       9.56287315       9.39182638      -0.00070167       0.01085135       0.00664420
C       11.00961127       7.68334698      10.60650758      -0.00483342       0.01059246      -0.00966942
H        9.41469684      10.23348233       9.85789358       0.00067121       0.01050028       0.01162054
H        9.50634407       9.03886001       8.53783566      -0.00208119       0.02053370       0.00301665
H       11.80164294       9.68381270       8.36681742      -0.00034124       0.01612831       0.00712427
H       11.81525516      10.38522051      10.00999158       0.00051399       0.00709870       0.01113442
O       10.82301986       9.97834813       3.72556478      -0.00512633       0.03456785       0.00844783
O       11.99574934      10.89535612       5.37817794       0.02920932      -0.00216115       0.00370739
O        9.74882638      10.72187259       5.56362063       0.02156830       0.01939154       0.04024976
C       12.21097105       9.72157265       3.41933400      -0.01373994       0.01710367      -0.01269758
C       12.89192409      10.78741713       4.24700164       0.01411957      -0.00617480      -0.00754768
C       10.75154709      10.53686927       4.94566920       0.03007966       0.01516149       0.00936741
H       12.35625378       9.81191073       2.34683897      -0.02491623       0.02956969      -0.01370326
H       12.45291172       8.71438882       3.76201542      -0.02589187       0.00796723      -0.03176287
H       13.88417388      10.52735807       4.60841917       0.01315436      -0.03022259      -0.02128315
H       12.91225827      11.75034937       3.72956874       0.02932842      -0.00052050       0.00380421
O        7.31306710       7.96902987       8.21753851       0.00818466      -0.00678337       0.02062628
O        7.59051953       5.78979634       8.55711183       0.00972959      -0.00718081       0.01612264
O        8.13614578       6.67358940       6.56678697       0.01744193      -0.00040038       0.01863134
C        6.77956817       7.74323015       9.53672074       0.00272149      -0.01155013       0.01794066
C        7.16906142       6.30082744       9.83752495       0.01286162      -0.00815499       0.01828247
C        7.70372250       6.79525582       7.67541034       0.01108563      -0.00409786       0.02192968
H        5.70475763       7.89339264       9.50110279       0.00150007      -0.02057669       0.01163909
H        7.22341798       8.46227140      10.22023022      -0.00676265      -0.00868869       0.02072811
H        8.01022148       6.23323986      10.52591485       0.01718050      -0.00141135       0.01376313
H        6.34210072       5.69414483      10.19143529       0.01905426      -0.01346272       0.02415136
