149
Lattice="11.570610630497267 0.0 0.0 0.0 11.570610630497267 0.0 0.0 0.0 11.570610630497267" Properties=species:S:1:pos:R:3:forces:R:3 energy=-1682775.375 stress="0.0026260640006512403 0.0003848116612061858 -8.784556484897621e-05 0.0003848116612061858 0.004528712946921587 4.129520857532043e-05 -8.784556484897621e-05 4.129520857532043e-05 0.0018849499756470323" pbc="T T T"
Ru      10.53025455      11.13261147       1.99526467       0.00537486       0.00277275      -0.00324607
Ru       3.04360858      12.75230928       0.89612985       0.00335963      -0.00331603       0.01015721
O        4.57914108       2.39362581       0.48846411       0.00325865      -0.00256664       0.00549981
O        5.40839619       3.46312115       3.06740251       0.01184501      -0.00327894      -0.00631875
O        5.61752628       5.16945441       0.76238935      -0.00380256       0.00340444      -0.00434947
O        7.43452524       2.93859530       1.11177002       0.00455105       0.00333580      -0.00536970
W        5.76265692       3.50474510       1.34134710       0.00074977      -0.01306644       0.01535882
O       10.29182804       9.59800207       3.14529802       0.00989820       0.00109512      -0.00680214
O        9.88505199       9.76698753       5.99680516       0.00368929       0.00564930      -0.00610918
O       10.96313600       6.91495753       3.51474391       0.00171322       0.00134832       0.00232586
O        8.58921911       7.91132285       4.55744111      -0.00189900       0.00749062      -0.00709155
W       10.30294804       8.29131288       4.39893755       0.01155287       0.00269207      -0.00373745
O        1.83933027      11.62426337       4.70875946       0.00586572      -0.00847781       0.00502089
O        0.56221219       9.00890763       5.08993831       0.00956237       0.00563547       0.00700499
O        1.83385924      10.44310284       7.36199567       0.00240519       0.01263661       0.02648032
O        3.41167190       9.25151414       5.27726121      -0.01065767       0.00710294       0.01082782
W        1.90668747      10.10404263       5.63072567       0.01589058      -0.01296611      -0.04536380
N        5.71262036       3.83627178       7.93966693       0.00614190      -0.03006679       0.01469309
H        6.36972712       3.67377104       8.69837848       0.02056564      -0.01917767       0.00259089
H        5.50089981       4.82754201       7.98255013      -0.02111590      -0.03623533       0.02595834
H        6.24400723       3.68541494       7.08070365       0.00000994      -0.00531255       0.00464749
N        4.43954919       8.12356960       0.14970710       0.00560538      -0.00608930       0.00371200
H        4.75824406       7.16574471       0.30795392       0.00554704      -0.00525755      -0.00179603
H        5.09597084       8.53589499      -0.50894486       0.01054312       0.00346355       0.01354137
H        3.55263399       8.04687693      -0.33711263       0.01023412      -0.00299850      -0.00730760
N        7.51619531       7.47028042       7.46571185      -0.00130564       0.00508487       0.00203032
H        7.81418183       6.88786044       6.68922278       0.00613467      -0.00364536       0.00162397
H        6.51410600       7.58688934       7.35998701       0.00529674       0.00604230      -0.00990350
H        7.66400900       6.96455894       8.34541021      -0.00791091       0.00463738       0.00070041
N        1.82448627       2.73851205      11.66419005       0.00325640      -0.00125378       0.01728831
H        0.96391925       2.47482999      11.19377136       0.01391780       0.00324681       0.00501674
H        1.58182749       3.44441324      12.37003741      -0.00600055      -0.00539050       0.02232328
H        2.39195481       3.21744327      10.96668781       0.01260614       0.01076341       0.03049812
N        2.00530907       8.39865723       2.27085903      -0.00362821      -0.00120050      -0.01220213
H        1.47591921       7.65900693       1.82553223      -0.02228718       0.00387307       0.00845240
H        1.91152369       8.21491711       3.26517406       0.00919020       0.00449596       0.00036341
H        2.97860383       8.25416024       2.01962241      -0.01442630      -0.01140987      -0.02144954
N        8.39463656      11.31576044       1.99716423       0.00433058       0.00338589       0.00459813
H        8.07005149      11.88616747       1.21792720       0.00034817       0.01238164       0.01336867
H        8.01908742      11.78239819       2.81990006       0.00619012      -0.00632647       0.01192665
H        7.94591335      10.38741675       1.94060244       0.00454986       0.00361264      -0.00280115
N        1.05680314      11.01043263       1.92719068       0.00452727       0.00283203      -0.00875551
H        1.44490847      11.42972542       1.04685079       0.00522602       0.00087855      -0.00842676
H        1.40232346      10.00697133       1.95753799       0.00243911       0.00077707      -0.00585846
H        1.48834035      11.45046594       2.74525326       0.00637513       0.00295305      -0.00724521
N        4.48581983      -0.21893483       1.54394745       0.00013037      -0.01051706       0.00251463
H        5.34648340       0.09525795       1.09805912       0.00009730      -0.01719014      -0.00201949
H        4.72481501      -0.27478523       2.54964969       0.00563735      -0.00837801       0.00308096
H        4.34388942      -1.17934679       1.22514104      -0.00607719      -0.01012903       0.00832479
N        7.15546934       2.59628643       5.41641351       0.00646886      -0.00877839       0.00004706
H        6.81769613       1.74487568       5.85600934      -0.00498032       0.00474007       0.00063552
H        8.03585517       2.38831340       4.95701794       0.00137246      -0.02331653      -0.00616049
H        6.49982537       2.84296318       4.67216354       0.00634422       0.00066972      -0.00594740
N        3.34922430       0.42481084      10.48082979      -0.00468908       0.00219955       0.00508404
H        2.83374458      -0.40971901      10.20776090      -0.00025570       0.00277501       0.00257820
H        4.33384773       0.20638981      10.34489161      -0.00178999       0.00729062       0.00294251
H        3.11709570       1.12803924       9.76914241      -0.00699842       0.00553891       0.01024204
N        1.47336780       5.06522711       2.10392176       0.00297030      -0.00175929      -0.00170447
H        2.33028666       5.33182905       2.60747337       0.00153886       0.00089802       0.00094554
H        0.72393859       5.57023956       2.58236394       0.00061175      -0.00218584      -0.00258961
H        1.55589638       5.52089579       1.19816718       0.00504274      -0.00249088      -0.00087303
N        1.48708239       4.12365862       5.57414046      -0.01139338       0.01421884       0.00771636
H        0.94673699       4.46698109       4.78556314      -0.01930323       0.01329659       0.01046950
H        2.27450727       3.63107475       5.16303897      -0.02235959       0.00146058       0.00138350
H        1.88720702       4.95072199       6.01087423       0.00256156       0.01343399      -0.00593234
N       10.45968948       9.67956808       0.43805156      -0.00274050       0.01069295      -0.01080774
H       11.25797207       9.58747536      -0.20089095      -0.00261894       0.00789072      -0.00835991
H        9.62138742       9.66450437      -0.13742002      -0.00170437       0.01901858      -0.01087311
H       10.43521207       8.81309457       0.97743444      -0.00984623       0.00710487      -0.01332644
N        1.27545307       5.41129014       9.01408783      -0.00566687       0.00182921       0.01382872
H        1.76565525       5.90028564       8.26479309      -0.00431719      -0.00698715       0.00767606
H        0.28494927       5.49675490       8.81140942      -0.00505130       0.00342439       0.01286225
H        1.49783594       4.43044471       8.87209118      -0.00878316      -0.00021146       0.02263126
N        5.63044289      10.83082948       4.24260282       0.01921350      -0.01196274      -0.00042200
H        5.86148533      11.45793457       5.00769373       0.01729689      -0.01417458       0.00117616
H        6.44562185      10.26273367       4.04290107       0.00669081      -0.01570707      -0.00130021
H        4.91353510      10.19850547       4.61108553       0.00760123      -0.01105222       0.00324553
N        9.53398750       4.37705613       6.88237613      -0.00719795       0.00410008       0.00179808
H        8.67771840       3.99325470       6.48282009       0.00464137      -0.00902985      -0.01555332
H        9.49421386       4.14472656       7.87057024      -0.02612009       0.00649936      -0.00023510
H       10.30343274       3.84089366       6.49016915       0.00732232       0.01081488       0.01953720
N        5.77804502       0.40608429       7.44537595      -0.00724964       0.00463717      -0.00563103
H        5.49176342       1.33540157       7.74152758      -0.00250800       0.00583178      -0.00727665
H        6.49093251       0.09518004       8.09513221      -0.01784203      -0.00332455       0.00066391
H        4.98262389      -0.21336785       7.55991376      -0.01447730       0.00885876      -0.01439224
N        4.10694106       6.10033263       3.50192985       0.00161105       0.00498411      -0.00838542
H        4.61257394       5.36097807       3.97960441       0.00335930       0.00340150      -0.00946742
H        4.16677259       6.94978249       4.05318313       0.00172345       0.00465812      -0.00332527
H        4.64201169       6.24695876       2.64938073      -0.00315563       0.00869055      -0.00638089
N        2.84325411       2.08549414       2.81639692       0.01112728      -0.00562038       0.01059926
H        2.56086400       1.44887530       3.56836168       0.01393692      -0.00743748       0.01052201
H        2.17745260       2.85772385       2.78956060       0.01388741      -0.00552583       0.01450363
H        3.73974913       2.50723143       3.08707721       0.01585183      -0.00572172       0.00954078
N        9.19689743       0.79410387       7.53130692       0.00834009       0.00079018      -0.00767381
H        9.88072392       0.79335995       8.29374158       0.00162643       0.00245412      -0.00623268
H        8.73417794       1.69703664       7.53921045       0.00537818       0.00464216      -0.01066809
H        9.76910627       0.78168336       6.69163329       0.00882207       0.00097914      -0.00585775
N        7.05105271       8.52851476       2.01881252       0.01247832      -0.00453353      -0.01053534
H        6.05426314       8.64728981       2.17586241       0.00843866      -0.01426153      -0.01705742
H        7.47641780       8.28298804       2.91757003       0.00757425      -0.00036495      -0.00743879
H        7.11273208       7.67924190       1.46246212       0.02504485      -0.00229234      -0.01044455
N        2.75071319       2.23975953       7.96601301      -0.01602567       0.00199755       0.00896293
H        2.87963289       1.33977791       7.50829455      -0.02803506       0.00494558       0.01036382
H        3.63988440       2.74095323       7.91168828      -0.00534792      -0.00855118       0.01071781
H        2.10602362       2.73753209       7.35275342      -0.00646862       0.01632953       0.00907701
N        7.18390834       9.47018645      10.38621787      -0.00712550      -0.00386307       0.00627515
H        7.82500883      10.16243941      10.01644026      -0.01451562      -0.00676771      -0.00063141
H        7.46969144       8.56341468      10.02239643      -0.01196615      -0.00602384       0.00819999
H        7.29865809       9.42755140      11.39612677       0.00467264      -0.00195628       0.00970164
N        8.54716137       9.85217451       6.40619563       0.00340128       0.00545452      -0.00381750
H        8.23744576       8.98661620       6.94543595       0.00544849       0.00515366      -0.00316343
H        7.93181272       9.88845043       5.59143475       0.00243002       0.00134120      -0.00507194
H        8.48425812      10.73522655       6.95994750       0.00324614       0.00544024      -0.00672466
N        9.97920523       5.47622612       0.87217157      -0.01645411       0.02656677       0.00224003
H       10.11151518       5.91890938       1.78109174       0.00086046       0.01604789       0.00793484
H       10.78614163       4.87742094       0.73645852      -0.01171335       0.03901784      -0.02550182
H        9.17854377       4.85590154       0.95870301      -0.00588288       0.01745703       0.01105832
N        8.40621384       2.72646849       9.91809358       0.00872113      -0.00619295      -0.00555797
H        8.13859959       2.89818597      10.89324795       0.00902232      -0.00455705      -0.00543083
H        9.39173816       2.48296628       9.92422696       0.00734637      -0.01116875      -0.00609241
H        7.92768698       1.86978325       9.65837141       0.00422174      -0.00436921      -0.00599327
N        7.83349370       6.08852357      10.21546958      -0.02225101      -0.00299129      -0.00134349
H        7.06141634       5.93435383      10.86679941      -0.02233548      -0.01297110      -0.00741303
H        8.65623728       6.21470099      10.80659399      -0.02433601       0.00568003       0.00319815
H        7.97973374       5.17074594       9.79739574      -0.00781890      -0.00026399      -0.00363699
N       10.62307197       0.67914486       3.79785499       0.00759756       0.00004697      -0.00285098
H       10.17137153       1.60370760       3.82458093       0.00857179       0.00021631      -0.00519843
H       10.18102367       0.06267201       4.48346363       0.00774972       0.00159544      -0.00200313
H       11.58461922       0.77253766       4.13808997       0.01001400      -0.00064816      -0.00235301
N        9.44934848       3.49176590       3.51977145      -0.00197063      -0.01377219      -0.01682670
H       10.26492284       3.91784097       3.09127239      -0.00888284      -0.00322276      -0.01787826
H        9.06110928       4.22020993       4.11220017      -0.00428890      -0.02106029      -0.00651510
H        8.77511292       3.35958667       2.76268302      -0.00647897      -0.01374475      -0.01219209
N        0.76967497       8.76787189       9.69751632       0.00019222       0.01416591      -0.01291555
H       -0.17404569       8.62823304       9.35057497      -0.00081301       0.00525473      -0.01064480
H        1.14652842       7.83105248       9.81982237       0.00084412       0.00515197      -0.00417673
H        1.27540433       9.20230723       8.92205953      -0.00223188       0.00578357      -0.00111882
N        3.34265575       6.73389577       6.94243941       0.00296402      -0.01013257       0.00399397
H        3.76488141       6.96728969       7.83477997      -0.00337291      -0.00776532      -0.00076823
H        3.41579904       7.56853229       6.35576820      -0.00192385       0.00115520       0.00076661
H        3.93145493       6.02581962       6.51870042       0.00767951       0.00283256      -0.00288527
N       10.76460664       7.08896194       6.25861704      -0.00886220       0.00413263       0.00229770
H       11.75223597       6.85518230       6.21966044      -0.00465244       0.00198470       0.00361089
H       10.23305889       6.21766359       6.40952849      -0.00747201       0.00472739      -0.00260350
H       10.64377666       7.69582031       7.06234194      -0.00826962       0.00104311       0.00121427
N        0.18417017       0.59212457       9.27616248      -0.00184393       0.00218467      -0.00086436
H        0.83507183       1.36164838       9.13286361      -0.00429489       0.00572547       0.00808586
H        0.50955758      -0.10480281       8.60077736      -0.00236060       0.00846575       0.00737111
H        0.40313119       0.19756309      10.18601151      -0.00432266       0.00169639       0.00755121
