150
Lattice="12.633281183257093 0.0 0.0 0.0 12.633281183257093 0.0 0.0 0.0 12.633281183257093" Properties=species:S:1:pos:R:3:forces:R:3 energy=-215587.25 stress="-0.0009533189004287124 -0.00031269423197954893 0.00048720948689151555 -0.00031269423197954893 -0.0005636232672259212 -0.00016034827422117814 0.00048720948689151555 -0.00016034827422117814 1.708556737867184e-05" pbc="T T T"
Sc      13.13311564      11.94058449       7.93462624       0.00460744      -0.00469524      -0.01098578
Sc       9.40942742      10.55329667       6.21469381       0.00994490      -0.00506943      -0.00046737
P        7.51573031      11.27142373       4.58278766       0.00911137       0.00308302       0.00608552
O        5.94601789      11.14314870       4.74370580       0.00980252       0.00160987       0.00645529
O        8.05919537      11.94165004       5.91576902       0.00902292      -0.00392926       0.00950617
O        7.92480206      11.87710570       3.30860195       0.01003438       0.01066011       0.00961578
O        8.13123443       9.82341700       4.85377492       0.01044776       0.00213194      -0.00283135
H        5.54285271      11.09859150       3.85600960       0.01205248      -0.01460372       0.00570394
P        2.97912695      12.72013930       7.72287806      -0.00016890       0.01066529      -0.00719452
O        3.46238337      12.48251884       6.21927974      -0.00013689       0.01184145      -0.00743210
O        4.08614222      13.27785674       8.50970649      -0.00348186       0.01714110      -0.00877601
O        2.33750429      11.35437787       8.21224735       0.00811784       0.00733244      -0.00519103
O        1.64899792      13.56644714       7.64115083      -0.00573224       0.00236738      -0.00846288
H        2.75789283      12.10686422       5.66853367       0.00085670       0.01050145      -0.00765973
P       12.05112139      10.64332878       5.76122292       0.00861855      -0.01369749      -0.00604855
O       12.45857239       9.20227820       5.34740121       0.00143737      -0.01799293      -0.00207390
O       13.21861947      11.59507082       5.87452705       0.01327467      -0.01927581      -0.00889835
O       11.40754437      10.69646456       7.21935803       0.01084593      -0.00906381      -0.00488180
O       10.85540871      10.97116542       4.87247523       0.01062572      -0.00999053      -0.00470707
H       13.23315586       8.72540213       5.78406951      -0.00108092      -0.01869474       0.00064479
O       10.70717783       1.12381580       2.82519233       0.01708525       0.00458189      -0.01732402
O       12.51091295       2.28063680       3.41055588       0.00875106       0.00347263       0.00954103
O       12.66027230       0.04808854       3.09610108       0.01515114       0.00745404      -0.00623170
C       10.29302942       2.49260601       2.70306361       0.01015151       0.00386858       0.00057924
C       11.45660866       3.26031266       3.32499261       0.00950500       0.00355041       0.00376108
C       12.02205237       1.05539161       3.10588051       0.01486021       0.00355697      -0.00498226
H        9.35660377       2.61349239       3.24044277       0.01278418      -0.00674184       0.00749764
H       10.16385345       2.71733273       1.64619195       0.00326708       0.01538558       0.00400281
H       11.80755382       4.08627901       2.71236099       0.01141037       0.00260681       0.00351796
H       11.22525934       3.61446422       4.33254218       0.00656494       0.00555672       0.00200754
O        9.02230362      12.87761767       0.52018023       0.00645030      -0.00123355      -0.00453034
O        7.92903565      11.15255298      -0.34707243      -0.00011995       0.00102851      -0.00055633
O        7.22807814      13.23619110      -0.78322972       0.01172554       0.00260335      -0.00922656
C        9.79368261      11.71696963       0.91765612       0.00102729      -0.00318876      -0.00075169
C        8.84285502      10.57363109       0.60107890      -0.00465629       0.00036812       0.00375773
C        7.99380951      12.49163826      -0.23426381       0.00573981       0.00183231      -0.00617817
H       10.00850081      11.81359943       1.97384082       0.00207404      -0.00042819      -0.00132716
H       10.71149300      11.70795626       0.32856474       0.00061297      -0.00958987      -0.00129977
H        9.31874961       9.71701367       0.12657086      -0.00908026      -0.00472984       0.00869411
H        8.26313914      10.28389812       1.47524523      -0.00735101       0.00838859       0.00451034
O        6.35481365       2.16156395       4.77211936       0.00674224      -0.01152392       0.00572631
O        6.25355560       4.33396485       5.22391343      -0.00274032      -0.01239450       0.00722387
O        8.23844036       3.27727019       5.28045842       0.00135291      -0.00439381       0.00866735
C        4.96922567       2.50929091       4.54884653       0.00549343      -0.01728761       0.00457287
C        4.87150025       3.91656797       5.13263445      -0.00080875      -0.01780942       0.00474095
C        7.05229012       3.23932153       5.10381620       0.00200498      -0.00908376       0.00720203
H        4.35615870       1.77501037       5.06482112       0.00846282      -0.01978830       0.00458232
H        4.78072377       2.47952106       3.47579714       0.00639052      -0.01848434       0.00466537
H        4.34403123       4.62113142       4.49288874      -0.00255752      -0.01981153       0.00396645
H        4.44316784       3.93568466       6.13413047      -0.00256857      -0.02014145       0.00409245
O       11.45753481       1.13058113       8.05724914      -0.00959866       0.01183313      -0.02955163
O       12.39692611       2.57765735       9.44534872      -0.01764336      -0.01600921       0.00357056
O       12.48209057       0.34559293       9.84546163      -0.03361045      -0.02092250      -0.02934499
C       11.21709313       2.41263154       7.42264428       0.00442389       0.02398935      -0.01168311
C       12.09005632       3.35446807       8.25222846      -0.00323196       0.00685972       0.01513921
C       12.13504188       1.32721877       9.21117764      -0.02253367      -0.00963825      -0.02080607
H       10.15169724       2.61580374       7.49481626       0.00439587       0.02693305      -0.02378310
H       11.52293961       2.32408692       6.38495494       0.01834401       0.04098295      -0.00881821
H       13.04277880       3.57213563       7.77462158       0.00211665       0.01469719       0.02974498
H       11.57866582       4.25975774       8.55823799      -0.00474966       0.00195661       0.02645180
O        9.54447376       2.65292150      10.50417736      -0.01568750      -0.00164436      -0.00935782
O        8.81296786       4.08500809      12.04268726      -0.01101470      -0.00331597      -0.00578544
O       10.99046944       3.53309852      11.99533604      -0.01352835      -0.01726555      -0.00123587
C        8.16292342       2.91124984      10.15510361      -0.01330871       0.00693579      -0.01173759
C        7.61490920       3.58001067      11.40497728      -0.01235640       0.00743148      -0.01143411
C        9.88408345       3.42520709      11.55769070      -0.01531231      -0.00862957      -0.00595278
H        7.68630426       1.96036371       9.94102866      -0.01800197       0.01003888      -0.01456166
H        8.14921194       3.57256249       9.28888969      -0.00783592       0.00855741      -0.01038861
H        6.95825913       4.41981303      11.19694374      -0.00511104       0.01315945      -0.01153164
H        7.14855214       2.86714947      12.07817529      -0.02036870       0.00943846      -0.01525828
O       10.37922058       6.28941237       6.81775416      -0.00597239      -0.00358024       0.01963668
O        9.42034054       8.30215613       6.89947325      -0.00027066       0.00028706       0.00124667
O       11.42888351       7.93696506       7.91905656       0.00451303       0.00424092       0.03243248
C        9.11839584       6.12521064       6.12983684       0.00332406       0.00103509       0.00110355
C        8.35115412       7.38138011       6.49251309       0.00174326       0.00016320      -0.00381004
C       10.52556838       7.52470816       7.27483968      -0.02417034      -0.01273642       0.00196654
H        8.65307842       5.21576055       6.49345675      -0.00392333      -0.00085887      -0.01068655
H        9.32585354       6.01910220       5.06613583       0.01748867       0.00599640       0.00274292
H        7.82298735       7.84924827       5.66855566       0.00496016       0.00044179      -0.00680503
H        7.71741239       7.23483743       7.36426540      -0.00287735       0.00056602      -0.00697607
O        4.95226269       8.23640618       2.38048819       0.00509372      -0.01684836       0.00897875
O        6.20039937       8.66577836       0.58919895      -0.00080938       0.00074166       0.00960387
O        5.59911386      10.35145738       1.95528156       0.01479222      -0.01681662       0.03348233
C        5.24908377       6.93985820       1.82285826      -0.00431368      -0.01140475      -0.00989512
C        5.83903260       7.27060252       0.45906318      -0.00812034       0.00417924      -0.00799286
C        5.58113304       9.19402137       1.66168714       0.00701457      -0.00873119       0.01989028
H        4.33012683       6.36715536       1.74074557      -0.00704148      -0.00558341      -0.01419248
H        5.95348859       6.44211372       2.49294688      -0.00427556      -0.02443330      -0.02011597
H        6.74168576       6.71077226       0.22294106      -0.01179039       0.00352168      -0.01937628
H        5.10946848       7.16986564      -0.34090115      -0.01114017       0.01889383      -0.00689518
O        5.83553301       8.71871678       9.68045457      -0.01020056       0.00690162       0.00101271
O        4.82188333      10.58816817      10.33708015      -0.00895453       0.00417316       0.01005405
O        3.77666323       8.60420651      10.58525311      -0.00606120       0.00148058       0.01432276
C        6.83556685       9.74687261       9.59744068      -0.01290327       0.00913230      -0.00876024
C        6.01554718      11.02570477       9.65308997      -0.01422653       0.00771135       0.00276229
C        4.71047039       9.26249444      10.23940941      -0.00484711       0.00628796       0.00763676
H        7.37767008       9.61291233       8.65866701      -0.02422987       0.01268362      -0.01563796
H        7.51498155       9.63893377      10.44163958      -0.00221732       0.00844406      -0.01725966
H        6.46425084      11.81744995      10.24565796      -0.01031414       0.00612280       0.00188750
H        5.72444057      11.41008076       8.67528010      -0.02255160       0.01108643       0.00660050
O        2.52400477      10.55664312       2.55728035       0.00887302       0.02062818      -0.01267421
O        1.52507320      10.62282484       0.56756216       0.01009762       0.02338374      -0.01302701
O        2.64242170      12.43950392       1.31547337       0.02316046       0.01217556      -0.01738924
C        1.80728380       9.31505781       2.44783247      -0.00032932       0.02597272      -0.00906348
C        1.50431818       9.23751983       0.96127816      -0.00168715       0.02455421      -0.00933701
C        2.26230064      11.32128750       1.46810655       0.01659554       0.02385926      -0.01507101
H        0.90508884       9.37303289       3.05374303       0.00042945       0.03403367      -0.00861487
H        2.44981297       8.51427334       2.80749138      -0.00602394       0.02220368      -0.00805755
H        2.25991057       8.70042340       0.38521696      -0.00532496       0.01749507      -0.00744691
H        0.52261771       8.82176302       0.75100173      -0.00495648       0.03217243      -0.00748088
O        2.64522355       3.91538247      10.94557238      -0.00650460      -0.01100154       0.01522648
O        4.42797400       3.47901703      12.19621698      -0.00872216      -0.03278160       0.01036972
O        3.46192121       5.50176206      12.31915283       0.01365827      -0.02083790       0.01700306
C        2.87946323       2.49218641      10.77583558      -0.01839232      -0.01213688       0.00791299
C        4.26192908       2.29680457      11.36925772      -0.01741904      -0.02483234       0.00021113
C        3.50001153       4.39658909      11.85711498       0.00103623      -0.02567965       0.01326880
H        2.84441684       2.25142606       9.71812478      -0.02500328      -0.00610521       0.00676811
H        2.10449148       1.95604794      11.32135349      -0.01986077      -0.00881475       0.00916407
H        4.35472456       1.41928357      12.00166297      -0.01898917      -0.03164873      -0.00888142
H        5.04045320       2.28912333      10.60738336      -0.02038497      -0.01980554      -0.00282583
O        3.47411653       8.86943025       6.16952702      -0.00973812      -0.00950243      -0.00157278
O        3.56302403       6.72922313       6.73874683      -0.00095704      -0.00499517       0.01247157
O        1.58697647       7.66572911       6.30190968      -0.00624591      -0.01450878       0.01226280
C        4.88913603       8.60425008       6.31487446      -0.00818524      -0.00189352      -0.00120109
C        4.91480130       7.20467501       6.93281493      -0.00034299      -0.00146329       0.00006115
C        2.78773368       7.75881051       6.39865996      -0.00290257      -0.01001471       0.00835362
H        5.30101375       9.37936610       6.95545337      -0.01259300       0.00082740      -0.00183547
H        5.34282330       8.67022043       5.32824034      -0.00830337      -0.00037291      -0.00102991
H        5.58019034       6.51247685       6.42181666      -0.00325379      -0.00054671      -0.00481270
H        5.11953366       7.21334314       8.00178450       0.00838261       0.00018317      -0.00168389
O        8.98502770       7.12759212      11.15261202       0.02731422       0.01050096       0.00241550
O       10.08663239       5.79738765       9.75492424       0.02859515      -0.00669405       0.02055255
O        7.90230348       6.18928773       9.41174859       0.03861952       0.01519539      -0.00413287
C       10.28887194       6.92531382      11.75494275       0.01848114      -0.00227535       0.01683140
C       11.11125813       6.37062952      10.60976846       0.02513599      -0.00795988       0.02492324
C        8.89950926       6.35791743      10.05611545       0.02845907       0.00627482       0.00274169
H       10.18004941       6.20932316      12.56607083       0.00252852      -0.00405541       0.01285923
H       10.64687313       7.88651932      12.11677104       0.02267609      -0.00686374       0.02362828
H       11.62429350       7.13743416      10.03421090       0.03061152      -0.01064414       0.02588356
H       11.78528601       5.57609152      10.91278628       0.02062835      -0.00886235       0.03169583
O       10.13505399       6.29094078       2.39563822      -0.00740625       0.00379154       0.00451952
O       11.34605353       8.15519617       2.50135840      -0.00524014       0.00343207      -0.01857324
O       12.33015362       6.23539570       1.85499443      -0.01417971       0.00025135      -0.02671841
C        9.19734491       7.37405980       2.57410961      -0.00489366       0.00532641       0.01047066
C       10.08795167       8.45868218       3.13600602       0.00229730       0.00630289      -0.00405756
C       11.37116457       6.83862973       2.22290055      -0.01160449       0.00362965      -0.01333264
H        8.40702283       7.04872683       3.24464276       0.00231107       0.00913600       0.02065189
H        8.77341729       7.63646064       1.60122145      -0.01569177       0.00131208       0.01406124
H        9.80352397       9.47876756       2.91239113       0.00024460       0.00578567      -0.00357338
H       10.22916493       8.35550909       4.21073296       0.01597130       0.00943853      -0.00584880
