149
Lattice="13.36314119394077 0.0 0.0 0.0 13.36314119394077 0.0 0.0 0.0 13.36314119394077" Properties=species:S:1:pos:R:3:forces:R:3 energy=-295658.125 stress="-0.0010167892323806882 0.00027788874285761267 3.597013892431278e-05 0.00027788874285761267 -0.0005242357729002833 -0.00016574623441556469 3.597013892431278e-05 -0.00016574623441556469 0.00035131070762872696" pbc="T T T"
Sc       2.46076091       9.22997128       2.43131697      -0.02024987      -0.00387059       0.00428294
Sc       3.71528956      10.50347740      10.12724684      -0.01553556       0.01921411       0.00638426
O        9.18229039      13.49089766       8.59289824      -0.00311923       0.00097150       0.00041056
O        6.39920137      13.15913537       8.65211195      -0.00075521      -0.01253876      -0.01092859
O        8.20033338      11.30485487       7.54365822       0.01231724      -0.00290632      -0.00515679
O        7.85160746      13.61448583       6.32668891       0.00473806      -0.00428474      -0.00511932
Cr       7.98973642      12.87205687       7.73293463       0.00339687      -0.00455472      -0.00498748
Cr       5.41588497      12.66699658       9.92133888       0.00976227       0.00107118       0.00201243
O        3.82082298      12.43187654       9.45365110       0.00148517       0.02360716       0.02082139
O        5.69176486      11.10101964      10.40566725      -0.00637156      -0.00233483      -0.00311008
O        5.49600758      13.65359810      11.13571975       0.04646574       0.00104231       0.00035322
O        3.20986360      10.49971367      -1.31767496      -0.00902449      -0.00911272       0.00689510
O        2.30596137       8.41150805       0.39183429      -0.03494992      -0.00627589       0.00884217
O        3.96793140      10.07763901       1.40467044      -0.01722899      -0.02011499       0.00228688
O        4.84914172       8.46027216      -0.62370585      -0.03224659      -0.03260767       0.00429657
Cr       3.69418880       9.40065324      -0.14386144      -0.02882636      -0.01497108       0.00241628
Cr       0.55110163       8.93809974       0.32395635      -0.02417004       0.03042379      -0.00359994
O       -0.39292408       7.68099602       0.27688902      -0.04643065      -0.00042629       0.01368077
O        0.64255115       9.67013191       1.88746345      -0.02435219       0.00255078       0.01452827
O        0.29355666       9.97387066      -0.83026880      -0.02044439      -0.00622153       0.02734131
O        3.81506515       8.51126542       9.41412198       0.00019020       0.02282372      -0.00417422
O        2.22169318       8.14737396       7.09059700       0.00156701       0.02062183      -0.00148488
O        1.88802654      10.05293266       9.11334804      -0.01399267       0.00694352       0.00882360
O        1.38657381       7.48506598       9.59955498       0.00930047      -0.00192630      -0.00303167
Cr       2.28252392       8.48478424       8.79396586       0.00094214       0.01524219      -0.00006980
Cr       2.81257089       7.40257556       5.58662251      -0.00297421       0.00178277       0.00720194
O        2.14725733       5.99353853       5.40660450      -0.01174328       0.00046170       0.02442672
O        2.46411059       8.36208755       4.21606361      -0.00564539      -0.01018900      -0.00100371
O        4.36959347       7.22345578       5.72553316      -0.00546789      -0.00407168       0.00302832
C       11.61658757       8.36786097       8.20227328      -0.00101939       0.00806016      -0.00075847
C       10.70062402       9.21845321       9.07346976      -0.00199804       0.00614655      -0.00000520
C       11.40617096       8.57308772       6.70840506      -0.00130925       0.00965527      -0.00041494
C       10.83267059       8.88599341      10.55515582      -0.00308010       0.00395304      -0.00052562
C       12.31039218       7.68777274       5.86130524      -0.00220746       0.00961494      -0.00123155
C        9.93491351       9.73962857      11.43971667      -0.00435296       0.00164753       0.00052592
H       12.66019100       8.58281689       8.45632469      -0.00121683       0.00902775      -0.00078900
H       11.47251834       7.30772934       8.44398631       0.00009663       0.00759417      -0.00208559
H        9.66229801       9.09084367       8.75344317      -0.00156006       0.00665883      -0.00118905
H       10.91451404      10.28032616       8.91260202      -0.00157638       0.00638962       0.00191095
H       10.35663606       8.37880428       6.47092737      -0.00144568       0.01060905      -0.00021882
H       11.57525126       9.62573635       6.46229787      -0.00085928       0.00963786       0.00040309
H       10.59795256       7.82636663      10.71066390      -0.00236151       0.00351101      -0.00224943
H       11.87463769       9.00886751      10.86582603      -0.00342381       0.00443198       0.00033808
H       13.35584165       7.85237205       6.12455057      -0.00201055       0.00888451      -0.00143567
H       12.20067619       7.88156384       4.79340227      -0.00242091       0.01037941      -0.00111234
H       12.10424100       6.62924397       6.03391217      -0.00303352       0.00973846      -0.00198909
H       10.16999960      10.79873209      11.32479541      -0.00507234       0.00192237       0.00237153
H        8.88269797       9.61283755      11.17747248      -0.00481749       0.00072099       0.00155005
H       10.05611862       9.48112264      12.49375931      -0.00344811       0.00008480       0.00002679
C        6.72800208       8.08032500       3.34061516       0.00247592       0.00101841       0.00015175
C        6.10728374       7.29010276       2.19460519       0.00889933      -0.00457879       0.00067204
C        7.91031697       8.93423217       2.89388397       0.00424944      -0.00027533       0.00245488
C        4.83292188       6.55442098       2.58962098       0.00958525      -0.00736789      -0.00265163
C        8.63278376       9.61471762       4.04806270      -0.00198531       0.00579810       0.00264558
C        4.15956686       5.75731125       1.47821470       0.02193731      -0.01525676      -0.00435606
H        5.96777182       8.72713682       3.79517653      -0.00024295       0.00241439      -0.00672241
H        7.04186884       7.39579926       4.13737346      -0.00076170       0.00488693       0.00455999
H        6.84076762       6.57788577       1.80566360       0.01265937      -0.00396600       0.00665446
H        5.89359280       7.96880666       1.36681872       0.00926737      -0.00864062      -0.00274086
H        8.61520575       8.30590360       2.33827939       0.00759196      -0.00241464       0.00917578
H        7.55146465       9.68425457       2.18131173       0.00723827      -0.00422803      -0.00309308
H        5.02834571       5.90387419       3.44826373       0.00764524      -0.00241572       0.00142169
H        4.12613373       7.29594358       2.98530589       0.00318678      -0.00880232      -0.01188779
H        7.97641789      10.28586241       4.60428131      -0.00529811       0.00790121      -0.00392891
H        9.48506724      10.20088425       3.70072594      -0.00064352       0.00484718       0.00433835
H        9.01082055       8.87664728       4.75722993      -0.00501164       0.01013495       0.00854969
H        3.96341078       6.37194428       0.59964719       0.02488593      -0.01932552      -0.00782278
H        4.77941678       4.92016227       1.15305412       0.02949412      -0.01297964       0.00406055
H        3.20667803       5.34709049       1.82136668       0.02152275      -0.01894256      -0.01050323
C        7.66188930       3.82227218       2.83333689       0.00364983      -0.00840200       0.00260091
C        8.88933195       4.59766210       3.29380431       0.00125414      -0.00439054       0.00193435
C        6.84837835       3.24612144       3.98637918       0.00397299      -0.00676605       0.00361413
C        9.66489907       5.26595214       2.16510009       0.00275470      -0.00782854       0.00094718
C        5.58497223       2.53808380       3.52288366       0.00436386      -0.00822017       0.00498265
C       10.85300341       6.07744362       2.66028516       0.00065133      -0.00509629       0.00151539
H        7.02133899       4.48098405       2.23674335       0.00303257      -0.01148441       0.00000401
H        7.96854138       3.01295976       2.16026657       0.00604755      -0.00969160       0.00547773
H        9.55523804       3.92449319       3.84452147       0.00110841      -0.00092027       0.00611869
H        8.57730194       5.36461062       4.01322930      -0.00160776      -0.00196585      -0.00213701
H        7.46207394       2.54773746       4.56298680       0.00433487      -0.00544614       0.00477296
H        6.58070390       4.05669495       4.67252805       0.00373266      -0.00580326       0.00220817
H       10.00133333       4.50519438       1.45301984       0.00523031      -0.00987330       0.00458485
H        8.98659063       5.91882375       1.60665621       0.00354013      -0.01048812      -0.00279921
H        4.91264233       3.22424898       3.00260324       0.00227384      -0.00874542       0.00707042
H        5.04146084       2.10480238       4.36223793       0.00674426      -0.01007984       0.00551787
H        5.82781665       1.72756730       2.83288642       0.00425911      -0.00699338       0.00359073
H       10.52470800       6.86376091       3.34377670      -0.00155603      -0.00491634       0.00002262
H       11.55999669       5.44975942       3.20723184       0.00096839      -0.00318617       0.00308481
H       11.39381637       6.55234061       1.84089936       0.00052856      -0.00511058       0.00163874
C        9.68645576       3.39791131      11.43716728      -0.00035363      -0.00354460      -0.00306117
C        8.30822979       4.01915550      11.61883436       0.00060380      -0.00351009       0.00301107
C        9.63881051       1.89358458      11.20633028       0.00010437      -0.00391573       0.00024998
C        8.33722713       5.53343213      11.77628370       0.00427431      -0.00302160      -0.00404647
C       11.01489843       1.26801760      11.03746504       0.00076741      -0.00079170      -0.00597668
C        6.96191538       6.13227201      12.02066475       0.00736082       0.00283185      -0.00140815
H       10.19176546       3.87787527      10.58995407      -0.00590329      -0.00470990      -0.00684518
H       10.30200277       3.62155551      12.31737434       0.00424781      -0.00066631      -0.00690311
H        7.82106028       3.57353033      12.49424083       0.00587575       0.00023605       0.00754765
H        7.67847478       3.75583346      10.76165368      -0.00374182      -0.00651705       0.00723550
H        9.11405279       1.41517933      12.03988490       0.00551270      -0.00354075       0.00377092
H        9.04723316       1.67831033      10.31289409      -0.00411457      -0.00604443       0.00355873
H        9.00465183       5.79601131      12.60301100       0.00889058      -0.00124417      -0.00837657
H        8.78165273       5.98055925      10.88110329       0.00161994      -0.00966869      -0.00836268
H       11.55860422       1.74489747      10.21949119      -0.00442437      -0.00007567      -0.00900353
H       10.93758337       0.20861515      10.79708899       0.00292549      -0.00127414      -0.00430582
H       11.61525874       1.37482571      11.94469355       0.00531112       0.00191859      -0.00924848
H        6.28887103       5.94382903      11.18226660       0.00398822       0.00191203       0.00172751
H        6.50009902       5.69744827      12.90899093       0.00843476       0.00884304       0.00196987
H        7.00399547       7.21039907      12.16721405       0.01227182       0.00326413      -0.00583845
C        8.62806373       5.76538593       7.62487211       0.00465810      -0.00511795       0.00399023
C        8.86004696       4.27945724       7.38581692       0.00290716      -0.00468105      -0.00020300
C        7.24440961       6.09405493       8.17227437       0.00261402      -0.00379324      -0.00210872
C       10.25735055       3.96676105       6.86552809       0.00363946      -0.00491589       0.00222573
C        7.12127587       7.53615739       8.64230404       0.00159283      -0.00402427      -0.00188981
C       10.47794611       2.48192075       6.61443769       0.00305346      -0.00432801      -0.00118443
H        9.38517760       6.14008192       8.32430680       0.00213742      -0.00901791       0.00875598
H        8.78966860       6.31886600       6.69154974       0.01055683      -0.00219005       0.00679311
H        8.11596016       3.89375748       6.68131641       0.00406560      -0.00118676      -0.00330842
H        8.69522012       3.73008165       8.32014528      -0.00059094      -0.00783694      -0.00269195
H        6.48698689       5.89053281       7.40770200       0.00615370      -0.00260286      -0.00577900
H        7.02772253       5.41574034       9.00441211      -0.00256794      -0.00387654      -0.00353071
H       10.42827482       4.53623162       5.94625490       0.00634920      -0.00267042       0.00406361
H       10.99527725       4.33696280       7.58580628       0.00250402      -0.00743192       0.00462648
H        7.83206822       7.74903749       9.44367503      -0.00233288      -0.00519871       0.00189734
H        6.12250555       7.74888796       9.02403875      -0.00016141      -0.00312931      -0.00678444
H        7.32855797       8.23887257       7.83275650       0.00627062      -0.00374192      -0.00025533
H       10.34789458       1.89987880       7.52838182       0.00131065      -0.00633027      -0.00278419
H        9.75034550       2.08707258       5.90274653       0.00408238      -0.00209219      -0.00330597
H       11.47903956       2.28770097       6.22412159       0.00356133      -0.00404389      -0.00014381
C        3.21372332      11.88979617       4.09130449      -0.00749487       0.00640327      -0.00432012
C        4.19715687      11.90213554       5.25788702      -0.00288948       0.00564843      -0.00846951
C        3.08052859      13.19244146       3.31675834      -0.00902081       0.00865757      -0.00045767
C        4.14487179      10.57378702       5.99993681       0.00439030       0.00516245      -0.00920029
C        2.13238591      13.07363483       2.13051416      -0.00594035       0.01072007      -0.00285268
C        5.28663013      10.32695461       6.96283398       0.00545922       0.01408505      -0.00830567
H        3.58567084      11.12973957       3.38407661      -0.01155743       0.00742345      -0.00742066
H        2.22538793      11.57013887       4.45064482      -0.00646651       0.00716588      -0.00075771
H        3.96744081      12.72546792       5.94090932      -0.00145756       0.00433630      -0.00639367
H        5.21022536      12.08632963       4.88602021      -0.00510073       0.00862717      -0.01269789
H        2.74025110      13.97794593       3.99744418      -0.01160780       0.00570637       0.00142688
H        4.07057239      13.49787283       2.97082140      -0.00892720       0.01161537       0.00268628
H        3.18156363      10.50439423       6.51723006       0.00487453      -0.00053388      -0.00941278
H        4.14566511       9.76978732       5.26169734       0.00915125       0.00450695      -0.00879347
H        2.51473251      12.36099676       1.39705354      -0.00426629       0.01200052      -0.00300168
H        2.00512023      14.02849104       1.61910281      -0.00437479       0.01194549      -0.00123028
H        1.14567700      12.72568872       2.44406054      -0.00689058       0.01065557      -0.00606158
H        6.24616286      10.27162788       6.45067266       0.00693673       0.02790654      -0.00663801
H        5.38227322      11.13983742       7.68229723      -0.00554972       0.01277924      -0.00542838
H        5.15171936       9.38949808       7.50267593       0.01577915       0.01150145      -0.01096411
