149
Lattice="13.51653933898492 0.0 0.0 0.0 13.51653933898492 0.0 0.0 0.0 13.51653933898492" Properties=species:S:1:pos:R:3:forces:R:3 energy=-667511.5 stress="0.0017587015172466636 -0.0007038597832433879 -0.0006479532166849822 -0.0007038597832433879 0.00090340047609061 0.00048950566269923 -0.0006479532166849822 0.00048950566269923 0.0005103672156110406" pbc="T T T"
Sm      13.36012002      13.37861658       7.74082683      -0.00259879      -0.00119087      -0.00161225
Sm       6.95150935      11.16721034       8.81931908       0.00161674      -0.01708579       0.01130161
O        5.45285587      13.55299144       6.19237705       0.00426662      -0.00338924       0.00756729
O        6.21630216      13.13593641       8.27872021       0.02100433      -0.01239944       0.00664818
O        6.36722289      11.54853786       6.73254947      -0.00624222      -0.01752543       0.00980091
C        5.97346560      12.80728057       7.00155578       0.01413709      -0.01981601       0.02039018
O        2.29231251      12.80645788       2.62754932      -0.03095055       0.01883125      -0.00517592
O        2.80877548      14.86296704       2.07236523       0.00726485       0.01284182       0.00756645
O        1.30633459      14.47925573       3.64001569       0.00832701       0.03001446       0.01256466
C        2.14277837      14.05319404       2.77646507      -0.00489213       0.02016747       0.00450520
O        8.17037434      12.20928876      12.29139238       0.01096743      -0.01183075       0.02004671
O        6.55962726      11.34369917      10.95824610       0.01374388      -0.02862483       0.00990188
O        8.59467749      11.70988149      10.12433484       0.00889015      -0.01802191       0.00743318
C        7.80155649      11.77701715      11.21480643       0.00311434      -0.02807438      -0.00908262
C       11.04393501      10.15664025       7.31326471      -0.01339105       0.00648281       0.00188779
C        9.65345269      10.27402213       7.28988526      -0.01219186       0.00882442      -0.01057155
C       11.63288125       8.90544219       7.16098922      -0.01396334       0.00474817       0.01204349
C       11.90716304      11.37409304       7.49606872      -0.01131003       0.00388413       0.00268004
C        8.86380027       9.14089644       7.13398329      -0.01602162       0.01187033      -0.00984600
C       10.84024795       7.77231515       7.01368243      -0.02004183       0.00672926       0.01142288
C        9.45603153       7.88415498       7.00856706      -0.01871757       0.00904758       0.00072303
H        9.20407570      11.26567317       7.35420521      -0.01017235       0.01000382      -0.02056164
H       12.71481664       8.81862716       7.14510388      -0.01472662      -0.00062710       0.02121070
H       12.89113308      11.18595495       7.02839541      -0.00694460       0.00003614       0.01255190
H       11.42458532      12.25388881       7.02697827      -0.00538567       0.00271448      -0.00589873
H       12.04294419      11.59023941       8.57838870      -0.02142064       0.01143066       0.00223822
H        7.78170698       9.23970770       7.05342586      -0.01181182       0.01503221      -0.02193136
H       11.30523400       6.80166123       6.89140003      -0.02160014       0.00508194       0.01807155
H        8.84391990       6.99910930       6.89363970      -0.02071376       0.01009384      -0.00113272
C        2.90750996      11.16079513       7.79005329      -0.00373272       0.01049656       0.00998496
C        2.43184325      12.44541920       7.48886412       0.00765559       0.01403140       0.00594857
C        2.66932782      10.13607581       6.86806148      -0.01677915       0.01026943       0.01344154
C        3.72520096      10.90068417       9.02099741      -0.00436462       0.00819887       0.00962478
C        1.75173467      12.68521050       6.27290216       0.00869623       0.01830687       0.00690082
C        1.97152780      10.36530183       5.68896060      -0.01657111       0.01399702       0.01468682
C        1.50959998      11.64247476       5.37603016      -0.00488181       0.01777145       0.01085660
H        2.76792823      13.27889267       8.10663771       0.01264328       0.01110685       0.00604828
H        3.08249381       9.15145181       7.06206372      -0.02727210       0.00648259       0.01722237
H        4.45305040      10.10329374       8.82137090      -0.01161081       0.00137256       0.01168969
H        4.24970709      11.80081939       9.35031295       0.00371284       0.00517511       0.00566261
H        3.11358942      10.55479117       9.85960666      -0.00650960       0.01674827       0.01177645
H        1.56957575      13.70347432       5.90483706       0.01591666       0.01958446       0.00711442
H        1.84799253       9.56268706       4.97170230      -0.02661900       0.01307362       0.01714561
H        1.07226773      11.85819912       4.40946901      -0.00465427       0.01922880       0.01098472
C       11.91674358       3.47872798       1.64368420       0.00249012       0.00352634      -0.00563467
C       11.15340203       2.31794463       1.49924213       0.00349870       0.00267997      -0.00559304
C       11.24320403       4.70038584       1.68199373       0.00131604       0.00329256      -0.00753025
C       13.41112925       3.41014189       1.74928674       0.00230408       0.00457128      -0.00240362
C        9.76991529       2.37267308       1.38560390       0.00367143       0.00110981      -0.00709469
C        9.85965254       4.76307552       1.57523204       0.00102634       0.00148965      -0.00898886
C        9.11668288       3.59910118       1.42402764       0.00244918       0.00050136      -0.00963875
H       11.65508050       1.35703905       1.49959996       0.00437204       0.00295392      -0.00456868
H       11.81472845       5.61294283       1.81401598       0.00077541       0.00375270      -0.00813010
H       13.80475585       4.25593275       2.31458496       0.00169956       0.01238406      -0.01397484
H       13.74655547       2.49708794       2.24074545       0.00036602       0.01130271       0.01134948
H       13.88066851       3.43771078       0.76150606       0.00433818      -0.01040770      -0.00170729
H        9.19971369       1.45712893       1.28469784       0.00428253       0.00036862      -0.00715759
H        9.35869885       5.72120731       1.63896080       0.00048190       0.00189857      -0.01082604
H        8.03562042       3.64191081       1.36875053       0.00210223       0.00003161      -0.00923021
C        7.97915211       2.50684865       4.75286329       0.00197259      -0.00725221       0.00106756
C        8.71426377       1.32832046       4.91175717       0.00166449      -0.00817376      -0.00486481
C        8.66119179       3.72171961       4.83706081       0.00395457      -0.00788349      -0.00334526
C        6.50927208       2.45895819       4.46819383      -0.00022578      -0.00403146       0.01031436
C       10.08989274       1.36783979       5.10265534       0.00336202      -0.01093033      -0.01351931
C       10.03555047       3.76472950       5.04040426       0.00549334      -0.01045379      -0.01142120
C       10.76161737       2.58521381       5.15456306       0.00490576      -0.01141377      -0.01561568
H        8.19465468       0.37809841       4.85878741       0.00017020      -0.00734535      -0.00217755
H        8.11260807       4.64739905       4.69599164       0.00423127      -0.00652302       0.00033219
H        6.17951986       3.37640052       3.98075870      -0.00147285      -0.00016485       0.01810641
H        6.25543371       1.61069596       3.83280477      -0.00530085       0.00073320       0.00594375
H        5.92977859       2.30740426       5.38083299       0.00506264      -0.00887018       0.01272732
H       10.63923425       0.43418632       5.17213702       0.00237053      -0.01188745      -0.02126721
H       10.54493696       4.72067560       5.06824924       0.00780138      -0.01121856      -0.01524136
H       11.84104371       2.62326891       5.24502810       0.00581200      -0.01476186      -0.02317686
C        3.89277304       2.54148083      12.25238959       0.00118892       0.00040793       0.00447096
C        4.16419558       3.83140784      12.70529719       0.00121962       0.00077042       0.00332387
C        2.78861542       2.36543773      11.41724650       0.00216995      -0.00024623       0.00289252
C        4.73176526       1.37975091      12.68263702      -0.00085571      -0.00029951       0.00749770
C        3.34991940       4.90419670      12.36854881       0.00208687       0.00081548       0.00108384
C        1.96907720       3.43378632      11.07277277       0.00263965      -0.00019621       0.00104488
C        2.24142190       4.70949131      11.55390218       0.00256015       0.00030109       0.00008051
H        5.03768288       3.99028023      13.32591026       0.00048880       0.00104908       0.00473449
H        2.58858188       1.36966455      11.03671031       0.00273029      -0.00064215       0.00371409
H        4.78558303       0.60809012      11.91452422       0.00078675      -0.00041877       0.00769080
H        5.74952918       1.68813249      12.92253294      -0.00122936      -0.00066124       0.01072458
H        4.30072057       0.94042868      13.58791070      -0.00405718       0.00048725       0.00633949
H        3.58401927       5.89516290      12.73864958       0.00204249       0.00129712       0.00039805
H        1.11166150       3.28431004      10.42557292       0.00289204      -0.00064446       0.00041657
H        1.60181129       5.54257903      11.29146590       0.00296864       0.00027478      -0.00121415
C        4.76487351       5.86013468       3.48894216      -0.00354078      -0.00168049       0.00733683
C        5.44375128       5.49290018       2.32792194      -0.00335765      -0.00143299       0.00718601
C        5.16191574       7.03244698       4.13771177      -0.00409362      -0.00093816       0.00717559
C        3.65028217       5.01111666       4.02657766      -0.00391552      -0.00164080       0.00689952
C        6.48292425       6.26819983       1.82605547      -0.00376523      -0.00086809       0.00691282
C        6.20569630       7.80737672       3.64716559      -0.00446042      -0.00049390       0.00695923
C        6.87079480       7.42722438       2.48572177      -0.00421551      -0.00032635       0.00683507
H        5.14255046       4.58435218       1.82145737      -0.00300468      -0.00186244       0.00740613
H        4.64020690       7.34177745       5.03721411      -0.00442983      -0.00138120       0.00720137
H        2.75286189       5.60827581       4.20102370      -0.00704576      -0.00300188      -0.00463674
H        3.39639696       4.19836285       3.34629991       0.00383550      -0.00861020       0.01240799
H        3.92693362       4.56740398       4.98650163      -0.00938188       0.00750171       0.01260537
H        6.98928670       5.96789777       0.91584145      -0.00372902      -0.00051735       0.00672561
H        6.48968326       8.71844834       4.16015706      -0.00423257       0.00004105       0.00640536
H        7.67183479       8.03991196       2.09170661      -0.00454616       0.00022623       0.00667244
C       12.04413117       0.84839116       9.96459275       0.01866028      -0.00376689      -0.00652970
C       11.65725086       1.51524671       8.78223061       0.02104548       0.00905816      -0.00023397
C       11.06274983       0.56339812      10.91372209       0.01436140      -0.02163773      -0.01569349
C       13.47273045       0.42642777      10.22315224       0.01962348       0.00048801      -0.00492024
C       10.32125018       1.88059781       8.57173023       0.02055499       0.00262475      -0.00520109
C        9.74591888       0.95445541      10.71848836       0.01394932      -0.02720476      -0.01919909
C        9.37268327       1.59769078       9.54254411       0.01563720      -0.01561434      -0.01455112
H       12.40465915       1.92952266       8.08482811       0.02438456       0.01710913       0.00817671
H       11.32778097       0.04778858      11.82868760       0.01201013      -0.03213306      -0.02125491
H       13.67039886      -0.65010504      10.00931731       0.02295291       0.00078644      -0.00396149
H       14.20865728       1.03865796       9.67191182       0.01768855       0.00147234      -0.00693102
H       13.73712731       0.54152812      11.27533070       0.01967170       0.00243972      -0.00489941
H       10.03508781       2.39045623       7.66181306       0.02243513       0.01036429      -0.00174978
H        9.01554961       0.71989039      11.48178608       0.01056764      -0.04041431      -0.02616288
H        8.33947130       1.88042285       9.38308262       0.01498747      -0.02171038      -0.01852070
C        6.30324673       6.60706302       9.17153972      -0.00567479       0.00035948      -0.00728621
C        6.12815684       5.52785772      10.03793191       0.00270814       0.00209706      -0.00330776
C        6.29683839       6.35944522       7.79912784      -0.01069453      -0.00298962      -0.00678872
C        6.50434679       7.99978299       9.70788613      -0.01057151       0.00340572      -0.01384154
C        5.96572041       4.23827853       9.54678190       0.00618144       0.00024763       0.00093696
C        6.14480313       5.06893645       7.30403444      -0.00688128      -0.00457104      -0.00287382
C        5.98198159       3.99971384       8.17643933       0.00191886      -0.00255838       0.00139921
H        6.10418994       5.69955233      11.10809020       0.00668964       0.00507842      -0.00365072
H        6.41160312       7.18267559       7.10184457      -0.01737798      -0.00429883      -0.00932751
H        6.31231573       8.72537146       8.90506075      -0.02571246      -0.00254925      -0.01475177
H        5.83704041       8.23101166      10.53975104      -0.00277406       0.00141722      -0.00689185
H        7.52897965       8.15751956      10.06123222      -0.00752783       0.01261716      -0.02556770
H        5.80929620       3.41714131      10.23457161       0.01256219       0.00083551       0.00370270
H        6.15229214       4.90196018       6.23418493      -0.01057469      -0.00865056      -0.00241621
H        5.86159898       2.99155997       7.79746646       0.00872264      -0.00363429       0.00285301
C        3.74498936       9.98287766      -0.21564928       0.00016584      -0.00038533      -0.00279415
C        3.55137691      11.35556257      -0.37323466       0.00087230       0.00038159       0.00097439
C        2.62448604       9.15191505      -0.21352109      -0.00022248      -0.00006339      -0.00847187
C        5.12324797       9.43902846       0.00921048      -0.00070089      -0.00191256       0.00020142
C        2.27469485      11.88618798      -0.49929327       0.00154361       0.00119656      -0.00056218
C        1.34514060       9.67543986      -0.36011172       0.00005370       0.00099559      -0.01000551
C        1.16596359      11.04639211      -0.50175607       0.00110313       0.00168456      -0.00586042
H        4.41525794      12.00729826      -0.37302091       0.00138088       0.00019236       0.00521124
H        2.75528525       8.08375488      -0.07724960      -0.00105990      -0.00058559      -0.01146283
H        5.18393806       8.38085396      -0.25039179      -0.00084957      -0.00151995      -0.00130664
H        5.86367413       9.99914099      -0.56248830       0.00113738      -0.00201136       0.00227953
H        5.39207377       9.52252343       1.06516794      -0.00431861      -0.00386577       0.00130072
H        2.14788390      12.96153759      -0.55234295       0.00180698       0.00174114       0.00241651
H        0.48715313       9.01390247      -0.34430975      -0.00022006       0.00125336      -0.01383052
H        0.16483768      11.45318839      -0.57710843       0.00119457       0.00254849      -0.00650047
