144
Lattice="12.832803744919046 0.0 0.0 0.0 12.832803744919046 0.0 0.0 0.0 12.832803744919046" Properties=species:S:1:pos:R:3:forces:R:3 energy=-3235984.0 stress="0.0012623417424038053 -8.649697338114493e-05 0.0001984449554583989 -8.649697338114493e-05 0.001885231933556497 -2.6182566216448322e-05 0.0001984449554583989 -2.6182566216448322e-05 0.001556186005473137" pbc="T T T"
Ta       2.28924359      10.61378545       1.42357444       0.00346416      -0.01372820      -0.00431585
Ta      -0.39364936      10.69200481       1.52391462       0.00287503       0.00377321       0.00135732
O        7.17493622      13.11450663      10.42236035       0.00781837       0.00188088       0.00707703
O        6.32716302      10.83445241       8.69165871      -0.01148039       0.00814492      -0.00034976
O        4.85539271      11.33205679      11.12893427       0.00075126       0.01012446       0.00988382
O        7.45196446      10.20492527      11.24663582      -0.00464308       0.00048769      -0.00375700
W        6.43212194      11.31013967      10.35946276      -0.00165218       0.00562263       0.01022977
O        6.51436765       0.99825032      11.50364158       0.00735998       0.00196499       0.00785074
O        5.70551084       3.35673940      12.43988601       0.00762296       0.00416297       0.00427699
O        6.56265264       3.03136297       9.51551822       0.00547686      -0.00108990       0.00446749
O        8.61382953       2.96047401      11.72726484       0.00801587       0.00043127       0.00418228
W        6.91100488       2.89291958      11.24030608       0.00810365       0.00174487       0.00411837
O       13.71752935      11.87981286      10.73585418       0.00227000      -0.00402516       0.00874501
O       15.43416432      10.33723269      12.44602322      -0.00217696      -0.01464713      -0.00550872
O       13.46091156       8.97725082      10.79411682      -0.01289666      -0.00539505      -0.00971442
O       11.95859404      10.66903634      12.57920814      -0.00135241       0.00183294       0.00166792
W       13.67689677      10.43615739      11.67326128      -0.00250718       0.01245880      -0.00018507
O       11.13412999       5.97183487       5.52097364      -0.01563120      -0.00948167       0.00904176
O        9.02285872       7.69443366       4.27861881      -0.02140993      -0.04349926      -0.00117326
O       11.13575418       8.77718775       6.03993963      -0.00383830      -0.00852108      -0.01446259
O        9.13297178       7.08346469       7.24470374      -0.00497091      -0.00179768       0.00172019
W       10.11627759       7.36211850       5.83221007      -0.01730239      -0.04329118      -0.00529778
O        2.74993958       9.18921815       2.45136414      -0.00385931      -0.01801598      -0.00550231
O        4.93732045       7.73500647       4.16367260      -0.00194287       0.00371610       0.00478363
O        4.97274937       7.24388285       1.34074771       0.00856149      -0.00211620       0.00526476
O        2.85856917       6.31200427       2.92850989       0.01405549      -0.02226114       0.00261649
W        3.98272807       7.62514850       2.71731352      -0.00056279      -0.01324034      -0.00097957
O       10.90908052       7.92896128       1.48311938      -0.00113785       0.00505796       0.02405612
C       12.29241586       8.77492077       3.23737911       0.00650404       0.02139689       0.01120484
C       12.63219451       7.29688330       2.93282581       0.01325566       0.02185312       0.01550657
C       11.21848156       9.08850504       2.19738033      -0.00078478       0.01105797       0.01427042
C       12.08067869       7.09818578       1.53224092       0.00223152       0.00972094       0.02133340
H       11.97463637       8.95075332       4.28226672       0.01112914       0.02316021       0.00994009
H       13.23794659       9.38365410       3.10292032       0.00508490       0.02442166       0.00085239
H       13.69492429       7.06165769       3.00202905       0.01472348       0.02838942       0.00706911
H       12.10414849       6.67189750       3.66033375       0.02209285       0.02215886       0.02433115
H        9.32459204       7.35750062       3.43176582      -0.00072293      -0.02329507      -0.01383328
H       10.28593899       9.52841257       2.56889006       0.00012138       0.01083215       0.01634894
H       12.78943714       7.42775639       0.75609098      -0.00509495       0.00853512       0.01312727
H       11.76282328       6.08246586       1.30525659       0.00580098       0.00725111       0.02973701
O       11.82237579      -0.10978590       1.78039209       0.00658882       0.00462783      -0.00225545
C       10.66142893       1.85750313       2.37096404      -0.01056391      -0.00465161       0.00106844
C       11.39873513       2.13268807       1.05947766      -0.01514167      -0.00033379      -0.00094846
C       11.42311355       0.68997316       2.95713197      -0.00439456      -0.00233584      -0.00082630
C       11.70150626       0.75013641       0.53934139      -0.01274048       0.00134543      -0.00327682
H       10.66519750       2.71064948       3.04752485      -0.01252752      -0.00566855       0.00204319
H        9.62659310       1.58355688       2.16198075      -0.01015210      -0.00903541       0.00307065
H       10.77784530       2.67627648       0.34611157      -0.01956043      -0.00171672       0.00125411
H       12.31574731       2.69559013       1.24342824      -0.01568127       0.00202924      -0.00284714
H       12.34059044       1.00440845       3.45839033      -0.00790876       0.00172513       0.00395285
H       10.84338184       0.03737181       3.60802931      -0.00239432      -0.00796734      -0.00489448
H       10.88498379       0.32181789      -0.03452762      -0.01742938      -0.00372404       0.00691172
H       12.63827664       0.64423167      -0.00721891      -0.01838344       0.00474988      -0.01312038
O        6.72218204       4.60785192       6.05903352      -0.00270809       0.00481963       0.01388590
C        7.64871292       2.54290769       5.54331217      -0.00309412       0.00697947       0.00131893
C        6.26953861       2.26832143       6.14750933      -0.00047429       0.00389087       0.00574061
C        7.95390841       3.90817240       6.14761209      -0.00064197       0.00580752       0.00368196
C        5.65601584       3.67600088       6.24106757      -0.00170638       0.00303209       0.01008769
H        8.38630669       1.78325856       5.80133934      -0.00117508       0.00690366      -0.00354742
H        7.59306316       2.62374951       4.45394378      -0.00739788       0.01003560       0.00143945
H        5.65941150       1.58303439       5.55751741      -0.00203435       0.00418989       0.00693369
H        6.37486078       1.84917344       7.14764882       0.00364850       0.00248329       0.00503564
H        8.25679050       3.80044886       7.19745809       0.00479984       0.00229505       0.00206405
H        8.71710554       4.48771048       5.62609321      -0.00417197       0.00741991       0.00161260
H        4.91894175       3.87664620       5.45666688      -0.00169095       0.00408025       0.00979704
H        5.18886031       3.83256537       7.21814557      -0.00226519      -0.00028840       0.01052183
O        5.44261727       9.90882127       2.31761968      -0.00172091       0.01261292      -0.00105317
C        7.32893526      11.16256259       2.81290443       0.00357413       0.00474137       0.00546078
C        7.23759702      11.05565727       1.27474019       0.00950992       0.00122005       0.00471383
C        6.49503461       9.98418045       3.29236635      -0.00767204       0.01196325       0.00506060
C        6.11583009      10.03307476       1.04129365       0.00819629       0.00268888       0.00303452
H        8.34786720      11.11238074       3.19889485       0.00136101      -0.00186801       0.01128742
H        6.88760033      12.09987133       3.16107562       0.00992054       0.00949264       0.00084920
H        7.00942203      12.01770172       0.81350278       0.01240854       0.00074399       0.00169753
H        8.15285422      10.69729177       0.80771320       0.01081792      -0.00125656       0.00871545
H        7.06403192       9.04996437       3.28857495      -0.01373112       0.00795645       0.01444502
H        6.04796863      10.09024619       4.27683138      -0.01379043       0.02037385       0.00201654
H        5.38778168      10.33428279       0.28689610       0.01438543      -0.00002810      -0.00401658
H        6.50542804       9.05551774       0.75954249       0.00755614      -0.00026000       0.01242884
O        2.80807673       0.71972653       8.31234208       0.00970528       0.00907952      -0.01925606
C        3.31002790       2.49497998       9.83931661      -0.00119157      -0.00131041      -0.00318825
C        2.13599010       2.85523420       8.92260709       0.00203262       0.00299221      -0.00636858
C        3.77123882       1.12457523       9.30763501       0.00011474      -0.00015467      -0.00652677
C        1.62949253       1.47382856       8.53410095       0.00644439       0.00467587      -0.01921354
H        4.12265801       3.21915539       9.81698871      -0.00063646      -0.00134921       0.00221792
H        2.97656913       2.41623676      10.87522652      -0.00484592      -0.00505742      -0.00456241
H        1.38140123       3.47447419       9.40805483      -0.00155707      -0.00183813      -0.00550966
H        2.48661913       3.38114889       8.03288666       0.00513761       0.01013322      -0.00094253
H        4.74495060       1.18493780       8.81959961       0.00574398      -0.00102010       0.00458375
H        3.82886313       0.36130499      10.09075889      -0.01150379      -0.00440854      -0.00971329
H        1.03583817       1.03068026       9.34559418       0.00360537      -0.00286007      -0.02554721
H        1.03694585       1.45167053       7.61637137       0.01077443       0.01103802      -0.02259654
O        3.04711753      -0.30104790       1.91637876       0.00586280      -0.01532729      -0.00721188
C        4.35684894       1.67477070       1.74081869       0.00787675      -0.01789695      -0.01246058
C        3.27089896       1.87922287       2.79646338       0.01056239      -0.01375681      -0.01013631
C        3.80254991       0.55383083       0.90396323       0.00176135      -0.01597302      -0.01108581
C        2.94054174       0.45777578       3.18644689       0.00615723      -0.01275508      -0.00859028
H        4.58412689       2.54389292       1.11789096       0.00975371      -0.01753837      -0.01188460
H        5.28882515       1.36813171       2.22069268       0.00768805      -0.02189206      -0.01443776
H        3.59998960       2.46651877       3.65147068       0.01399080      -0.01446128      -0.01092863
H        2.40229002       2.38261175       2.36556576       0.01162413      -0.01059754      -0.00885962
H        3.04900115       0.88890901       0.19164270      -0.00183499      -0.01427317      -0.00665103
H        4.51793124      -0.09450438       0.40147669      -0.00276348      -0.01773205      -0.01588510
H        3.67667335       0.03066409       3.86714722       0.00404191      -0.01401259      -0.00673550
H        1.93824203       0.29010949       3.57576683       0.00487557      -0.00884876      -0.00983287
O        4.87707938       7.80488445       9.05489123      -0.00214791      -0.00591827      -0.00097758
C        3.07343507       6.65477639       8.15993474      -0.00869104       0.00617307      -0.00512755
C        3.89930841       7.17712356       6.97298881      -0.00464889       0.00502113      -0.00324386
C        3.49266537       7.60868333       9.27582364      -0.00285083      -0.00058478      -0.00142728
C        5.04627432       7.96704173       7.63892442      -0.00246698       0.00000829      -0.00076121
H        1.99676644       6.64513021       7.96596781      -0.00800192       0.01302889      -0.00304937
H        3.38176948       5.64196123       8.42724185      -0.01297365       0.00340691      -0.00850672
H        4.27908248       6.38696160       6.33063116      -0.00744076       0.00525078      -0.00484011
H        3.30895962       7.82678719       6.32909045      -0.00176549       0.00879210      -0.00278932
H        2.94966150       8.56264565       9.19736041       0.00151467       0.00247645       0.00140640
H        3.35903750       7.22021555      10.28632221      -0.00556499      -0.00380650      -0.00294346
H        6.04064879       7.60397351       7.37947550      -0.00325400      -0.00116420      -0.00330917
H        5.01305381       9.03496766       7.40113985      -0.00054105       0.00127304       0.00418700
O        9.65842162      -0.37231310       9.12193948      -0.00310770      -0.00612140      -0.00782821
C       10.65504078       1.76636090       9.51400002      -0.00047699      -0.00761288      -0.00176755
C       10.41800331       1.52737821       8.02057716      -0.00442195       0.00226468      -0.00174862
C       10.27733774       0.41309237      10.14482904       0.00027049      -0.01049942      -0.00552618
C        9.28744304       0.50665538       8.07073383      -0.00184938      -0.00182414      -0.00505006
H       11.68347138       2.05293146       9.73518333      -0.00203285      -0.00962218      -0.00255929
H        9.99500500       2.54402525       9.90237559       0.00097865      -0.00769550       0.00367731
H       10.16660178       2.43922215       7.48093572      -0.00612953       0.00108340       0.00288866
H       11.29916652       1.07633410       7.55668379      -0.00300717       0.00077531      -0.00538855
H       11.14796286      -0.14919840      10.49079666       0.00005674      -0.01133469      -0.00938636
H        9.57176199       0.55847638      10.96955625       0.00198150      -0.01310942      -0.00398165
H        8.33266949       1.00043956       8.29907254      -0.00409007      -0.00274357      -0.00226235
H        9.17284394      -0.09795904       7.16937834      -0.00679526       0.00945386      -0.00584164
O        7.05737407       5.14033479      11.04570866       0.01048182       0.00109482       0.00105192
C        8.17409786       7.08510640      11.79541393      -0.00238651       0.00913382      -0.00221598
C        8.79420395       6.62503019      10.47284751       0.00258100       0.01102689      -0.00146311
C        7.41500175       5.85569562      12.26518283       0.00761199       0.00326222       0.00044888
C        7.68229551       5.78514820       9.88834100       0.00966579       0.00069383       0.00005607
H        8.91153825       7.39929796      12.53193529      -0.00657466       0.01541855      -0.00010282
H        7.50886338       7.92994637      11.61102767      -0.01005220       0.00313866       0.00021817
H        9.05676566       7.43707715       9.79888655      -0.00055526       0.00617328      -0.00879738
H        9.68218650       6.01086544      10.64604123       0.00445631       0.01581106       0.00419600
H        8.04472602       5.17313884      12.84378421       0.01398551       0.00741547      -0.00072405
H        6.49870031       6.06060655      12.81809893       0.00637364      -0.00312109       0.00216684
H        6.91916674       6.40116996       9.41327833       0.00603896      -0.00767696      -0.00404349
H        7.98821368       4.99838998       9.20688467       0.01744492       0.00095415       0.00336364
