147
Lattice="13.68934956295405 0.0 0.0 0.0 13.68934956295405 0.0 0.0 0.0 13.68934956295405" Properties=species:S:1:pos:R:3:forces:R:3 energy=-1109848.25 stress="-0.0004948740242980421 8.95760786079336e-05 0.0001628452373552136 8.95760786079336e-05 0.00012602035712916404 -0.00011556046229088679 0.0001628452373552136 -0.00011556046229088679 0.00047699944116175175" pbc="T T T"
Ta       4.42228039      12.66478874       4.99495241      -0.00818676      -0.00827907      -0.00961792
Ta       2.08300221      12.93462479       2.97769045       0.00861323       0.01056549      -0.01814307
O        1.28067141       1.95091595       0.61268189       0.00685692       0.01150510      -0.00015664
O        3.15622818      -0.01097402       1.59146218       0.00168371       0.00878489      -0.00953264
O        1.45007911       0.98435810       3.18014804       0.00361544      -0.00250632      -0.00928855
O        3.32300730       2.80876488       2.13813333      -0.00011516       0.00273335       0.00015908
Cr       2.34202224       1.62707264       1.71744006       0.00290320       0.01089001      -0.00693893
O        0.84876885       9.41173525       4.21086655       0.04809786       0.00601727      -0.01128912
O        1.10195563      12.14295933       4.54449441       0.03041479      -0.00254692      -0.00257844
O       -1.12562540      10.97111249       3.42941200       0.02751052      -0.01996140       0.02534992
O        1.34757242      11.32151506       2.19894013       0.00118537       0.00060976      -0.01513925
Cr       0.42999476      10.82589492       3.62219077       0.01471007      -0.02819663       0.00678200
O        6.13569298      12.25022875       5.56135543      -0.00035292       0.00589242      -0.01889303
O        3.77712230      12.98742679       6.63782439       0.00304711      -0.00921416      -0.00366688
O        6.17770387      13.66830187       8.08744942       0.01039046       0.01317167      -0.02612740
O        5.37106605      11.08214158       8.12734116       0.02993109       0.01005220      -0.01423842
Cr       5.51592374      12.45398812       7.35443029       0.01225919       0.00453444      -0.01290286
O        7.01987816       2.64949655       9.42416510       0.00672221       0.01327925      -0.01152730
O        7.71867466       3.20880245      11.93102656      -0.00579119       0.01092649      -0.00712681
O        9.46916014       3.51809700       9.98244001       0.00526309       0.00921297       0.00362140
O        8.75114130       0.92699242      10.68176496      -0.00245297       0.01029903      -0.00298196
Cr       8.21585297       2.68497092      10.49642764       0.00151232       0.01121235      -0.00440904
O       10.02655207      14.46399365      11.14904662      -0.00629693       0.00765193       0.00598398
O        9.85579339      12.48676806      13.13546875      -0.03480172       0.00404298      -0.00458837
O       12.11388917      12.89859918      11.82308423      -0.01590347       0.00314091       0.02424036
O       10.08990883      11.68288595      10.62125693      -0.00047332       0.00944424      -0.00354862
Cr      10.53377390      12.78171821      11.70180110      -0.01384711       0.00631642       0.00620544
O       10.88958988       8.54553100       7.47601261      -0.00239849       0.00794894      -0.00153925
C       10.50407866       9.69300242       8.23240736      -0.00201821       0.00659445      -0.00054097
C       12.23388332       8.60473131       7.05873805      -0.00138479       0.00790727      -0.00163624
C        9.07254749       9.52517046       8.66945181      -0.00246763       0.00437453       0.00016654
C       12.58583613       7.31718694       6.35137020      -0.00221267       0.00878459      -0.00368574
H       11.15964677       9.81939261       9.10048454      -0.00083059       0.00601088      -0.00065249
H       10.62590895      10.59574862       7.61696737      -0.00309129       0.00736105       0.00015345
H       12.38663985       9.46440699       6.38768783      -0.00108542       0.00879490       0.00062671
H       12.88838847       8.75882936       7.93153253      -0.00222582       0.00536055      -0.00059062
H        8.78343408      10.38738572       9.26785595      -0.00129363       0.00415808       0.00201006
H        8.40996739       9.43370941       7.80838304      -0.00326669       0.00658565      -0.00044170
H        8.96523807       8.62786060       9.28029159      -0.00235635       0.00198238      -0.00294667
H       13.61544761       7.35264071       5.99413492      -0.00215292       0.00912699      -0.00360236
H       12.46810453       6.46542293       7.02194628      -0.00249356       0.00751373      -0.00524411
H       11.93539481       7.16350764       5.49011786      -0.00223549       0.01065885      -0.00395025
O        3.89432399      10.55831751       5.03640271       0.00023536      -0.00519055       0.00108242
C        3.38227668       9.68586151       6.13136835       0.00052417      -0.00197196       0.00379640
C        4.68688271       9.72862432       4.11993514      -0.00382017      -0.00830215       0.00006293
C        2.30424521      10.30343904       6.96863493       0.01009324       0.00585255       0.00940880
C        5.23568541      10.57684874       3.01124521      -0.00958353      -0.01280105      -0.00616395
H        2.99730984       8.81465997       5.60263783      -0.00898127       0.00182429       0.00573125
H        4.25974951       9.42522663       6.72403052       0.00185516      -0.00773899      -0.00185832
H        5.48371172       9.26443396       4.70373303      -0.00123090      -0.00568512      -0.00167319
H        4.01189744       8.95739321       3.74899674      -0.00575605      -0.00943336       0.00632740
H        2.02636403       9.54577345       7.70434281      -0.00690788       0.00068702      -0.00256536
H        2.63495515      11.18389624       7.50899034       0.02481028      -0.00825703       0.02326627
H        1.42241388      10.53990072       6.38226120       0.01628248       0.03212488       0.01138583
H        5.92987609       9.98712516       2.41148852      -0.01002930      -0.01492651      -0.00478671
H        4.46123734      10.96602958       2.34760488      -0.01260984      -0.01930918      -0.00662144
H        5.86226918      11.38017196       3.40378790      -0.01033947      -0.00802915      -0.01406492
O        9.33871850       9.82937852       2.63692165      -0.00609338      -0.00457525       0.00380647
C       10.21798487       9.07478073       1.81816436      -0.00740184      -0.00090193       0.00024652
C        9.61570268       9.65310621       4.01672207      -0.00348765      -0.01000464       0.00247073
C        9.95603876       9.39602943       0.36894153      -0.01100765       0.00056881       0.00168037
C        8.86595943      10.70889688       4.78669940       0.00155580      -0.00935644       0.00592294
H       11.25388916       9.32321027       2.08331699      -0.00658494      -0.00074932      -0.00493653
H       10.08030969       7.99977327       2.02357714      -0.00402343      -0.00212282      -0.00401063
H        9.30985907       8.64518741       4.33679132      -0.00748858      -0.01011062      -0.00135282
H       10.69412710       9.74542783       4.18991533      -0.00297761      -0.01523331       0.00007823
H       10.65055110       8.83199535      -0.25413661      -0.00937721       0.00124022       0.00297547
H        8.93924227       9.12620260       0.08203386      -0.01134732      -0.00042294       0.00304944
H       10.09092602      10.46114975       0.16833035      -0.01374740       0.00101539       0.00128427
H        9.05483618      10.61314967       5.85564344       0.00155628      -0.01544811       0.00508842
H        9.17866737      11.70339850       4.46512168       0.00664276      -0.00969011       0.00996708
H        7.79257015      10.61936827       4.62625233       0.00121807      -0.00298286       0.00484534
O       11.30807876       2.04953819       3.66604944      -0.00008160       0.00144522      -0.00248790
C       12.53214700       2.66066328       4.04004252      -0.00062701       0.00134155      -0.00153005
C       11.45618757       1.32031799       2.44871092       0.00025451       0.00127423      -0.00230271
C       12.46496692       3.19723229       5.45049004      -0.00141986      -0.00197619      -0.00017035
C       10.12179666       0.78301147       2.00155207      -0.00053382       0.00508794      -0.00426189
H       13.34138195       1.93080995       3.95537638       0.00026888       0.00212532      -0.00315728
H       12.76266444       3.47165314       3.32842652      -0.00125098       0.00301313       0.00044751
H       11.88925445       1.97193892       1.67600886       0.00270048       0.00197706       0.00098139
H       12.16616844       0.49561950       2.60664939      -0.00272909      -0.00091523      -0.00114961
H       13.40074870       3.71351843       5.67679136      -0.00342217       0.00071573       0.00121709
H       11.63532594       3.88891825       5.58065365      -0.00382310      -0.00496754       0.00133555
H       12.33528851       2.39030607       6.17155372       0.00129680      -0.00384688      -0.00185606
H       10.24026520       0.14725025       1.11911788      -0.00319736       0.00733256      -0.00622115
H        9.67467818       0.18216640       2.79532133      -0.00461315       0.00556764      -0.00638071
H        9.44055485       1.59507476       1.74547522       0.00306011       0.00810504      -0.00275787
O        9.24898025       3.69418997       5.50171693      -0.00305575       0.00285339       0.00486046
C        8.50385666       2.62175667       6.06838746       0.00210512       0.00065303       0.00788265
C        8.80011346       4.06997056       4.22308808      -0.00331996      -0.00315058       0.00317591
C        9.30493884       1.94348436       7.14715876       0.00771108       0.00447178       0.00604576
C        9.70916742       5.14465910       3.67717155      -0.00836971       0.00033963       0.00199440
H        7.56328365       3.00979142       6.48965765       0.00200146      -0.00242653       0.01033795
H        8.26126600       1.90236868       5.27058938       0.00249606      -0.00099617       0.00920194
H        8.81246067       3.19581380       3.55607667       0.00240222      -0.00481445       0.00568187
H        7.76514396       4.44296428       4.27564053      -0.00554311      -0.00863552       0.00049964
H        8.67621687       1.20960638       7.65290709       0.01180002       0.00290719       0.00866684
H       10.17043584       1.43813759       6.72032075       0.00825024       0.00699730       0.00401827
H        9.63425415       2.66381800       7.89604345       0.00795642       0.00660592       0.00390938
H        9.35568602       5.47558027       2.70037749      -0.00685234      -0.00570315      -0.00049363
H        9.73236197       6.00595497       4.34517615      -0.01560632       0.00306129      -0.00147614
H       10.72006554       4.75626697       3.56218314      -0.00538646       0.00608081       0.00690651
O        3.31877766       2.89164131      12.19830580       0.00609291      -0.00051397       0.00013447
C        4.74124919       2.83730430      12.07140871       0.00641501      -0.00056571       0.00055893
C        2.78023540       4.11562376      11.76271074       0.00665992       0.00024909       0.00028591
C        5.21383928       1.52286159      12.63834908       0.00637802      -0.00321615      -0.00464067
C        1.27707784       4.08019263      11.91478630       0.00632900       0.00227074      -0.00119349
H        5.03721680       2.93399847      11.01938493       0.00587159       0.00404736       0.00078148
H        5.19750328       3.67768712      12.61213840       0.00579154      -0.00241649       0.00350899
H        3.20608261       4.94484767      12.35132388       0.00698775      -0.00003844       0.00047299
H        3.05252513       4.30002071      10.71147800       0.00717704       0.00030082       0.00037503
H        6.29717687       1.46598320      12.54477764       0.00584435      -0.00611831      -0.00496384
H        4.94552787       1.44353906      13.69265463       0.00629149      -0.00678795      -0.00512458
H        4.75838208       0.68646541      12.10759477       0.00470988      -0.00030346      -0.00708425
H        0.84467503       5.02156044      11.57065285       0.00759758       0.00141917      -0.00555937
H        0.85505624       3.26586327      11.32563099       0.00617622       0.00053260       0.00132815
H        0.99967135       3.91745396      12.95402704       0.00455412       0.00658688      -0.00112820
O        4.88099102       0.99900192       4.54279483      -0.00571808      -0.00355284       0.00035210
C        4.45025522       2.27764201       5.17702584      -0.00320537      -0.00673497       0.00651604
C        5.84957730       1.34498855       3.46090905      -0.00046718      -0.00159276       0.00660273
C        3.27738298       2.14449247       6.10077792      -0.00184178      -0.01153219       0.00776777
C        6.38071560       0.12284819       2.78151594      -0.00456497      -0.00003269       0.00011465
H        5.33953863       2.64378527       5.69252652      -0.00279370      -0.00931470       0.00790082
H        4.21043725       2.91730045       4.32806111      -0.00402419      -0.00177425       0.01041833
H        5.28857222       1.98032405       2.77734523       0.00548661       0.00593880       0.00852223
H        6.63233981       1.91962968       3.95422146       0.00135911      -0.00882877       0.01228857
H        2.95284605       3.16321776       6.32329991      -0.00109865      -0.01311654       0.01588257
H        2.43854595       1.63626729       5.62469911      -0.00283109      -0.00837468       0.00597513
H        3.53119456       1.65653284       7.03710979      -0.00014338      -0.01804514       0.00381142
H        7.03049254       0.44723014       1.96668063      -0.00575186       0.00157604      -0.00020097
H        6.98383180      -0.49454178       3.44746896      -0.00511500      -0.00444305      -0.00394094
H        5.57577598      -0.44527306       2.31149248      -0.00701401       0.00366545      -0.00072801
O        6.41795193       6.81521277       4.32601180      -0.00230816      -0.00165167      -0.00104483
C        5.77402575       6.20606571       3.22139105      -0.00388749      -0.00033058      -0.00096488
C        6.01579181       6.26452391       5.57042936      -0.00338268      -0.00067991      -0.00088257
C        6.34401175       6.78141948       1.94853588      -0.00241044      -0.00158483      -0.00097576
C        6.85563078       6.86078670       6.67110133      -0.00229490      -0.00187415      -0.00098974
H        5.93407669       5.11852508       3.25488433      -0.00649282      -0.00070035      -0.00080592
H        4.68646703       6.36719754       3.28050281      -0.00342810       0.00219773      -0.00095058
H        4.94376921       6.46115621       5.73432447      -0.00293016       0.00122026      -0.00099756
H        6.14387408       5.17312309       5.54406446      -0.00529590      -0.00100714      -0.00070925
H        5.91336565       6.28452720       1.08071088      -0.00359593      -0.00035450      -0.00111955
H        6.13950465       7.84854031       1.87248571       0.00017564      -0.00114849      -0.00072759
H        7.42477967       6.65090531       1.92510919      -0.00266168      -0.00400597      -0.00085954
H        6.58730107       6.41508708       7.62861101      -0.00311612      -0.00114569      -0.00087970
H        7.91326996       6.66893688       6.49354976      -0.00262886      -0.00392509      -0.00090676
H        6.70879641       7.93920799       6.74013781      -0.00032609      -0.00162838      -0.00135557
