148
Lattice="11.830448047856674 0.0 0.0 0.0 11.830448047856674 0.0 0.0 0.0 11.830448047856674" Properties=species:S:1:pos:R:3:forces:R:3 energy=-1190599.625 stress="0.000987290171906352 -0.0006084673805162311 -0.000481450988445431 -0.0006084673805162311 -0.0028893607668578625 0.0021143683698028326 -0.000481450988445431 0.0021143683698028326 -0.003659752896055579" pbc="T T T"
Ta       2.67210326      11.40611531       9.73972829      -0.00695702       0.00493306       0.00552047
Ta       0.35083103      10.30473423       4.41017137      -0.00279290       0.00539553      -0.00068274
S        5.37326325      11.36203720      10.18839908      -0.00548071      -0.00107825      -0.00506101
S       10.12573677       8.98537921       9.39678714       0.00387108      -0.00583237       0.00793666
S        7.09011570       8.19699160       9.89895413       0.00043699       0.00145327      -0.00235817
S        8.16816737       9.29594080       8.57302864       0.00816455       0.00463167       0.00550213
O        4.43215116      11.61271198       8.87272065      -0.01018119       0.00647791       0.00000232
O       10.16509007       7.59437092       9.81966197      -0.00278179      -0.00591040       0.00757331
O        6.02069304      12.61986578      10.49871621      -0.00192421      -0.00333491      -0.00236845
O        4.05121944      11.23037348      11.14765616      -0.00110567      -0.00239662      -0.00066656
O       10.99105835       9.31376757       8.27263732       0.00686008      -0.00833237       0.01016140
O       10.28695969       9.91540963      10.51714821       0.00577752      -0.00694621       0.00888383
S        4.30973820       8.20372784       1.11482323       0.00201818       0.00063629      -0.00424898
S        3.77669273      10.39664767       5.07293547      -0.00123931      -0.00262338      -0.00070801
S        3.68432416       7.60592470       3.12063071      -0.00166178       0.00150024      -0.00566722
S        4.86257540       8.66101345       4.33444017      -0.00142580      -0.00157823      -0.00336083
O        5.20025064       7.17764006       0.62720768       0.00194788      -0.00026309      -0.00212482
O        2.45674496      10.47935174       4.33034046       0.00066626       0.00040165      -0.00093424
O        4.95290416       9.50023925       1.31160204       0.00322273      -0.00028849      -0.00352013
O        3.02322284       8.27350122       0.41461369       0.00335950       0.00154610      -0.00609761
O        3.56393470      10.18331423       6.48269303       0.00007813      -0.00350696      -0.00235349
O        4.62140181      11.49691010       4.68403098       0.00200365      -0.00171012       0.00067420
S        3.49323903       3.29878941       1.71872246       0.00353318       0.00374122      -0.00145566
S        3.04148029       3.30222022       6.05330760       0.00226468       0.00304949      -0.00011277
S        4.95147048       3.02124734       3.30173792       0.00296102       0.00878859      -0.00018486
S        4.53366029       4.29551809       4.78991278       0.00056919       0.00649565       0.00065322
O        3.33889645       4.71841099       1.49711059      -0.00300831       0.00262737      -0.00281365
O        3.45362369       1.91749227       6.14396932       0.00471452       0.00307310       0.00003095
O        2.29240791       2.58195203       2.12627830       0.00597215      -0.00143844      -0.00353497
O        4.24583596       2.58654188       0.66352841       0.00769961       0.00701031      -0.00059938
O        3.27803351       4.08958634       7.27411570      -0.00006759       0.00218403       0.00049770
O        1.77220030       3.54753866       5.40198792       0.00319350       0.00002405      -0.00088149
S        8.84549069      10.66221735       4.26170270      -0.00248477      -0.00889230      -0.00078914
S        9.60334549       6.55095922       5.71300594      -0.00773883      -0.00319451      -0.00114143
S        9.12418319       8.93120743       3.03753423       0.00034017      -0.00589214      -0.00114285
S       10.54218850       8.07992895       4.22679681      -0.00279579       0.00107799       0.00762866
O       10.32590756      10.95179491       4.64151574      -0.00244200       0.00843620      -0.02086486
O        9.61455920       5.40890048       4.82526389      -0.01290279       0.00286454      -0.00703341
O        8.12881491      10.34477393       5.45814238       0.01339041      -0.00677289       0.00088280
O        8.36714700      11.72057465       3.42676911      -0.02260397      -0.01063964      -0.00412415
O       10.65638588       6.61688679       6.69753798      -0.00961643      -0.01210776      -0.00103223
O        8.30764258       7.07870084       6.05639914      -0.00794756      -0.00116199       0.00256249
S       12.27295045       0.62568690       7.46213922      -0.00354081       0.00188532      -0.00001824
S        9.56095509       3.59790515       9.21778621      -0.00567921      -0.00772631       0.00215319
S       10.19534689       0.51612616       7.85752912      -0.00239109      -0.00410019      -0.00174540
S        9.95923063       1.45978316       9.59862149      -0.00615817      -0.00935885      -0.00022307
O       13.02389442      -0.32707978       8.42467208      -0.00347278       0.00542893       0.00267053
O        8.45627631       3.66059704       8.27227288      -0.00332278      -0.00732445      -0.00147426
O       12.72370405       1.95736376       7.66501840      -0.00531935       0.00249688      -0.00352399
O       12.41778247       0.01888579       6.14024584      -0.00320207      -0.00114605       0.00172123
O        9.18157697       3.91478115      10.59754574      -0.01106837      -0.01138063       0.00167954
O       10.79338771       4.18944118       8.76670550      -0.00700295      -0.00517666       0.00766748
N        6.66167453       1.42385095       6.09307294      -0.00218429      -0.00109532       0.00380212
H        7.29525488       2.02108536       5.57273548      -0.00846968       0.00133753      -0.00082356
H        5.83964409       1.26393175       5.51941194      -0.00410851      -0.00661348       0.00826010
H        7.11103399       0.51943973       6.19180846       0.00351083       0.00201505       0.00306751
N        1.19040557       6.88015725       8.94610798      -0.00266832       0.00208560      -0.00778375
H        1.61720338       6.11891929       8.42658526       0.01106951       0.00920366      -0.00647894
H        0.22765894       6.93453725       8.62028160       0.00112519      -0.00389706      -0.01930378
H        1.12376442       6.53042291       9.89682772      -0.01193747      -0.00291108      -0.01058692
N        8.27695494       2.70145021       2.56052048       0.01228279      -0.00107740       0.01429373
H        7.87772137       1.77985568       2.67614722       0.00651133       0.00068951       0.00526758
H        9.05155625       2.61506815       1.90447510       0.01054034       0.00189994       0.01210780
H        7.56516063       3.29210236       2.15742352       0.01607105       0.00972010       0.02297376
N        7.85422380      10.32072775      12.74024054       0.00689316      -0.01672195      -0.00351270
H        8.38296922      10.23353478      11.87930710       0.00979698      -0.02516229      -0.00085768
H        7.74212725      11.30477162      12.94711901       0.01300994      -0.01519847      -0.00945274
H        6.93560115       9.91282946      12.61176436       0.00472820      -0.01136307      -0.00444888
N        7.12844514       5.75432668       2.73784785       0.00416314       0.00663681      -0.01339221
H        6.18678707       5.68180740       3.10953302       0.00648152       0.01214915      -0.00748991
H        7.38564414       6.73279008       2.80851415      -0.00085076       0.00977503      -0.04057141
H        7.74226554       5.24275048       3.36846843       0.00975828       0.02726080      -0.00248966
N        6.79891193       4.79867493       0.14657830      -0.00850169      -0.01069371      -0.00623980
H        5.88345986       4.35079980       0.07430683      -0.00907892      -0.00947282      -0.00576398
H        7.54043535       4.14789000      -0.12588920      -0.00944412      -0.01091900      -0.00781916
H        6.95383900       5.18947054       1.14291165      -0.00483517      -0.01182264      -0.00725460
N       11.01328487       2.92833148       1.08161852       0.00138140       0.00755761       0.00007998
H       11.23091694       3.66817601       1.75058946       0.00501495       0.00961889      -0.00334206
H       10.51688254       3.37208426       0.31320419      -0.00188018       0.00383604       0.00028065
H       11.91457409       2.65989908       0.69845126      -0.00092354       0.00309379      -0.00167884
N        1.91996270       6.64325688       5.78817393      -0.00423750       0.00165236      -0.00793225
H        2.78063452       6.67191594       6.33723235      -0.00055581       0.00178377      -0.01384867
H        2.15578011       6.22657148       4.89371732      -0.00998093       0.00457514      -0.01059355
H        1.28647979       5.98295120       6.22805641       0.00064385      -0.00119182      -0.00539121
N        5.75416149       2.74726489       8.28735550      -0.00041762       0.00040933       0.00387007
H        6.51984844       3.39741922       8.47654297      -0.00046331       0.00015473       0.00391023
H        4.87254516       3.23159217       8.09036449       0.00012925       0.00104147       0.00388198
H        6.08038144       2.15935641       7.42249500      -0.00059912       0.00014511       0.00455999
N        1.35411207      10.36732088      -0.66449385      -0.00415954       0.00485632       0.00698292
H        0.54679959       9.93630126      -1.13169756      -0.00697619       0.00696170       0.00956085
H        1.85958276       9.61892020      -0.17300385      -0.00327814       0.00358495       0.00373870
H        0.88876604      10.97807531       0.03473678      -0.00042224       0.00469145       0.00914234
N        1.26807831       4.05363032      10.86126143      -0.00361819      -0.00581212      -0.01780870
H        0.57984367       4.34060612      10.17200067      -0.00776275      -0.00712769      -0.01430924
H        2.18453615       4.39046083      10.59774587      -0.00656036      -0.00203410      -0.02201112
H        1.03280694       4.46292121      11.75760447      -0.00052734      -0.00758288      -0.01632738
N        4.89522393       6.82189858       7.25679473      -0.01025169       0.00106246      -0.00206816
H        4.80145986       5.81401544       7.31865821      -0.00974197       0.00231427       0.01489113
H        5.17149776       7.16630889       8.16869321      -0.00626575       0.01591179      -0.00897530
H        5.66055000       7.02286231       6.62217182      -0.01151181      -0.01011068      -0.00675250
N        2.33236367       1.37020400      10.35380163      -0.00183632       0.00259722       0.01243261
H        1.61714446       2.07547939      10.16146568       0.00158662       0.01083431       0.02474058
H        5.64671650       2.14146926       9.10162154      -0.00095016       0.00098471       0.00408012
H        2.95476627       1.79816841      11.04416447       0.00715381      -0.00496665       0.00907302
N        0.86654875       9.08509179       6.07570146      -0.00199763       0.00392866      -0.00076887
H        1.60433586       9.53446540       6.61955434       0.00135005       0.00138316      -0.00343597
H        0.09112834       8.93676116       6.73897642      -0.00011769       0.00641318       0.00169331
H        1.27331161       8.06309351       5.84876987      -0.00597747       0.00417984      -0.00233293
N        7.45205593       6.56087758       9.61054495      -0.00375485       0.00141703      -0.00507760
H        6.83898649       5.55826968      11.28447784      -0.00936724      -0.00936961      -0.00445387
H        8.45173519       6.41550579       9.75776820      -0.00452253      -0.00162522      -0.00401291
H        7.23606628       6.28735230       8.65373706      -0.00377873       0.00409331      -0.00562620
N       11.03649887      11.75713837       0.85240341      -0.00318186       0.00672097       0.00823797
H       10.48026709      11.12338496       1.41853633      -0.00120761       0.00736555       0.01069588
H       10.70381729      11.59704442      -0.09401844      -0.00543081       0.00573022       0.00935813
H       10.76567042      12.71644097       1.09136500      -0.00200186       0.00684208       0.00798363
N        0.70216011       9.44973946       2.72972711      -0.00339156       0.00299938       0.00105894
H        2.88805718      12.03169238       1.96879155       0.01859331       0.01297498       0.00384736
H        1.63590950       9.49113499       2.33359968      -0.00329244       0.00073034       0.00165211
H        0.13230562       8.82580068       2.10186862      -0.00363514       0.00121173       0.00258589
N        3.89975710       0.10565528       1.97573047       0.01788324       0.00453806       0.00027664
H        4.22563569       0.22727728       2.94405287       0.02142213      -0.00083216      -0.00053889
H        4.25437438       0.85919896       1.36513170       0.02085263       0.00310433       0.00088668
H        4.20268416      -0.82717696       1.63167239       0.00953837       0.00333679      -0.00321853
N       10.64603479       2.34606131       4.59615031       0.00678444       0.00009164       0.00479379
H        9.86563866       2.62498678       3.99563994       0.00857465       0.00494024       0.00470138
H       11.20633311       3.17757939       4.75643515       0.00647962      -0.00173066       0.01510443
H       10.24089880       2.12253836       5.49940514       0.00326220      -0.00909679       0.00075942
N        0.55562749       5.22436885       2.82175971      -0.00148337      -0.00374785       0.00613640
H        1.33962818       5.70199584       2.39143299      -0.00185543      -0.00081399       0.00908118
H        0.96534164       4.47363102       3.36984067      -0.00126650      -0.00485528       0.00412356
H        0.10781955       5.86185176       3.46954368      -0.00418589      -0.00704551       0.00750428
N        0.54031264       0.47720676       3.58004210       0.00773716       0.00487345       0.00298068
H        0.39508504       0.44585754       2.56588262       0.00977220       0.00735835       0.00287142
H       -0.20091054       1.18990394       3.98202031       0.00782046       0.00614253       0.00294729
H        1.42913104       0.94676869       3.74411553       0.00885418       0.00100395       0.00636370
N       11.26983065       7.64452762       0.91108868       0.00843221      -0.00294244       0.00571433
H       10.41789804       7.94713012       0.44840083       0.01389410      -0.00684219      -0.00657803
H       11.06686746       6.77682388       1.40123163       0.00524174      -0.00322364       0.00374992
H       11.89339956       7.38398068       0.15426673       0.02080883      -0.00099512       0.01547198
N        4.32532797       5.29494377      10.11329330       0.00862370      -0.00530394       0.00252786
H        3.68271257       5.36088805       9.33199064       0.00339227      -0.01136962       0.00665155
H        5.15748650       5.80712901       9.84248622      -0.00437082       0.01590395       0.00356710
H        3.93370396       5.81180609      10.89522184       0.00213772      -0.02161417       0.00987171
N        2.99289074       9.17467351       9.18467978      -0.01147360       0.00592929       0.00016551
H        3.56911205       9.12016148       8.34416553      -0.01431453       0.00766677      -0.00176308
H        2.22335883       8.47705593       9.03902291      -0.01242074       0.00711134       0.00014246
H        3.54587218       8.74905948       9.93157353      -0.01000810       0.00270618      -0.00294214
