144
Lattice="13.170352595543049 0.0 0.0 0.0 13.170352595543049 0.0 0.0 0.0 13.170352595543049" Properties=species:S:1:pos:R:3:forces:R:3 energy=-1041511.9375 stress="0.0007457201136276126 0.0006890232325531542 0.0006022601737640798 0.0006890232325531542 2.6490750315133482e-05 0.0001932456434587948 0.0006022601737640798 0.0001932456434587948 0.001699881860986352" pbc="T T T"
Ta      11.05754709      12.19972161      11.51734474       0.00045270      -0.02783130       0.00177531
Ta       9.86486346      13.76354610       6.00207949       0.00108954       0.00018311       0.00709790
S        6.26632278       7.95107626       3.11015482      -0.00436129      -0.01043724       0.03604272
S        6.14384855       8.87145548       4.78430473       0.00533873      -0.02026334       0.04180253
S        9.24986276       0.29486963      11.66492796       0.01508158      -0.00441843      -0.02113485
S        7.45281962       0.31338357      12.47816390       0.01919079       0.02715583      -0.00421000
S       10.84677616       8.92483194       0.59633499       0.00724140      -0.00600535       0.01537466
S       10.65579382      10.15009989      -0.93095447      -0.02655365      -0.01909575       0.01136541
S       12.83873095       1.75134510       0.43424575       0.01040772      -0.00389314      -0.04760820
S       12.71053242       0.05573151      -0.57294553       0.00649416      -0.03068644      -0.00356251
S        6.02750351       1.43355778       6.50550478      -0.00087160      -0.00779925       0.00340664
S        7.92237997       1.28617848       6.66033937      -0.00127723      -0.00813559       0.00839859
O        8.97775573      10.48095435       2.94923769       0.03285895      -0.00318301       0.02180121
C        9.10016092      11.88973408       2.87864035       0.01975793      -0.00279087       0.01158327
C        8.82150961      12.38263845       4.30189050      -0.00366437       0.00646837       0.00237072
C       10.43195084      12.34513447       2.32228340       0.02167988       0.00593731       0.02502403
H        8.29656197      12.31062784       2.25356281       0.02505648      -0.01509193      -0.00255656
H        8.85766110      13.51224362       4.25544803       0.00350958       0.00523722       0.00103763
H        7.82450213      12.09369451       4.64552854      -0.01057753       0.01392234      -0.01279759
H        9.56594151      11.92202579       5.01709194      -0.01975049       0.00427401       0.01724912
H       10.50745026      13.43473493       2.30699640       0.00901846       0.00635068       0.01456139
H       10.53114980      12.01110655       1.28699789       0.03915901      -0.00344026       0.03020841
H       11.26627650      11.92620654       2.88918474       0.01833773       0.02104445       0.04039083
H        9.39471119      10.08254960       2.16518771       0.03357702      -0.00515322       0.02263518
O        0.97108188       1.97938483      10.02933577      -0.01898742      -0.00910540      -0.00108491
C        2.33126752       2.16455745      10.50225262      -0.01600200      -0.00238202      -0.01334596
C        2.44497431       3.43628664      11.32364231      -0.01481088      -0.00034535      -0.01642060
C        2.79817898       0.95094263      11.29097901      -0.00309709       0.00047535      -0.01702002
H        2.92110927       2.25620431       9.58663875      -0.02433607      -0.00152434      -0.01846534
H        3.47173836       3.58435731      11.66154239      -0.01290688       0.00419365      -0.02449061
H        2.14870176       4.30815021      10.74076252      -0.02294452      -0.00217351      -0.01503971
H        1.80840763       3.37130099      12.20855892      -0.00781980      -0.00117922      -0.01151717
H        3.85938723       1.03919562      11.53429275      -0.00066844       0.00561687      -0.02996062
H        2.64331424       0.03291515      10.72351947      -0.00528434      -0.00144346      -0.01359180
H        2.24411258       0.88137300      12.22897787       0.00769806       0.00072158      -0.01081434
H        0.41757480       1.89983735      10.82007302      -0.01381318       0.00003645       0.00380266
O        4.02635601       1.37295632       3.11406475       0.00269124       0.00171626       0.00608586
C        3.66079048       2.74934606       3.02484137       0.00373121       0.00093436       0.00759980
C        2.71864037       3.13671824       4.15236679       0.00387371      -0.00273345       0.00973445
C        4.96021752       3.53088689       3.04364195       0.00330341       0.00572437       0.00630380
H        3.14533096       2.93667636       2.07071586       0.00057840      -0.00400628       0.00761074
H        2.42163129       4.18086415       4.05720631      -0.00149856      -0.00406267       0.00844831
H        1.80817976       2.53430032       4.10497593       0.00678174      -0.00918764       0.01277703
H        3.19816074       2.96983479       5.11889411       0.00988524       0.00242255       0.00914916
H        4.78359219       4.60006498       2.91985505      -0.00564945       0.00547096       0.00332358
H        5.61452726       3.18618875       2.24156280       0.00164973       0.00366236       0.00245866
H        5.47452932       3.36933021       3.99283110       0.00371313       0.00007422       0.00777906
H        3.23136896       0.83212901       3.23671268       0.01283038      -0.00204533       0.00959666
O       11.12960014       4.45285429       2.48661829       0.01070434       0.01372312       0.00145370
C       10.56605812       5.03819625       3.66588936       0.00364342       0.01221842      -0.00516194
C       11.64677950       5.75135493       4.46337513       0.00033516       0.01464868      -0.00292566
C        9.38810790       5.93628132       3.34099440       0.00048155       0.00681627      -0.00425118
H       10.19725762       4.18446806       4.24661487       0.00589398       0.00970104      -0.00365973
H       11.28095106       6.07337195       5.43981803      -0.00199559       0.01460081      -0.00349709
H       12.51059781       5.10033805       4.60445632       0.00136435       0.01678126      -0.00123825
H       11.98128505       6.64525459       3.93211810      -0.00079118       0.01468451      -0.00371262
H        8.92865316       6.32739138       4.24974310      -0.00075532       0.00689682      -0.00549121
H        8.62255522       5.39525474       2.78465459       0.00170033       0.00339307      -0.00335199
H        9.70563992       6.79584456       2.74356897      -0.00241704       0.00701018      -0.00649983
H       11.02250392       5.07451533       1.76006271      -0.02699662       0.00273877      -0.01443045
O       13.39163287       1.36873464       7.20231538       0.00257963      -0.01747763       0.01727426
C       12.03868530       1.17379780       6.88407336       0.00353301      -0.01006480       0.01057945
C       11.19626597       0.85786854       8.12249904       0.00124083      -0.02131696       0.00611874
C       11.50788996       2.38716221       6.09276650       0.00834426      -0.00026900       0.02259767
H       12.06263249       0.27138756       6.20668089       0.00378975      -0.00265296       0.00100908
H       10.17005960       0.38484620       7.98493236       0.00100392      -0.02017829       0.00317913
H       11.69159323       0.08939264       8.72940850       0.00250231      -0.02592950      -0.00107367
H       11.00395626       1.75629035       8.71062158       0.00210518      -0.02689223       0.01471944
H       10.43984924       2.40230207       5.64711338       0.00705430       0.00906610       0.03044790
H       12.13570116       2.57942250       5.22420066       0.00775415       0.00447607       0.02339223
H       11.46436024       3.25619053       6.74999876       0.01544758      -0.00574926       0.03020076
H       13.50788329       1.61366529       8.14079525      -0.00164546      -0.01256801       0.01752618
O        7.89745864       3.65854473      11.91951036      -0.00401464       0.00673646      -0.00172430
C        8.70483537       4.11478571      10.83638594       0.00055522       0.00026380      -0.00037080
C       10.16462034       4.23509633      11.24971657       0.00116897      -0.01123903       0.00024816
C        8.51617719       3.25558388       9.59508774      -0.00429828       0.00569141      -0.00314987
H        8.32732644       5.11804819      10.61836832       0.01024258       0.00365883       0.00002211
H       10.76783057       4.62568644      10.42590950       0.00370196      -0.00952216       0.00261503
H       10.26167341       4.92090917      12.09261982       0.00349843      -0.01570982       0.00385086
H       10.56960970       3.26656717      11.55209589      -0.00403519      -0.01454195      -0.00526787
H        9.06234195       3.68213464       8.74931819       0.00011842       0.00559299      -0.00061665
H        7.46208991       3.18478965       9.32297487      -0.00475109       0.01587486      -0.00426234
H        8.88945195       2.24453915       9.77060736      -0.01269865       0.00197518      -0.00890807
H        7.94464433       2.69457306      12.00333875      -0.01847854       0.00464585      -0.00403066
O       11.76548377       8.17700407       7.43699434       0.00245076      -0.01186913      -0.00206852
C       10.43752891       7.80799912       7.82953698      -0.00062323      -0.00231538      -0.00587189
C       10.26456437       7.91360580       9.33331937      -0.00457532      -0.00203501      -0.00627398
C        9.40155802       8.62011853       7.07028789       0.00558770       0.00296718      -0.00835270
H       10.35554361       6.75797271       7.53181411      -0.00599325      -0.00228435      -0.00631703
H        9.27653662       7.56710218       9.64194641      -0.00767811       0.00404571      -0.00937898
H       11.02805795       7.34093060       9.86027700      -0.00958984      -0.00685443      -0.00396458
H       10.35245741       8.95431511       9.65322502       0.00105230      -0.00252967      -0.00545185
H        8.39341142       8.27710469       7.30598667       0.00320508       0.00719158      -0.01182943
H        9.54591497       8.54268179       5.99260757       0.00953723       0.00499567      -0.00810757
H        9.46492020       9.67680178       7.35425627       0.00990332       0.00210720      -0.00607069
H       11.90557226       9.08345615       7.72872073       0.00537537      -0.00803846      -0.00735698
O        1.43571846       5.46210319       2.15137619      -0.03284657       0.00391906      -0.00495638
C        2.39483191       6.51436860       2.00382976       0.00151074      -0.00895798      -0.00533379
C        2.16318517       7.29366240       0.72250623      -0.01213583      -0.00547642      -0.00347722
C        2.42706075       7.40695588       3.23562872      -0.01354890      -0.00307059      -0.00734907
H        3.35325535       6.00100974       1.91537887      -0.00611001       0.00271749      -0.00439696
H        2.96741478       8.01613844       0.57479722      -0.01003148      -0.00253968      -0.00638517
H        2.15603240       6.61317160      -0.12739320      -0.00753448      -0.00678797      -0.00612804
H        1.21373857       7.83561209       0.75999153      -0.00927819      -0.00840638      -0.00619660
H        3.23624974       8.13535505       3.15915456      -0.01073593      -0.00034578      -0.00632776
H        2.60422788       6.81688557       4.13566721      -0.00896712      -0.00182298      -0.00394636
H        1.48051577       7.94250975       3.35270275      -0.01025410      -0.00547553      -0.00704672
H        0.55385585       5.84916236       2.16362920       0.03092934      -0.03689425      -0.00282111
O        6.56678182       8.52503594       9.47824080      -0.00909293       0.00835758      -0.02839118
C        6.30666524       9.77307991      10.13867875       0.00004362       0.00373870      -0.00775917
C        7.30035351      10.83404009       9.70353278      -0.00090963       0.00480670      -0.01159120
C        4.86771515      10.20389878       9.91663775      -0.00038904       0.00738348      -0.00072594
H        6.45826381       9.55659250      11.19936215       0.00434226      -0.00409482      -0.01261061
H        7.11253839      11.77590330      10.22170530       0.00742066       0.00493133      -0.00911064
H        8.31817184      10.51555031       9.93748443      -0.00101089      -0.00055420      -0.01853183
H        7.22252696      11.00431267       8.62582600      -0.00819238       0.01524114      -0.00824335
H        4.65158007      11.11991391      10.46859969       0.00379964       0.00510566       0.00572404
H        4.17848684       9.42332641      10.24093873       0.00011952       0.00632425      -0.00145095
H        4.69146243      10.40264829       8.85558021      -0.00283810       0.01367045       0.00145972
H        6.38659193       8.65314857       8.54056815      -0.01228443       0.01576935      -0.00901964
O        2.21250377      12.33241562       3.05372554       0.01516345      -0.01314175       0.01596022
C        2.74641255      11.97485220       1.76092777      -0.00309965       0.01016343      -0.00797307
C        4.20407130      11.57173544       1.88011124      -0.00311285       0.00186601      -0.01022783
C        1.89350137      10.89867350       1.11913798      -0.00489670      -0.00043446       0.00926274
H        2.66416279      12.90051601       1.18690323      -0.00485536      -0.00252837      -0.00865915
H        4.63128899      11.36389414       0.89801947      -0.00746483      -0.00366194      -0.01458876
H        4.78315853      12.36792172       2.34596365       0.00321298       0.00633141      -0.02049914
H        4.30921587      10.66139275       2.47840529       0.00343177       0.00852469      -0.00714989
H        2.25072770      10.68223087       0.10992429      -0.01624747      -0.00131818       0.00230201
H        0.84968934      11.20324868       1.05577079      -0.00791356       0.00015390       0.01582648
H        1.95615058       9.97606458       1.69834100      -0.00096485       0.00357616       0.00714156
H        2.44486563      11.62685902       3.66720892       0.00681680       0.03687273      -0.01808599
O        4.85013717       5.81842446      13.01184590       0.00813940      -0.00553405       0.00844902
C        5.55879046       6.46468720      11.94470451      -0.00136948       0.00267957       0.00701886
C        6.96644214       6.82223115      12.39515797      -0.00034153       0.00775966       0.00035459
C        5.52417224       5.60561255      10.69004682      -0.00379878       0.00753123       0.00371897
H        4.99546471       7.38445758      11.76177105      -0.00695178       0.00061178       0.01413827
H        7.52353227       7.30291627      11.59006145      -0.00769231       0.01423623      -0.00089805
H        6.93381773       7.49968425      13.24928649       0.00189677       0.00326575       0.00402762
H        7.50146340       5.91800342      12.69271725       0.00609165       0.00894666      -0.00809387
H        6.08862613       6.08098957       9.88829240      -0.01007797       0.01311485       0.00268655
H        4.49722661       5.46497864      10.35310130      -0.00487229       0.00386694       0.00843556
H        5.95978159       4.62750629      10.90006933       0.00162503       0.00885338      -0.00194293
H        5.36492870       5.04012602      13.25309707       0.01062400      -0.00494637      -0.00032736
