147
Lattice="17.398441414726516 0.0 0.0 0.0 17.398441414726516 0.0 0.0 0.0 17.398441414726516" Properties=species:S:1:pos:R:3:forces:R:3 energy=-2071426.375 stress="-0.0010063817026093602 -0.00019945720850955695 0.0003395166277186945 -0.00019945720850955695 -0.000683654157910496 -0.0003382219438208267 0.0003395166277186945 -0.0003382219438208267 -0.0002397650241618976" pbc="T T T"
Tb       5.73999434      17.35351300       7.58754953       0.00464290       0.02669024       0.00509995
Tb       1.29159452      14.75939524       4.82681187      -0.01397097      -0.01179656       0.01004620
S       13.65591125      16.60603459      10.80210280      -0.01033732       0.00158221       0.00858286
S       13.75822819      14.58263224      10.72842545       0.01003931      -0.00248143       0.00183627
O       12.44146711      17.18938355      11.26271185      -0.00410396      -0.01174146      -0.00303981
O       13.48747617      15.82171951       9.42862305       0.00780128      -0.00003887      -0.00316739
O       14.88518705      17.31927852      10.89545644      -0.00280160       0.00749213       0.00917575
S        8.19497275      15.01579785       8.26472394      -0.00294226       0.00186437      -0.02241023
S        6.63992542      13.48286626       8.01359103      -0.01325165       0.00895795      -0.01191615
O        8.95044195      15.02252936       7.04854881       0.00147080      -0.00588372      -0.01883876
O        8.83102106      14.64369001       9.49353301      -0.00932628       0.00251919      -0.01841080
O        7.39140520      16.28815332       8.41149375       0.00834793       0.01133531      -0.02973154
S        4.86621383      14.93123116       5.57145179      -0.01386997       0.00905800      -0.01055539
S        4.95311231      14.51845417       7.70975138      -0.01278961       0.01012453      -0.01230560
O        5.51797187      13.92147152       4.81019832      -0.01330845      -0.00267720       0.01000521
O        5.49176281      16.27654635       5.54696899      -0.03526222       0.02022608      -0.02222212
O        3.41210178      15.08415964       5.29635111      -0.01702631      -0.01581392      -0.01528998
Cl       4.92842978      16.19209900      10.70015258       0.00601973       0.01861089       0.01015548
Cl       2.44962848      17.15448026       9.57126218       0.01251455       0.02894018      -0.01952896
Cl       0.19365586      16.39732983       6.27521161      -0.02802116      -0.01790649       0.01237285
Cl       4.82542671      18.98836416       9.67349158       0.01797032       0.01336947      -0.01305801
C        4.18135749      17.14448758       9.41362449       0.01475364       0.01154006       0.00342870
Cl      11.30991189      13.10791602       8.55814373      -0.00492761       0.00350785       0.00422689
Cl      11.90953231      11.66454538       6.12559895      -0.01036734       0.01282862      -0.00182331
Cl      12.87976165      10.66908119       8.67347895      -0.00211526       0.00545585      -0.00734957
Cl      14.01433711      13.09005727       7.55464238      -0.00839724       0.00972329      -0.00360019
C       12.51023750      12.13250729       7.73998472      -0.00635204       0.00749009      -0.00211832
Cl      15.25856161      11.94053632      11.83539926      -0.00373510      -0.00361419       0.00185204
Cl      13.88950834      11.16920300      14.27039884       0.00227636       0.00655942       0.00813106
Cl      16.63118632      10.32188772      13.81731860      -0.00234774      -0.00289991       0.00082791
Cl      14.47609523       9.17699611      12.24518652      -0.01106158       0.00052822       0.01080821
C       15.05903950      10.64046763      13.04829713      -0.00368823       0.00002306       0.00545959
Cl       0.46443624       7.71553329       1.96248842       0.00272106       0.00387342      -0.00914830
Cl       0.98230122       7.96862962      -0.87352137      -0.00342724      -0.00605917      -0.01074880
Cl       0.00984272       5.45547630       0.20671529       0.00728706      -0.00443041       0.00179368
Cl       2.71223208       6.32748158       0.79247816       0.00539687       0.00699456      -0.00785479
C        1.04505467       6.85037288       0.51583361       0.00324264       0.00022516      -0.00650356
Cl       7.40416959       7.21187256       8.77777685      -0.00583643       0.00022514      -0.00124395
Cl       9.54682312       5.31882887       8.32379698      -0.00632103      -0.00076535       0.00329657
Cl       9.43688850       7.76357212       6.77476055      -0.00443369      -0.00342262      -0.00024959
Cl       7.47473430       5.68630486       6.31998081      -0.00308758      -0.00495166       0.00113164
C        8.46694819       6.50040701       7.55756153      -0.00497582      -0.00191165       0.00036183
Cl      16.30190295       6.96384526       5.63566795      -0.00433083      -0.00092998       0.00089101
Cl      14.77929155       9.34551601       6.26742752      -0.00968434      -0.00212398      -0.00882296
Cl      14.52842845       8.12315101       3.65128117      -0.00718430      -0.01373955      -0.00302333
Cl      16.97869694       9.48857804       4.39661520      -0.01054028      -0.00492239      -0.00958642
C       15.63474619       8.46822582       4.99347178      -0.00782050      -0.00546253      -0.00516514
Cl       3.38992064      10.49959884      12.80386151       0.00126113      -0.00631773      -0.00231779
Cl       3.74561481       9.63933304      10.05996026       0.00841764       0.01122397      -0.00636867
Cl       4.01354469      12.44950143      10.74816573       0.00809233       0.00576684       0.01219758
Cl       1.40445207      11.18872037      10.80726457       0.00701502       0.00718627      -0.00273372
C        3.13825112      10.94048709      11.10954412       0.00583826       0.00414160       0.00037562
Cl      10.18672298       0.94482328       7.29210543       0.01068996      -0.01815746      -0.00147355
Cl       7.97299849       0.41053747       5.47487701       0.01307578      -0.00443219      -0.01079086
Cl       9.35914748       2.93709575       5.36449817       0.03075989      -0.01282787      -0.00418296
Cl       7.62975939       2.27574748       7.64490331       0.02052817      -0.00254107      -0.01017576
C        8.84567768       1.64144597       6.42260118       0.01968649      -0.01161875      -0.00897305
Cl      13.88928915      15.47695199      14.20645506       0.00297791       0.00420180       0.00006467
Cl      12.01262220      17.67739739      14.50399580       0.00024954       0.00144917      -0.00152119
Cl      12.08503912      15.57206075      16.48321085       0.00351450       0.00381028      -0.00000152
Cl      11.04851974      15.02705716      13.82114070       0.00382641       0.00001177       0.00112239
C       12.24520170      15.94863547      14.73961694       0.00251104       0.00250935      -0.00009925
Cl      13.98396997      12.01849305       2.97683376      -0.00873500      -0.00887165      -0.01211929
Cl      16.96406578      14.07231098       3.12402212       0.00102445      -0.01667853      -0.00965804
Cl      14.31958523      13.21260541       0.39966576       0.00502187       0.00263673      -0.00415027
Cl      16.05375447      11.08981479       1.23644039      -0.00543094      -0.00703651      -0.00870384
C       14.79005799      12.11013625       1.53863688      -0.00304589      -0.00466395      -0.00854323
Cl       6.59096711       2.46862723       1.00404167      -0.00080925      -0.00181442       0.00013534
Cl       5.64603059       4.87207511       2.35284560       0.00693434      -0.00023022      -0.00008780
Cl       6.18128122       4.91274359      -0.49947705       0.00960249      -0.00441250      -0.00024056
Cl       8.37434660       4.72001704       1.39848607       0.00816786      -0.01371151       0.00459911
C        6.69477538       4.25311227       1.05407722       0.00593817      -0.00370494       0.00127698
Cl      15.44288729       2.29998720       1.34066520       0.02236067      -0.01401307       0.01230308
Cl      13.40196466       2.95232330       3.29497447       0.01122612      -0.00293881      -0.00351918
Cl      15.99199315       4.24621930       3.42615851       0.01236334      -0.00698385       0.00760288
Cl      15.74384271       1.43816278       4.10279151       0.00281025      -0.00365695       0.01709503
C       15.14606799       2.72947202       3.04689587       0.01228091      -0.00702114       0.00840399
Cl      14.85679323       8.20776879      17.08105894      -0.00734127      -0.00744748      -0.00799058
Cl      12.11741292       8.07987458      18.01846468      -0.00005025      -0.00401482       0.01334472
Cl      13.77159639       5.70913698      18.09336297       0.00311900      -0.00180095       0.01587978
Cl      12.89589825       6.75129164      15.54018865      -0.01855458      -0.01908991       0.01712161
C       13.40417675       7.18113257      17.18475678      -0.00542796      -0.00800386       0.00961195
Cl       6.28805517       8.15983277       4.06942968      -0.00813049      -0.00105527      -0.01141857
Cl       4.41843002       7.77586850       6.26843088       0.00398760       0.01840965       0.00083049
Cl       3.50321739       8.87266632       3.74712873      -0.00913477      -0.00198876      -0.00298448
Cl       5.23473144      10.44619173       5.48810655       0.00064746       0.01161456      -0.02565026
C        4.86182104       8.81656742       4.89531235      -0.00337709       0.00747062      -0.00959974
Cl       9.02037639       3.12644897      13.78753930       0.00570148       0.00574946       0.00297543
Cl      10.69258847       4.28758697      11.72257285       0.00275835      -0.00303215       0.00331214
Cl       9.80221217       5.91632156      13.95099849      -0.00034943      -0.00469774       0.00217965
Cl       7.90555943       5.06078695      11.93004891      -0.00172770       0.00130673      -0.00618741
C        9.34872122       4.59358665      12.84910663      -0.00100052       0.00131911      -0.00312531
Cl       5.23419618      14.36758710      -0.76270140       0.03122209       0.01180426       0.01358160
Cl       5.88972524      12.58346561       1.43160813       0.01295047       0.00152445       0.00429899
Cl       6.43562379      15.42180722       1.67431820       0.01223646       0.00358874       0.02564447
Cl       8.00671084      13.81379675      -0.13437715       0.02822465       0.01268991       0.03453471
C        6.39605448      14.04325123       0.55330941       0.02097282       0.00818857       0.02057864
Cl       8.41699933       9.21382849      11.92549017       0.00124797       0.00006773       0.00196528
Cl       9.09734366      10.38391237       9.36068018       0.00026822      -0.00001882       0.00210983
Cl      10.70368303       8.21830947      10.45183044       0.00163260       0.00157985       0.00226904
Cl      10.79533229      10.85492840      11.65578642      -0.00025830       0.00140461       0.00189054
C        9.75317131       9.66901009      10.84822605       0.00083949       0.00082794       0.00196193
Cl       1.09425718       2.03804564      14.53328469       0.01093408      -0.01713908       0.01716284
Cl       3.92517164       2.60261210      14.19926736       0.00238994       0.00110862      -0.01451303
Cl       2.66251185       2.95495872      16.78757493       0.02634560       0.01325201      -0.00504065
Cl       2.05489347       4.77923210      14.61575094      -0.00851205      -0.00845200      -0.00932591
C        2.43322589       3.09674449      15.03034184       0.00709698      -0.00341824      -0.00309513
Cl       1.43826699      10.38662387       7.23151566      -0.02478673      -0.01609094       0.00371211
Cl       2.04780524      11.93244080       4.85431364      -0.00564453      -0.00792075       0.01333809
Cl       2.05905035      13.19801228       7.45881289      -0.02018389      -0.01940241       0.01591846
Cl      -0.42849927      12.43248975       6.28935600      -0.01564354      -0.01057172      -0.00163817
C        1.25883017      11.94485027       6.49304457      -0.01747584      -0.01416215       0.00647664
Cl      11.34217917      11.94711441      16.37013806      -0.00719190       0.00642115       0.00957836
Cl      10.74490189       9.43009446      15.04720061       0.00252882       0.00479409       0.01004702
Cl       8.99054947      11.69423104      14.70224519      -0.00408289      -0.00004984       0.00742725
Cl       9.12337413      10.33638255      17.27085869      -0.00378819       0.00016047       0.00666982
C       10.03806647      10.83920985      15.83994892      -0.00298478       0.00278116       0.00824689
Cl       5.91098454       8.59414090       0.35540798      -0.01118163      -0.00340328      -0.00890732
Cl       4.34604078       7.94819580      -2.00457353       0.00007674      -0.00156555      -0.01666677
Cl       7.21766554       8.13521259      -2.20283083       0.00044823       0.00286077      -0.00310402
Cl       5.63231350      10.53420960      -1.77526156      -0.00459836      -0.00042284      -0.00669241
C        5.78103081       8.80503025      -1.40844947      -0.00385942      -0.00056636      -0.00870509
Cl       0.83202930       4.49492521      11.01926258      -0.00377512       0.00568438      -0.01196259
Cl       1.78608869       6.44728560       9.09171291       0.00044791       0.01429147      -0.00403976
Cl       3.51779239       5.56455894      11.24533405       0.00493586      -0.00288502      -0.00955191
Cl       1.22898761       7.25255300      11.82992622       0.00346498      -0.00010934      -0.01236251
C        1.83942424       5.93647060      10.80282534       0.00393871       0.00021782      -0.00917059
Cl      11.26178584      17.30514041       3.95448678      -0.00357485      -0.00081336      -0.01978099
Cl      11.12039056      14.62620147       2.85204045       0.00738478       0.00337356      -0.02434650
Cl      12.92392378      15.19659076       5.05805042      -0.00985086      -0.00340202      -0.01302364
Cl      13.48377882      16.26291773       2.41993554       0.01164228      -0.00297220      -0.00731155
C       12.20122624      15.84880223       3.57729084       0.00237882       0.00129887      -0.01623285
Cl       0.96431297      16.27535430       0.30534758       0.01061535      -0.01871094       0.01471931
Cl       1.52930217      17.10357425       3.04567285      -0.00720809      -0.00552314       0.01478145
Cl       3.54752290      17.35625408       0.95711701      -0.00122897       0.00652163       0.02458561
Cl       2.81346113      14.73836534       1.97051975       0.01557618       0.00189096       0.02291821
C        2.22277315      16.37324751       1.52217951       0.00435394      -0.00446936       0.01957566
Cl       2.15417112       3.08822404       4.57428789      -0.00396103       0.01090422       0.01052484
Cl       4.61162216       3.62884915       6.03236163      -0.00334021      -0.00455064       0.02634510
Cl       4.58717242       1.64998746       3.92896205      -0.00171229       0.00442415       0.02101612
Cl       3.18237578       1.12283352       6.43520538      -0.03022717       0.01406312       0.00998884
C        3.63918618       2.40106050       5.20488652      -0.00944518       0.00424409       0.01603320
Cl      13.11806295       6.37468517       8.02367942      -0.00271469       0.00264470       0.00603396
Cl      15.54270601       7.28281259       9.33262796      -0.00026584       0.00245351       0.00040407
Cl      15.35511896       4.55510033       8.35786683      -0.00271961       0.00228438       0.00323406
Cl      13.80703015       5.39228948      10.66620324       0.00102441       0.00405681       0.00459480
C       14.45709729       5.90258715       9.09021631      -0.00107436       0.00299591       0.00371730
