147
Lattice="12.606264150942094 0.0 0.0 0.0 12.606264150942094 0.0 0.0 0.0 12.606264150942094" Properties=species:S:1:pos:R:3:forces:R:3 energy=-883947.125 stress="0.00030423584394156933 -3.383633065823233e-05 0.0006788676837459207 -3.383633065823233e-05 0.0005286734085530043 0.0003142502246191725 0.0006788676837459207 0.0003142502246191725 0.0016771350055932999" pbc="T T T"
Tb      12.03470378      12.71763825      13.41462731      -0.00017755       0.01711398      -0.00087114
Tb      12.30464123      12.01662886       5.00053268      -0.00240591       0.01588514      -0.00531706
O        9.14916865      10.19920940       1.93336521       0.00188959       0.01195753       0.00879395
O        9.87978972      12.70003037       1.23729071      -0.00362951       0.01230210       0.00071508
O        8.21279691      11.19065926      -0.48911564       0.01945771      -0.00738554      -0.01000479
O       10.92663965      10.72731991       0.01656628       0.01428417       0.01076919       0.01974858
Cr       9.49792722      11.14543218       0.71887634       0.00595465       0.00844055       0.00652874
O        2.64721442      10.75947702       2.47167624      -0.02232414      -0.01381236       0.00186989
O        1.56431650      12.98537759       1.34638737       0.00100303      -0.00367689      -0.01137313
O        1.69234581      12.64668636       4.16855084       0.01202416       0.01526761      -0.00779936
O        0.00474740      11.40580969       2.63974960      -0.01114903       0.02372557       0.01226969
Cr       1.64422444      11.94490004       2.65577191      -0.00263858       0.00503010      -0.00192567
O        5.21126782      10.10870243      11.69810780       0.02344787      -0.00754213       0.00444078
O        4.52456908      12.34305771      12.98705000       0.02192485      -0.00592864       0.00641227
O        5.79869278      12.48641405      10.65856493       0.00383423      -0.00581777      -0.00388837
O        7.15906027      11.70058844      12.94504943       0.02295476       0.00549614      -0.01122822
Cr       5.56486878      11.63263964      12.00740871       0.01847291      -0.00188467      -0.00241458
O       12.16713595       1.78327468       2.87479750       0.00110821       0.01756626      -0.00143969
O       11.84482337       3.72538429       3.87242541      -0.01380768       0.01528221      -0.00067151
O       12.16908148       1.88612065       5.10463785      -0.00519285       0.01571605      -0.00342903
C       11.97074579       2.70834829       1.76042790      -0.00414420       0.01667705      -0.00142127
C       11.67193270       4.03672803       2.45773218      -0.00410734       0.01731825      -0.00178611
C       12.05979214       2.44930667       4.03211046      -0.00583599       0.01467995       0.00156689
H       11.11128080       2.36414128       1.17425943      -0.00586131       0.01409364       0.00243331
H       12.88844153       2.71362341       1.16459055      -0.00633609       0.01748292      -0.00493955
H       12.37544958       4.82657394       2.21147663       0.00009456       0.01558702       0.00363568
H       10.64712144       4.37077719       2.31307900      -0.00217333       0.02117929      -0.00745145
O        8.06726570       0.15096298       3.56524934      -0.01090708       0.00449353       0.00731559
O        9.40062760       1.90678178       3.40373545      -0.01287311       0.00590986       0.00380751
O       10.20356903      -0.03409979       4.16812000      -0.01144758       0.00929627       0.01162555
C        7.26575835       1.13833994       2.85907401      -0.01241255       0.00114358       0.00389802
C        8.10764331       2.40892684       2.95482064      -0.01214209       0.00213891      -0.00319377
C        9.28084724       0.62596644       3.72525608      -0.01236013       0.00651626       0.00793138
H        6.30862048       1.20060442       3.36865339      -0.01187569       0.00392741       0.00515883
H        7.13623440       0.77359491       1.84270071      -0.01405744      -0.00312902       0.00564149
H        8.26031469       2.90826569       2.00200410      -0.00913208      -0.00538023      -0.00690451
H        7.76880743       3.12506213       3.69998663      -0.01412994       0.00784694      -0.00953519
O        6.42085244       4.38135893       5.41003084      -0.00398377      -0.00300786       0.00366705
O        5.03994119       6.12162672       5.31362464       0.00424825       0.00421816       0.01190694
O        7.21814081       6.45652578       5.76740660       0.00914323      -0.00693434       0.00301664
C        5.17362861       3.83485884       4.92997345      -0.00879017       0.00417048       0.00722080
C        4.18290556       4.96734517       5.17541550      -0.00208682       0.00799064       0.01524642
C        6.30827863       5.72241948       5.51343372       0.00290316      -0.00341961       0.00574400
H        4.95787405       2.93248058       5.49768094      -0.01055354       0.00330016       0.00542712
H        5.28978891       3.60961466       3.86993362      -0.01418930       0.00660347       0.00589699
H        3.49911939       5.14951134       4.35034051      -0.00704053       0.01394273       0.02023280
H        3.61794866       4.84823771       6.10001807       0.00348321       0.00885097       0.01903501
O       12.00755125       0.06735148       9.06603666       0.00552046       0.00360560      -0.00156337
O       12.55511102       2.15016041       9.57825588       0.00680584       0.00388670      -0.00461873
O       12.27908524       0.65586423      11.20803351      -0.00225419       0.00828095      -0.00122839
C       12.18548491       0.71816081       7.77681933       0.01247197       0.00074919      -0.00263727
C       12.31331662       2.19867355       8.14275859       0.00826279       0.00149584      -0.00540721
C       12.28474993       0.94607559      10.02120287       0.00293664       0.00584431      -0.00422877
H       11.30132142       0.47845420       7.17290066       0.01488233      -0.00160240      -0.00543012
H       13.10319195       0.31539935       7.33155310       0.01483396      -0.00072485       0.00365721
H       13.15667219       2.69436511       7.67592180       0.00704435       0.00477184      -0.00457539
H       11.40507225       2.77653947       7.98483187       0.00606215      -0.00271887      -0.00770164
O        9.70349987       3.46683452      10.05389901       0.00074232      -0.00500056      -0.00397743
O        8.91679173       2.52649512      11.90861740       0.02209230      -0.00715039       0.00372112
O       10.78712997       3.76996229      12.00431020       0.02551541       0.00037688      -0.01109254
C        8.63814768       2.59565095       9.61604318      -0.00668934      -0.00273034       0.00687742
C        7.89663614       2.27752119      10.90286732       0.01033062      -0.00703095       0.01418583
C        9.87134912       3.30511825      11.38580663       0.00759679      -0.00865102      -0.01058823
H        9.09506106       1.70898797       9.16668979      -0.01355909      -0.00018957      -0.00498893
H        8.03923115       3.12179230       8.87497741      -0.01658027       0.00310582       0.01710114
H        7.06880022       2.95935641      11.09250195       0.01066500      -0.01004371       0.02652005
H        7.56331237       1.24608824      10.98424299       0.01434766      -0.00938508       0.01537180
O       11.24588418       5.54286435       7.01375107       0.00969094      -0.02467302       0.02442251
O       11.21735035       7.76524201       6.88648745       0.00493744      -0.02669579      -0.01704207
O       12.89220587       6.62073245       5.91178013       0.02030933      -0.04165177       0.00510472
C        9.97813145       5.92651740       7.59192047       0.00415701      -0.01472780       0.00779252
C       10.09613850       7.44261821       7.72715817       0.01173711      -0.01592878      -0.00232381
C       11.88416573       6.63493417       6.54882962      -0.00149274      -0.03211826       0.01307982
H        9.87644496       5.40839048       8.54275923      -0.00915690      -0.00833234       0.01061895
H        9.18043183       5.64127592       6.90580899       0.00999546      -0.01557016       0.00054601
H        9.22096937       7.96588673       7.34763322       0.01000202      -0.01286854       0.00409576
H       10.32899178       7.77447415       8.73961091       0.02477509      -0.01093692      -0.00627825
O        6.12934162       5.58389076       2.41378843       0.01917353      -0.00289178       0.00919902
O        7.17141242       7.28160791       1.43129055       0.01171210      -0.00428632      -0.00137248
O        8.37624223       5.58244807       2.28568856       0.02009463      -0.00052983      -0.00278258
C        5.06413754       6.40677936       1.86316794       0.01491714      -0.00677410       0.01077301
C        5.77915985       7.70098999       1.50861145       0.01111353      -0.00693756       0.00223774
C        7.31874041       6.10269484       2.05970022       0.01502877      -0.00140190       0.00100727
H        4.31669402       6.54200378       2.63756189       0.01726541      -0.00491195       0.01314515
H        4.64946093       5.89049709       0.99864085       0.01213446      -0.01081029       0.01428109
H        5.49093288       8.13146873       0.55300563       0.00687884      -0.01206855       0.00110361
H        5.69709702       8.45754762       2.28926394       0.01264825      -0.00332305      -0.00088316
O        6.11625430      10.36663284       8.62039608      -0.01588833      -0.00034903      -0.02067801
O        5.71097551      12.34252346       7.68101094      -0.00281307       0.00681549      -0.01201403
O        3.98843406      11.05782889       8.34934229      -0.02772200       0.00864281      -0.02359752
C        7.39952352      11.01332771       8.55932967      -0.01139185      -0.00792840      -0.01866266
C        7.13708069      12.18135294       7.61848837      -0.00309845      -0.00130877      -0.00945917
C        5.16301912      11.25007808       8.25423586       0.00972378       0.00980144      -0.02165909
H        8.13248115      10.30895300       8.17247603      -0.01659793      -0.01282096      -0.02606185
H        7.66150309      11.33582667       9.56609452      -0.00493753      -0.01837932      -0.01678985
H        7.59733156      13.11115592       7.94500895       0.00174536      -0.00481507      -0.00066912
H        7.42180032      11.96223278       6.58777305      -0.00133019       0.00720818      -0.01152295
O        0.87210545       7.14927237       1.94530549      -0.00821102      -0.00129410      -0.01674208
O        2.76611660       8.13962086       1.34102221       0.00840981      -0.02413193      -0.00331232
O        2.39980034       7.68438492       3.51279597      -0.00174597      -0.04215658      -0.00934994
C        0.88788820       7.10868624       0.49359928      -0.00346938       0.00815353      -0.01732366
C        1.94616125       8.13656834       0.14657518       0.01123020      -0.00278616      -0.00615048
C        2.04486683       7.67255770       2.36761019      -0.00010961      -0.02429188      -0.00872660
H       -0.11066980       7.34893477       0.13746060       0.00089988       0.02321646      -0.01945825
H        1.18020390       6.10843736       0.17537583      -0.01439829       0.00633800      -0.02276456
H        2.56394731       7.85184346      -0.69812316       0.01008072      -0.00558893      -0.00657794
H        1.54318914       9.14302138       0.01743440       0.02539562       0.00361133       0.00075290
O        3.48266378       3.63982025      10.14536310      -0.00108631      -0.00805768      -0.00358480
O        3.06585142       3.85207888      12.31965327      -0.00726619      -0.00276569      -0.00513098
O        2.69664139       5.59412064      10.94356111      -0.01487952      -0.00265956      -0.01374164
C        3.68748708       2.32072604      10.69937702       0.00428890      -0.00531772       0.00137353
C        3.74836107       2.58070535      12.19500930      -0.00238891      -0.00105892      -0.00015330
C        3.06090190       4.46827205      11.11820390      -0.00483857      -0.01500857      -0.00683825
H        4.59652114       1.88949752      10.29061152       0.00871614      -0.00156920       0.00530906
H        2.83689083       1.69680238      10.41938135       0.00899979      -0.01153678      -0.00091658
H        3.23139240       1.83779057      12.79273868      -0.00333211      -0.00148371       0.00043824
H        4.76867948       2.70966934      12.55221799      -0.00444692       0.00250579       0.00467484
O        2.83587861      10.23792510       5.60598957       0.00174692      -0.01413333      -0.02049997
O        2.05732592       9.02207714       7.27557176      -0.01307434       0.00892876      -0.00983611
O        0.83325309      10.69625483       6.47345075       0.00954900       0.01549255      -0.02250095
C        3.89947316       9.27392426       5.84305450      -0.00742376      -0.02210660      -0.00865296
C        3.33566940       8.40104206       6.96563622      -0.01849130      -0.00670820      -0.00162885
C        1.86559942      10.02075836       6.45934440      -0.00300696       0.00719142      -0.01861090
H        4.78438881       9.83222107       6.13545846      -0.00375009      -0.02685201      -0.01018462
H        4.05541704       8.73947708       4.91261394      -0.00978102      -0.03257883      -0.00284705
H        3.12171417       7.38650606       6.64311620      -0.02852978      -0.00772285       0.00819921
H        3.93376514       8.41938273       7.87227919      -0.01997945      -0.00323880      -0.00023335
O        7.98248118       5.69924798      11.47962088      -0.00141891       0.00134552      -0.01063626
O        6.17987452       6.76218203      10.72857888      -0.00792898       0.00804999       0.01368751
O        5.94962950       4.79828577      11.80092812       0.00182015      -0.00358379      -0.00725457
C        8.45516865       7.00418136      11.08185683      -0.00576860       0.00743364       0.00220239
C        7.30121407       7.53314721      10.24009495      -0.01190554       0.01654285       0.01608586
C        6.63693593       5.68236675      11.37081193      -0.00313908      -0.00014246      -0.00125349
H        9.38888482       6.86836394      10.54263726      -0.00916460       0.01567621      -0.00627881
H        8.62040609       7.59224115      11.98372994      -0.00026682      -0.00373033       0.00846463
H        7.06898801       8.58368449      10.39260785      -0.01342155       0.01424536       0.03169002
H        7.41336328       7.31557192       9.17461789      -0.01812157       0.02997702       0.01266527
O        9.34462797       9.02144017       5.12238138       0.00061488       0.01135604       0.01499255
O       11.36495081       9.70638168       4.55018322      -0.00061399       0.00612444       0.00313628
O       10.33279061      10.71639620       6.23490729       0.01084898       0.00861833       0.00763181
C        9.74709967       8.09237851       4.07019218      -0.00919223       0.01135486       0.01136148
C       11.13402983       8.58387143       3.64655152      -0.00678837       0.00327465       0.00870013
C       10.32208272       9.85389445       5.37922702       0.00413621       0.01047604       0.01051462
H        9.01168468       8.15732372       3.27567830      -0.01017967       0.02053661       0.01287320
H        9.74617071       7.09296912       4.49965727      -0.01590932       0.01019382       0.00823812
H       11.93643472       7.87428807       3.82048724      -0.00872749       0.00133857       0.01105002
H       11.15968152       8.97331395       2.63325823      -0.00708187      -0.00179639       0.00654685
