142
Lattice="14.002547391722421 0.0 0.0 0.0 14.002547391722421 0.0 0.0 0.0 14.002547391722421" Properties=species:S:1:pos:R:3:forces:R:3 energy=-475540.625 stress="0.00044762983452528715 0.0003099899331573397 -0.00038903282256796956 0.0003099899331573397 0.0015594206051900983 0.0004397689044708386 -0.00038903282256796956 0.0004397689044708386 -0.000488218356622383" pbc="T T T"
Tc       3.08892394      11.57038020       1.41132230       0.00464955       0.00955909       0.00129277
Tc       2.73179119      13.51084048       1.32021046       0.00332744       0.01101971      -0.00778286
S        6.74484166       9.53866953      10.09716762      -0.00742834      -0.00874031       0.01712310
S        5.63057380      10.64725260      11.46642798       0.00284263       0.01638204       0.00774753
O        6.23980687       8.21032599       9.96668152      -0.01056549       0.00503480       0.02629095
O        8.19695459       9.39775969      10.69912342      -0.00401074      -0.00357398       0.00996794
O        6.76299463      10.49728426       9.03351418      -0.00387274      -0.00621450       0.00402439
S        3.70310988       8.99241232      12.75967147      -0.01583365       0.03500551       0.00659755
S        2.59150503      10.69785546      13.25373343      -0.00536776       0.04292306      -0.00139336
O        3.24828336       8.60027841      11.46390993      -0.01718691       0.02885191       0.01203841
O        3.81251432       8.03524526      13.81769506      -0.02022446       0.04223591       0.01620299
O        5.29936824       9.50498812      12.62920162      -0.01193658       0.02475536       0.01016678
S       12.42883951      12.56307915      11.82231247       0.00629164      -0.00181841       0.01106292
S       13.48425226      11.84151610      10.45922802      -0.01012871      -0.00712454       0.00045687
O       11.43478113      13.55602629      11.51489590       0.00687820       0.00365198       0.01691270
O       12.61329285      12.17038566      13.19141497       0.01543483       0.00023252       0.00775725
O       10.26905401      10.68155261      11.49832733      -0.00562835       0.00249863       0.00858295
S       10.29231390      10.13996475       8.48500372      -0.00006038      -0.01480472       0.01513350
S        9.28155011      10.83268138      10.42870391      -0.00293779      -0.00474426       0.00572014
O        9.26405075       9.36542111       7.82734257      -0.00269783      -0.00678909       0.00863779
O       11.44911503       9.40972393       8.95654698      -0.00665832      -0.02309144       0.01704258
O       10.52651877      11.48140438       7.98843753       0.01111472      -0.01515102       0.01908600
S        6.52590513      12.80802719       2.22377113       0.00174433       0.00905967       0.00179818
S        5.48379436      10.95582894       1.32266825       0.00428554       0.00984129       0.00700611
O        6.59324018      13.49672295       0.95094885      -0.01738730       0.02010578       0.00685191
O        7.73201810      12.23813284       2.75813407       0.01193070       0.00926054      -0.01958156
O        5.58226209      13.35558752       3.17569165       0.01358467      -0.00264150       0.01996398
S        3.51004842       9.74346420       3.45303565       0.00382400      -0.00117430      -0.01729220
S        5.49276387       9.45796123       2.69899728       0.01694465       0.02122402       0.01900537
O        3.42560827       8.98907660       4.65938458      -0.00510008      -0.01604334      -0.01370400
O        2.59538774       9.41041395       2.34304042       0.02693671      -0.00729346      -0.02576584
O        3.41847729      11.23286422       3.57966334      -0.01646671      -0.00698555      -0.00332570
S        9.70535284       1.74491207      12.68500075       0.00490314       0.00251457       0.03812949
S        7.71334680       2.09569881      12.75524915       0.00205864       0.00819494       0.01227674
O       10.37469173       1.53009806      13.92462778       0.00054672       0.03051582      -0.01934767
O       10.40914181       2.27319762      11.56585778       0.00055435       0.01006009      -0.02276719
O        8.66202147       0.61060311      12.31257937       0.00268298       0.00709695       0.02054095
O       11.42781905       8.45676392       1.44095960       0.00087019      -0.00280381      -0.00191045
C       10.90055941       9.51962507       0.65254748       0.00084406      -0.00330281      -0.00268407
C       11.93277034       7.41214569       0.63970667      -0.00015306      -0.00371075      -0.00122245
C       10.39177706      10.60522042       1.56484613       0.00204021      -0.00242382      -0.00316978
C       12.32800521       6.26179114       1.53499447       0.00636567       0.00027525       0.00096166
H       11.67902829       9.90094622      -0.02051037       0.00096202      -0.00447157      -0.00327474
H       10.09289863       9.13196850       0.01409114       0.00035053      -0.00344872      -0.00211602
H       11.17325890       7.08866227      -0.08574764      -0.00211918      -0.00714540       0.00228733
H       12.80183858       7.76845288       0.06367406      -0.00283206      -0.00350854      -0.00534597
H        9.97586294      11.42141664       0.97565537       0.00224660      -0.00229961      -0.00315523
H        9.60755550      10.23563425       2.22469569       0.00204988      -0.00169186      -0.00259812
H       11.19955122      11.00265953       2.18058966       0.00268604      -0.00291998      -0.00356492
H       12.74774588       5.44631547       0.94467622       0.00535090      -0.00135785       0.00238916
H       13.07012099       6.58367669       2.26628264       0.00920615       0.00574060      -0.00425796
H       11.45737386       5.88218455       2.07018121       0.00995000       0.00082811       0.00738479
O       11.56317141       2.46334512       4.56406450       0.00136739      -0.00784463      -0.00327027
C       12.73980552       2.76509971       3.84276624      -0.00011593      -0.00762779      -0.00559766
C       10.96610838       1.25591901       4.10451415      -0.00147432      -0.00586757      -0.00510105
C       13.34636026       4.03803963       4.38162315       0.00178705      -0.00917327      -0.00384012
C        9.75663449       0.93634478       4.94686422      -0.00046223      -0.00566477      -0.00363487
H       13.45233205       1.93056481       3.93553675      -0.00062922      -0.00859058      -0.00871156
H       12.50762286       2.86858704       2.77256371      -0.00249779      -0.00536783      -0.00485486
H       10.69169665       1.36048048       3.04598731      -0.00317685      -0.00312689      -0.00421417
H       11.70221143       0.44183461       4.17058928      -0.00259250      -0.00734708      -0.00798234
H       14.26621196       4.27115843       3.84340134       0.00099774      -0.00819016      -0.00494339
H       12.65842884       4.87386933       4.26276204       0.00181514      -0.00856762      -0.00058946
H       13.57752827       3.93632075       5.44243398       0.00350733      -0.01183630      -0.00439182
H        9.28171514       0.02508442       4.58126818      -0.00520707      -0.00075233      -0.00989826
H       10.03719330       0.78856795       5.98929328       0.00166003      -0.01156899      -0.00490892
H        9.02706529       1.74491359       4.89310998       0.00192165      -0.00319260       0.00217153
O        3.25784454       3.39054832      10.69802743      -0.00907201       0.00442123       0.00226896
C        1.84571495       3.40781482      10.62188226      -0.00880241       0.00554675      -0.00392834
C        3.81564253       4.69640648      10.67731503      -0.00970852       0.00499193       0.00066812
C        1.34383237       1.98629077      10.53548406      -0.01044156       0.00695848      -0.01006785
C        5.31509768       4.57807572      10.77257064      -0.00965071       0.00783567       0.00257279
H        1.43122890       3.91611473      11.50641533      -0.01179229       0.00477961      -0.00473315
H        1.52792883       3.98508778       9.74030967      -0.00498609       0.00654811      -0.00435668
H        3.52566598       5.20983266       9.74964182      -0.00900277       0.00290951      -0.00067383
H        3.41518762       5.29321438      11.50980786      -0.01197675       0.00590566      -0.00112420
H        0.25413790       1.96228009      10.51008449      -0.01039085       0.00734481      -0.00927827
H        1.72412084       1.49462565       9.64022349      -0.00951721       0.00801545      -0.00995287
H        1.67796683       1.41452076      11.39895676      -0.01155218       0.00433454      -0.01501781
H        5.77449198       5.56605456      10.72406107      -0.01130942       0.00859338       0.00141650
H        5.60325617       4.09779068      11.70809861      -0.00923628       0.00986496       0.00348948
H        5.70262758       3.97055749       9.95492684      -0.00701212       0.00783153       0.00385205
O        2.92861376       2.69610657       1.88716640      -0.00143698      -0.02508481      -0.01833746
C        3.57081861       3.65168541       1.03343750       0.00199091      -0.01874366      -0.01015622
C        3.78137386       1.69755876       2.38417271       0.00008020      -0.02056563      -0.00977118
C        2.65907754       4.84262613       0.87460937       0.00198093      -0.01754528      -0.00804035
C        3.05080096       0.92924992       3.46460597      -0.00612776      -0.02603032      -0.01712763
H        4.52123445       3.95484548       1.49027971       0.00005454      -0.02300878      -0.00323933
H        3.79566753       3.18547951       0.06543312       0.00647697      -0.01278207      -0.01186848
H        4.15421912       1.02554384       1.55160308       0.01794577      -0.01472926      -0.00692707
H        4.72110729       2.10456965       2.77696558      -0.00762257      -0.01536036       0.00297338
H        3.10150239       5.57167543       0.19608640       0.00586757      -0.01218496      -0.00033773
H        1.69073951       4.53719083       0.47699977       0.00474004      -0.01405751      -0.01796124
H        2.49898919       5.33998028       1.83120852      -0.00564723      -0.02442168      -0.00559223
H        3.73965650       0.33873258       4.05904678      -0.00847167      -0.02332836      -0.01158278
H        2.48656457       1.63304192       4.08017280      -0.01316269      -0.02594763      -0.02362764
H        2.23980279       0.23245170       3.11076260      -0.00994422      -0.02753264      -0.01279689
O        7.73821029       8.52611840       4.63140511       0.01092643       0.00208122       0.01037550
C        6.82282240       8.69173108       5.71181044       0.01050058       0.00680023       0.00933421
C        7.86299930       7.18086736       4.23976847       0.00202659       0.00110298       0.00922495
C        6.59792755      10.16347623       5.95162736       0.02225395       0.00798595       0.01417468
C        8.81323787       7.11341060       3.06904958      -0.00029111      -0.00486484       0.00755334
H        5.87587800       8.18835842       5.45629713       0.00676811       0.01567522       0.00535285
H        7.23336194       8.21038218       6.60922614       0.00417301       0.00043747       0.00875103
H        8.22879092       6.57776775       5.08393852      -0.00040278      -0.00119391       0.00856525
H        6.87361151       6.77908874       3.95497570      -0.00089490       0.00732145       0.01057498
H        5.84741506      10.29519733       6.72834535       0.02152088       0.01108043       0.01300120
H        7.51915522      10.63942043       6.28108495       0.02519959      -0.00102896       0.01901221
H        6.25074246      10.65682709       5.04530762       0.02820989       0.01395042       0.01523498
H        8.94385992       6.08089607       2.73924870      -0.00628940      -0.00622728       0.00915529
H        8.42975159       7.69823693       2.23125489       0.00124703      -0.00420651       0.00723684
H        9.78630720       7.52650716       3.33027317       0.00241846      -0.00961678       0.00541095
O       10.00921907       5.26803568      12.48409536       0.00085548       0.00240146      -0.00534672
C       10.86452253       5.34140492      11.35185232      -0.00113356       0.00575350      -0.00651989
C        8.66727445       5.56671635      12.14645643       0.00057703       0.00750814      -0.00148013
C       12.26535592       4.97116434      11.77706816      -0.00074387       0.00297545      -0.01002789
C        7.83015574       5.49941789      13.40148493       0.00345987       0.00534258       0.00035590
H       10.50491369       4.64784941      10.58123191      -0.00312385       0.00833100      -0.00840473
H       10.83327772       6.35546819      10.93018702      -0.00069547       0.00687969      -0.00351714
H        8.60526531       6.56596643      11.69310284       0.00281516       0.00884324       0.00165033
H        8.30879339       4.84446807      11.39774334      -0.00344022       0.01075757      -0.00299218
H       12.92347768       4.95345446      10.90770030      -0.00163846       0.00776048      -0.01083021
H       12.66090768       5.69559972      12.48872473      -0.00008497      -0.00076559      -0.00638638
H       12.26975172       3.98281377      12.23558015      -0.00022794       0.00056583      -0.01506838
H        6.79377118       5.75751209      13.18424476       0.00344659       0.00697193       0.00293217
H        7.85893791       4.49876694      13.84144316       0.00211439       0.00414899      -0.00253674
H        8.21001009       6.19462765      14.14910259       0.00519869       0.00310206       0.00167330
O        9.57257281       5.79132138       7.03407173       0.00132540      -0.00049198      -0.00009704
C        8.97811000       4.51478880       7.01864948      -0.00042486       0.00009480      -0.00446436
C       10.72829400       5.85097542       6.21830968       0.00122064       0.00080806      -0.00048189
C        7.73985373       4.55831235       7.87960783       0.00111598      -0.00186223      -0.00165173
C       11.25206598       7.26445748       6.21214849       0.00110257       0.00085783       0.00215743
H        8.72577854       4.23305400       5.98379760      -0.00323199       0.00489493      -0.00534701
H        9.69132868       3.75967102       7.38197127      -0.00008103      -0.00389344      -0.00604710
H       11.48011214       5.14317047       6.59965281       0.00139523       0.00006428      -0.00192854
H       10.46717455       5.51610079       5.20139020       0.00096938       0.00279820      -0.00111026
H        7.26660229       3.57670401       7.91710948      -0.00075796      -0.00126927      -0.00527116
H        7.99363712       4.86292502       8.89437532       0.00382425      -0.00715832      -0.00067663
H        7.02552983       5.28140887       7.48491635       0.00171071       0.00131528       0.00257314
H       12.11116143       7.33926393       5.54300917       0.00182807       0.00215241       0.00324309
H       10.48060041       7.95585810       5.87383033       0.00131536       0.00128788       0.00239097
H       11.55481595       7.57816438       7.21039860      -0.00009050      -0.00090460       0.00309479
