146
Lattice="10.80633876982094 0.0 0.0 0.0 10.80633876982094 0.0 0.0 0.0 10.80633876982094" Properties=species:S:1:pos:R:3:forces:R:3 energy=-117040.2734375 stress="-0.005472206976264715 0.0003407690383028239 -0.001548560569062829 0.0003407690383028239 -0.004449708852916956 -0.00047536217607557774 -0.001548560569062829 -0.00047536217607557774 -0.0074176667258143425" pbc="T T T"
N        2.14369991       6.41425062       7.08378359       0.00116976       0.00204689       0.00169088
C        2.08686031       6.31839152       5.57292186       0.00131248       0.00121200       0.00221628
C        3.09436238       5.36353962       7.63100573       0.00003977       0.00200772       0.00242338
C        0.72830164       6.19885487       7.58996336       0.00149179       0.00346227       0.00181020
C        2.68098785       7.77579240       7.48766373       0.00193712       0.00162941       0.00061560
C        1.80144921       4.93176979       5.04212481       0.00123723       0.00126326       0.00316652
C        4.48673768       5.41228868       7.04135304      -0.00075328      -0.00092263       0.00146498
C        0.54379966       6.36862789       9.07539720       0.00180306       0.00386135       0.00133801
C        1.79140379       8.95757294       7.19750499       0.00348556       0.00195259      -0.00093406
H        1.31107747       7.01930757       5.26307380       0.00169298       0.00086936       0.00182664
H        3.05490229       6.67532830       5.22301202       0.00112572       0.00069467       0.00216917
H        3.11594787       5.51491572       8.70909782       0.00105777       0.00365367       0.00182369
H        2.63987534       4.39394915       7.43855754      -0.00146069       0.00265750       0.00448653
H        0.11179844       6.90173496       7.02794554       0.00223818       0.00368059       0.00182343
H        0.44746778       5.19362271       7.28396477       0.00069983       0.00400141       0.00205679
H        2.90063283       7.70347916       8.55421654       0.00087981       0.00247876       0.00056806
H        3.63187462       7.87381044       6.96774321       0.00216523       0.00017528       0.00148816
H        1.77227748       4.99191362       3.95491866       0.00190329       0.00032231       0.00346893
H        2.56941539       4.20720977       5.31037717       0.00050645       0.00133364       0.00407940
H        0.82441325       4.56154746       5.34759864       0.00121579       0.00216333       0.00296744
H        5.06388000       4.62354608       7.52104148      -0.00179874      -0.00086293       0.00206089
H        4.49245733       5.18288142       5.97871264      -0.00169315      -0.00248227       0.00215822
H        5.00170226       6.35620624       7.21137648       0.00057803      -0.00173977      -0.00034965
H       -0.49406592       6.12921360       9.30986576       0.00144315       0.00673567       0.00121039
H        1.16779379       5.69316857       9.65668357      -0.00021864       0.00255905       0.00135186
H        0.71080466       7.38988420       9.41597057       0.00425008       0.00320351       0.00121162
H        2.36279318       9.86737343       7.38542112       0.00378747       0.00122517       0.00010657
H        1.43235224       8.98557971       6.17266421       0.00545912       0.00230850      -0.00128669
H        0.91087771       8.98277833       7.83566448       0.00276102       0.00250972      -0.00258218
N        3.69731658       8.59297847       2.27816106       0.00220886      -0.00102550      -0.00102071
C        3.30063673       7.13683695       2.33164775       0.00294653      -0.00059122       0.00068387
C        2.49774112       9.46737460       1.94154812       0.00222179      -0.00172472      -0.00085288
C        4.78127940       8.75334387       1.22555038       0.00059688      -0.00147296      -0.00219512
C        4.20034629       9.04078237       3.63616199       0.00329282       0.00011006      -0.00217932
C        2.71085855       6.59246768       1.05069333       0.00271159      -0.00202732       0.00188684
C        1.25334194       9.15785727       2.74916360       0.00245568      -0.00180386      -0.00149411
C        5.42376127      10.11474412       1.15815834      -0.00162995      -0.00138062      -0.00458411
C        5.44189310       8.34859915       4.13220976       0.00369427       0.00112459      -0.00260139
H        4.19382916       6.58212498       2.61539655       0.00310740       0.00022414       0.00059315
H        2.57394003       7.05514219       3.13417144       0.00377163      -0.00013772       0.00103214
H        2.80906185      10.49963002       2.09323826       0.00175500      -0.00194097      -0.00088529
H        2.31003058       9.33534847       0.87662411       0.00254503      -0.00185429      -0.00061023
H        5.51767055       7.97518258       1.42927546       0.00159764       0.00007138      -0.00147590
H        4.30206145       8.51186670       0.27872394       0.00001365      -0.00390385      -0.00083083
H        4.36014371      10.11159678       3.54108434       0.00279556      -0.00027746      -0.00295998
H        3.36637699       8.89639691       4.32120157       0.00408062       0.00019062      -0.00167327
H        2.34929618       5.58586289       1.25787702       0.00199195      -0.00107011       0.00329762
H        1.85451567       7.17323706       0.71180169       0.00348189      -0.00197750       0.00103410
H        3.44418308       6.52600239       0.24676053       0.00252572      -0.00372702       0.00234312
H        0.57740012      10.00192413       2.63561340       0.00136586      -0.00351956      -0.00399903
H        0.74066730       8.25496654       2.41789304       0.00414880      -0.00306906       0.00014859
H        1.43981702       9.07552357       3.81872347       0.00176660       0.00085470      -0.00146115
H        6.11453501      10.08438269       0.31543177      -0.00151257      -0.00164057      -0.00415827
H        4.70570167      10.91164845       0.98478796      -0.00238758      -0.00275657      -0.00590654
H        6.01830473      10.35423258       2.03883288      -0.00216953       0.00097895      -0.00541583
H        5.70594730       8.78090320       5.09805957       0.00376135       0.00198104      -0.00336212
H        5.31995628       7.27705221       4.28395545       0.00434987       0.00158525      -0.00159376
H        6.30408815       8.49722322       3.48798791       0.00304228       0.00140595      -0.00291185
S        8.38010032       1.47702721       3.75484968      -0.02742475      -0.02234280      -0.02276215
S        8.25942875       5.93956802       3.79606896      -0.00016671      -0.00099623       0.00719461
S        7.04881211       3.02538316       3.11900256      -0.00270912       0.00088876       0.00187480
S        7.01706118       4.39875554       4.59515341       0.00635760      -0.00471565       0.00664241
O        7.94830654       1.00601287       5.07048409      -0.00875255      -0.01318845      -0.01112151
O        7.78132285       6.16046520       2.43202027       0.00450441      -0.00526762       0.00767380
O        9.70946389       2.04987043       3.78648812       0.00511467      -0.01541397      -0.01357386
O        8.10155438       0.55502449       2.66706938      -0.01986906       0.00564021      -0.00701296
O        7.93507828       7.00600505       4.73618695       0.00308311      -0.00554097       0.00486910
O        9.65426609       5.52512934       3.86759000       0.00672787      -0.00215510       0.00731223
O        9.97151799       8.47362496       5.71336097       0.00276488      -0.00076210       0.00192881
C        9.07956778       8.98428404       6.69929970       0.00386043      -0.00004306       0.00183824
H        8.60584838       8.18117821       7.27358047       0.00758661       0.00084698       0.00555661
H        8.29884723       9.59054198       6.23333434       0.00136083      -0.00386119       0.00203398
H        9.64701023       9.62478554       7.37133039       0.00374839       0.00378816      -0.00214347
H        9.40854891       7.89670647       5.16929307       0.00233675      -0.00224796       0.00368106
O        5.15402762       2.76481546       8.90025260      -0.00150934      -0.00187787      -0.00020593
C        4.90750333       3.52757224      10.06536320      -0.00013901      -0.00130743      -0.00083685
H        5.05914283       4.59685428       9.88502726       0.00156979      -0.00199062      -0.00118839
H        5.55338292       3.22277596      10.89052460      -0.00077271      -0.00194295      -0.00094092
H        3.87337250       3.36200336      10.37017332      -0.00004569       0.00047303      -0.00081933
H        6.13371786       2.67482367       8.79801525      -0.00168541      -0.00011165      -0.00179739
O       11.26836366       4.06825340       2.27946648       0.00005661       0.00185576       0.00464261
C       10.61528657       4.48301340       1.09148206       0.00570371      -0.00743211      -0.00188780
H       11.21566774       4.13152324       0.25542631       0.01280680      -0.00788166       0.00411040
H       10.54629802       5.57272341       1.03865934      -0.00003712      -0.00848129      -0.00739537
H        9.60875804       4.06060103       1.00819691       0.00898030      -0.01362509      -0.00605114
H       10.66963971       4.31732707       3.00559067      -0.00003219       0.01153159      -0.00037806
O       12.00407061       1.41762897       1.90971604       0.00243354       0.00119513       0.00117058
C       11.01476428       1.18929459       0.92936366       0.00412282      -0.00254659       0.00021881
H       11.25623450       1.69678061      -0.00868904      -0.00872402       0.01697892       0.00834408
H       10.02940143       1.50786584       1.27343931      -0.00051147      -0.02773340       0.00821692
H       10.96392393       0.11835027       0.72095374       0.02604359       0.00060526      -0.01677509
H       11.78163736       2.28720738       2.28573824      -0.00381496      -0.00328022       0.00523937
O        4.37443006       2.49497983       5.86993730      -0.00129278      -0.00171584       0.00161529
C        4.28711287       1.30455605       5.11144001      -0.00382263      -0.00151792       0.00212845
H        5.24850884       1.05329192       4.64698106      -0.00489902      -0.00338364       0.00215834
H        3.55198984       1.45635279       4.32354438      -0.00355080      -0.00020168       0.00255284
H        3.96614288       0.46163436       5.73198519      -0.00550811      -0.00044429       0.00232255
H        4.97274928       2.28597216       6.60407023       0.00035273      -0.00195360      -0.00005533
O        9.24750937       7.73081948       0.73860788       0.00165497      -0.00701016       0.00457407
C        8.80613750       8.89326645       1.44665853       0.00489691      -0.00368650       0.00117870
H        9.30111143       8.99470523       2.41181799      -0.00209047      -0.00785119       0.00464228
H        7.73167325       8.85712744       1.61584803       0.00356507       0.00471225      -0.00769595
H        9.02875835       9.76767447       0.84193374       0.01630765      -0.00595289       0.00307295
H        8.87970886       6.98393046       1.24805965      -0.00011451      -0.00428983       0.00616379
O        3.04442303       1.12196263       8.47122692      -0.00371474       0.00312832      -0.00195861
C        2.84480201       0.38986221       9.65864657      -0.00435975       0.00468302      -0.00147900
H        2.94113793       1.00214473      10.56241798      -0.00293192       0.00512844      -0.00228259
H        3.54811292      -0.45261748       9.73786811      -0.00604993       0.00385478      -0.00094572
H        1.83331839      -0.01953247       9.63319797      -0.00474837       0.00667132      -0.00077279
H        3.87198127       1.63782312       8.56316271      -0.00328567       0.00191796      -0.00239922
O       -0.08342322       0.82850452       6.25284171      -0.01116532       0.00743929      -0.00845423
C        1.15713551       1.13292212       5.62094700      -0.00840324       0.00551597      -0.00342746
H        1.05537001       1.97122098       4.93040310      -0.00299314       0.01094490       0.00259146
H        1.52648000       0.27292121       5.05796003      -0.01228513       0.00822273      -0.00903851
H        1.86696978       1.37201357       6.40948320      -0.00890729      -0.00316817      -0.00094500
H       -0.73414414       0.62384530       5.57042589      -0.00935072       0.01445722      -0.01105353
O        4.20904975       2.06299841       2.01622213      -0.00041249      -0.00244081       0.00035534
C        3.82028214       3.37105536       2.39854037      -0.00155421      -0.00314608      -0.00039896
H        4.43493750       4.13304051       1.90049924      -0.00260368      -0.00294301      -0.00080267
H        3.90820541       3.51991876       3.47931738      -0.00142632      -0.00245579      -0.00077575
H        2.78187795       3.50093375       2.10586716      -0.00144398      -0.00431708      -0.00002857
H        5.10435898       1.94841879       2.36536001      -0.00091156      -0.00193056       0.00026172
O        7.79419168       2.73068455       9.10692954      -0.00350617       0.00529939      -0.00173447
C        8.08578889       1.45168903       9.66378114      -0.00303746       0.00887239       0.00586900
H        8.09662966       0.67658333       8.89519373       0.00057632       0.00529915       0.00990632
H        7.30480359       1.22001810      10.38776566      -0.00423792       0.01117745       0.00452501
H        9.03982575       1.45791903      10.19010564      -0.00498602       0.01354823       0.00859916
H        8.42036924       2.88464482       8.36680927      -0.00368573       0.00216877      -0.00153585
O        6.26129498       0.84834524       7.21448410       0.00371531       0.00013843      -0.00085127
C        5.87898947      -0.40972876       7.73336768       0.00265761       0.00148326       0.00054388
H        6.69815803      -1.12995175       7.74829688       0.00408116       0.00377622       0.01036674
H        5.03252473      -0.83746161       7.17886463       0.00873101      -0.00280841      -0.00458443
H        5.55742036      -0.25507284       8.76242484      -0.00637607       0.00530729      -0.00320488
H        6.82274114       0.74811389       6.42830596       0.00050564      -0.00212750      -0.00262997
O       -0.88662519       3.09448729       7.43000481      -0.00521150       0.00184059      -0.00261295
C        0.06266256       2.79443445       8.44658772      -0.00502540       0.00388360      -0.00247094
H       -0.26785922       3.28332018       9.36014542      -0.00040814       0.01227668      -0.00588739
H        1.06766755       3.14290206       8.19065686      -0.00393838      -0.00399418      -0.00722039
H        0.13087133       1.71919504       8.61629330      -0.01094368       0.00506321       0.00536305
H       -0.77997601       2.36897475       6.77656379      -0.00432917       0.00077912      -0.00078968
O        7.20263231       7.95055189       9.72882729       0.00170091      -0.00221360       0.00409517
C        6.65819408       6.64699801       9.74024496      -0.00302944       0.00046718       0.00237338
H        5.60726915       6.72338540       9.45229387      -0.00185737       0.00459725      -0.00001071
H        6.71283210       6.18461070      10.73253074      -0.00720613      -0.00007613       0.00198889
H        7.15255457       5.97791639       9.02433799      -0.00416785      -0.00110561       0.00354478
H        8.03778908       7.90217830      10.23478850       0.00121309      -0.00560392       0.00431664
