147
Lattice="11.275751325682956 0.0 0.0 0.0 11.275751325682956 0.0 0.0 0.0 11.275751325682956" Properties=species:S:1:pos:R:3:forces:R:3 energy=-96323.8515625 stress="-0.0001730406074784696 0.0006034259567968547 0.0003259470540797338 0.0006034259567968547 -0.0009418709087185562 0.00044681207509711385 0.0003259470540797338 0.00044681207509711385 -0.0004747911007143557" pbc="T T T"
N       10.07463106       9.56130217       4.24642735       0.00905094       0.01361456       0.00031613
C        9.14955917      10.71438653       4.46737913       0.00757229       0.01193285      -0.00041845
C       10.93718823       9.37549210       5.45449654       0.00922632       0.01489665       0.00053746
C       10.92846134       9.83371764       3.04817686       0.00855565       0.01588343       0.00059682
C        9.28394686       8.31808978       4.00513358       0.01117927       0.01212591       0.00043029
H        8.51132319      10.48305147       5.31848274       0.00877533       0.01218888       0.00036862
H        9.74193389      11.60589434       4.64759394       0.00598840       0.01328705      -0.00168967
H        8.57597334      10.87068072       3.55604237       0.00566687       0.00954353       0.00052105
H       11.57871940       8.51284826       5.29336250       0.00966465       0.01526254       0.00104222
H       11.53294082      10.27275707       5.59974109       0.00895660       0.01513542      -0.00025772
H       10.31344623       9.19888469       6.32567346       0.00944349       0.01507978       0.00080046
H       11.57292766       8.97002447       2.90460076       0.00905485       0.01674774      -0.00088156
H       10.28994884       9.96799230       2.17849393       0.00821289       0.01750740       0.00103933
H       11.49766803      10.74460880       3.21202197       0.00872406       0.01545472       0.00255614
H        9.96796368       7.49019126       3.83620527       0.01292194       0.01365246       0.00007165
H        8.67774811       8.09343009       4.87853351       0.01183396       0.01076894       0.00059879
H        8.67760359       8.46577769       3.11847319       0.01027976       0.01089416       0.00084965
N        4.53714173       9.26381654       4.09273397       0.00926012      -0.00966310      -0.00121872
C        3.20812431       8.59165639       4.01471687       0.00671250      -0.00449231      -0.00306525
C        4.38943418      10.68038642       3.65594424       0.01444335      -0.00764537       0.00429651
C        5.50320572       8.57622972       3.18719214       0.00549912      -0.00962934      -0.00500798
C        5.03371460       9.21819657       5.49935553       0.00965831      -0.01632773      -0.00158775
H        2.53382078       9.10456111       4.69531003       0.00853169      -0.00390379      -0.00172473
H        2.86157260       8.65105549       2.98549962       0.00718134      -0.00067529      -0.00292596
H        3.32560401       7.55909008       4.32859180       0.00287884      -0.00573380      -0.00593607
H        5.34725794      11.17935978       3.78539085       0.01632501      -0.01156750       0.00587241
H        4.07639264      10.70159101       2.61729338       0.01303091      -0.00176710       0.00499395
H        3.62835755      11.16271904       4.26289136       0.01638727      -0.00749519       0.00644901
H        6.43823665       9.12984275       3.22512600       0.00735877      -0.01289579      -0.00466098
H        5.65271825       7.56161985       3.54635427       0.00301033      -0.01125643      -0.00913341
H        5.09458535       8.59841321       2.17876744       0.00395325      -0.00492399      -0.00428690
H        5.97384265       9.76155276       5.55027897       0.01009345      -0.01719938      -0.00000175
H        4.30253460       9.71241429       6.13087994       0.01037052      -0.01792124       0.00035037
H        5.15164177       8.17542367       5.78594173       0.00917649      -0.01754069      -0.00622898
S       10.46764850       1.60823960       1.23228909       0.01245436       0.01771426      -0.00711048
S       10.60284538       3.49002428       0.44197567       0.00129583       0.02010989      -0.00545445
O       10.38392192       1.71553462       2.70957094       0.00112650       0.02034608      -0.00619435
O       11.72360076       0.89444470       0.86494060       0.03167319       0.03700227       0.01053858
O        9.29021344       0.92523132       0.69836404       0.04080999       0.00673795      -0.01600397
O        2.17536102       1.03846182       9.93884762       0.01466566      -0.02825877      -0.00474876
C        3.31036718       1.77898779      10.34752837       0.00731462      -0.01758212      -0.00100763
H        3.05665350       2.80519171      10.62949898      -0.00434001      -0.02039272      -0.00214358
H        3.99432425       1.80955623       9.49431712       0.01013213      -0.01016053       0.00195190
H        3.82507595       1.30901370      11.19563646       0.00628415      -0.01329318       0.00172803
H        1.50254589       1.09476062      10.64638805       0.00907959      -0.01698525      -0.01196516
O        2.74613264       1.23296073       2.27325595       0.01488310      -0.02132130       0.00121126
C        3.51366154       2.32135062       2.75646628      -0.00927779      -0.00528955       0.00259000
H        3.23536074       2.57352822       3.78581103      -0.03231069       0.00110877      -0.00550765
H        3.40808617       3.20735486       2.12896848      -0.01332153      -0.01384920      -0.00891504
H        4.56626515       2.02156615       2.73688771      -0.00410813       0.01193517       0.02367147
H        1.89784140       1.51429891       1.88614582       0.01546647      -0.03495737      -0.01171656
O        7.61796252       5.52759279       3.49716791       0.00376731       0.00769830       0.00808117
C        7.60699034       4.30486329       2.74599706       0.00320715       0.01109308       0.00278465
H        6.87397184       4.35328556       1.93513394      -0.00444424       0.01074395       0.00973180
H        7.37294307       3.44957148       3.38817444       0.01376390       0.00688151       0.00089803
H        8.59734914       4.15390117       2.32073695       0.00019756       0.01813491      -0.00656128
H        6.76687561       5.58616691       3.97833458       0.00450087       0.00451417       0.00991275
O       10.06837722       2.79595577       8.63756768      -0.00587179       0.00115484       0.00090408
C       10.27721166       1.45119374       8.25377879      -0.00215582      -0.00074035       0.00978631
H       10.14611563       0.76335393       9.09419296      -0.01381851       0.00324491       0.01112673
H       11.27879935       1.29965880       7.83394615       0.00277591      -0.00410013       0.02284408
H        9.53957174       1.20263071       7.48358959       0.00700307      -0.00299194       0.00194201
H       10.34327912       2.90180526       9.57410212      -0.00558137       0.00776371      -0.00000252
O        5.91938548       3.77635111      10.67787701      -0.01218373       0.01133146       0.01909639
C        6.77785670       2.63014120      10.80517676      -0.01710060       0.00643812       0.00772718
H        6.97082794       2.15513844       9.84022093      -0.02679352       0.00945984       0.00436726
H        6.35234156       1.89759599      11.49391659      -0.01656362       0.00542961       0.00702354
H        7.72852000       2.97263785      11.20722967      -0.01249692      -0.00022765       0.00240400
H        5.08800815       3.53296470      10.25310613      -0.01495910       0.01873219       0.02071710
O        8.78321646       6.01340117       5.95897464       0.00646341       0.00683038       0.00648952
C       10.07729085       5.51879664       6.28033376       0.00498369       0.00500377       0.00988311
H       10.86672282       6.12012724       5.81092178       0.00695512       0.00239319       0.01003376
H       10.21659727       4.47891531       5.97428499       0.00338212       0.00401342       0.01267077
H       10.20204653       5.57861482       7.35975458       0.00307817       0.00719108       0.00994265
H        8.53931367       5.70774099       5.06442886       0.00743763       0.00601958       0.00664893
O        2.37137147       4.54983074       0.67252110      -0.00427622      -0.00896358      -0.01801157
C        2.57977084       5.93262436       0.75250254      -0.02321607      -0.00709099      -0.00937928
H        2.01453412       6.40250370       1.57060044      -0.02416645      -0.02190895      -0.00152242
H        2.32532677       6.44610792      -0.18490905      -0.03873507      -0.00352152      -0.00333139
H        3.64523251       6.08988027       0.94640782      -0.02423590       0.00769710      -0.01605614
H        1.41367848       4.32741391       0.61395408      -0.00381892      -0.01732514      -0.01217500
O        4.35998656      10.23569543       8.96447880      -0.01272449      -0.01001546      -0.00467688
C        5.49871282       9.40553024       9.20645794      -0.01256900      -0.00732996       0.00241075
H        5.23384316       8.46660120       9.69620240      -0.01423150      -0.01044655      -0.00446223
H        6.24768380       9.93228280       9.80177051      -0.01984112      -0.00817534       0.01222034
H        5.92886752       9.17303828       8.23520354      -0.00280087      -0.00104073       0.00529473
H        3.95018944      10.47075180       9.81071070      -0.01910163      -0.00777696      -0.00850850
O        3.51968379       9.19395056       0.41918576      -0.00746222      -0.01409107      -0.00434861
C        2.16949076       9.68927923       0.51491744      -0.00830857      -0.01965554       0.00355567
H        1.48376219       8.89953538       0.83349889      -0.00340778      -0.02209866       0.00771396
H        1.82798412      10.10685138      -0.43259691      -0.01522985      -0.02138089       0.00536036
H        2.17803510      10.49727460       1.24021370      -0.00636284      -0.01942992       0.00343192
H        3.49726812       8.40270275      -0.12871414      -0.00807358      -0.01441982      -0.00399941
O        2.47061095       8.72915068       7.46117175      -0.01633903       0.00630230      -0.01280066
C        2.03073453       7.79440364       8.44627781      -0.01175492      -0.00011775      -0.01732913
H        1.80850592       8.30239723       9.39054081      -0.03139594      -0.00373399      -0.02006182
H        2.77059737       7.00393441       8.61476175      -0.00152004       0.01144940      -0.00764864
H        1.10270327       7.34289027       8.10026878       0.00073817      -0.01647356      -0.02897480
H        3.07622473       9.33269926       7.92131677      -0.01442374       0.00343273      -0.01135166
O        7.08837240       5.85355815       9.48747046      -0.01010334      -0.00020865       0.00173090
C        8.45936549       5.52123862       9.74910281      -0.00970605       0.00224172       0.00227770
H        9.08503494       6.30616407       9.32619383      -0.01096848       0.00219005       0.00044173
H        8.74457916       4.56693804       9.30256356      -0.00869802       0.00163490       0.00433689
H        8.63717515       5.43692108      10.82686442      -0.00965947       0.00536758       0.00234571
H        6.56495732       5.17552433       9.97551513      -0.00967607       0.00290778       0.00707546
O        9.37881769       8.20943860       0.30609943       0.01390192       0.00112778      -0.00455114
C        8.00583388       8.45812081       0.60399969       0.01135634      -0.01017213      -0.00619510
H        7.93566621       9.50485530       0.90392384       0.00125812      -0.00888637      -0.01404975
H        7.65215668       7.80578580       1.40944465       0.01785062      -0.00675669      -0.00066471
H        7.36318729       8.29312514      -0.26302250       0.01254845      -0.02324148      -0.00466520
H        9.45884793       7.27678558       0.07512151       0.02325661      -0.00006929       0.00424912
O        5.73792187       0.58002605       7.13224687      -0.02906965      -0.00108731       0.00113314
C        4.73657007       1.44881131       6.62654300      -0.01879765       0.00555514      -0.00673956
H        3.74817769       0.97633539       6.62519867      -0.02104190       0.01033011      -0.02119353
H        5.00341021       1.71376682       5.60351451      -0.00529852       0.00847897      -0.00246644
H        4.67136454       2.37164122       7.21218104      -0.02179741       0.00325489      -0.00359938
H        5.34766989       0.16018816       7.91413425      -0.03817275      -0.00467696      -0.00481112
O        6.21342558       4.62178239       7.27595959      -0.00413783       0.00168961       0.00410703
C        7.16203767       3.57026286       7.02828069      -0.00704347       0.00046517      -0.00157259
H        6.98204574       2.72357289       7.68965918      -0.01166974      -0.00399143      -0.00853130
H        8.18031809       3.92121818       7.16220995      -0.00616458      -0.00367112       0.00359846
H        7.03225447       3.23843676       5.99768224      -0.00560352       0.00905167      -0.00449896
H        6.56422792       5.17184906       8.02165007      -0.00303607      -0.00075392       0.00606281
O        3.50297903       4.61762234       8.43752770       0.01934171      -0.00412561       0.02228178
C        2.27061268       4.03507747       8.00773497       0.02090225      -0.00066122       0.01447178
H        2.21620012       2.96493866       8.22273827       0.02443049      -0.00423151      -0.00266066
H        2.08505320       4.18641264       6.93946403       0.01962054       0.01472902       0.01696286
H        1.47210120       4.52301300       8.56514514       0.01951933      -0.01197240       0.02212219
H        4.21912398       4.38741448       7.83100629       0.01951328       0.00736669       0.01748551
O        0.64508333       3.04408819       4.46147981       0.00875483       0.00860643      -0.00060636
C        0.84818577       4.31473133       3.88435106       0.00196655       0.01049709       0.00027135
H        1.26549213       4.96826848       4.65429772       0.00783628       0.00985046      -0.00255466
H       -0.09047632       4.75509916       3.52454976      -0.00221914       0.00920309       0.01002711
H        1.54115521       4.28149797       3.03645359      -0.00584915       0.01234882      -0.00614235
H        0.12936263       2.52617463       3.80575438       0.00664866       0.01013546       0.00114717
O       10.01107693       8.56490082       8.68710549      -0.00333393       0.00316899      -0.00254190
C        8.66876300       8.66947755       8.23987862      -0.00234267       0.00508285      -0.00438613
H        8.39099470       9.71087390       8.02768810      -0.00284379       0.00611138       0.00143013
H        7.96508516       8.26136114       8.96771073      -0.00390700       0.00008801      -0.00865507
H        8.57000370       8.06560167       7.33480814       0.00058188       0.01044796      -0.00807595
H       10.01695444       8.78566725       9.62895977      -0.00517854      -0.00049327      -0.00157371
O        5.46346549       5.84989878       5.11305215      -0.00038299      -0.00210226       0.00293073
C        4.19877280       5.20952708       4.98784586       0.00171340      -0.00474431      -0.00333561
H        4.26822563       4.13842878       5.19514605       0.00277041      -0.00470173      -0.00410756
H        3.84129340       5.32975840       3.96408576       0.00582031      -0.00409908      -0.00465462
H        3.46937291       5.64613901       5.67925903      -0.00220524      -0.00665732      -0.00629279
H        5.86422466       5.50090130       5.95806485      -0.00378079      -0.00072779       0.00524609
