150
Lattice="10.757478866424066 0.0 0.0 0.0 10.757478866424066 0.0 0.0 0.0 10.757478866424066" Properties=species:S:1:pos:R:3:forces:R:3 energy=-125624.453125 stress="-0.002713377121835947 0.0023185652680695057 -0.0009987361263483763 0.0023185652680695057 -0.0031026776414364576 -0.0006108131201472133 -0.0009987361263483763 -0.0006108131201472133 -0.0021767644211649895" pbc="T T T"
N        7.64189681       6.79742273       3.85471580      -0.00028599       0.00070651      -0.00057646
C        7.08125167       6.11009246       5.06201779      -0.00624979       0.00027162      -0.00366521
C        8.15373591       5.79239571       2.87866289       0.00593540       0.00158828       0.00205845
C        8.75874653       7.69693868       4.27272936      -0.00240713      -0.00003994       0.00503808
C        6.57436504       7.59481102       3.19380206       0.00323182      -0.00000456      -0.00677747
H        6.28018851       5.44733047       4.75104823      -0.00907072       0.00561716      -0.00722820
H        7.87493339       5.52866346       5.52025849      -0.01095274      -0.00570847      -0.00358106
H        6.72100575       6.87642049       5.74582322      -0.00350120      -0.00001708      -0.00213811
H        8.54179432       6.32882495       2.01420275       0.01055754       0.00208543       0.00458989
H        8.94394932       5.21779915       3.34969001       0.00432087       0.00336623       0.00651468
H        7.33362949       5.13919286       2.59049468       0.00892374       0.00019842      -0.00235923
H        9.16558947       8.18108709       3.38823429      -0.00201993       0.00447533       0.00795016
H        8.36033654       8.44952171       4.94731351      -0.00327405      -0.00344440       0.00788403
H        9.50186813       7.08931020       4.78500517      -0.00283164      -0.00227098       0.00258447
H        6.98664347       8.07080048       2.30747110       0.01027989       0.00464669      -0.00096148
H        5.78021950       6.90786632       2.90767002       0.00867638      -0.00170425      -0.01690133
H        6.22927551       8.36440902       3.87834604      -0.00698840      -0.00397769      -0.00760812
N        2.34972783       8.56939305       4.09471558       0.00004222       0.00614589       0.00681283
C        1.14183133       9.45639212       4.13011270       0.00074840       0.00675088       0.01010559
C        3.27346532       8.95216983       5.20484843       0.00177455       0.00375490       0.00609082
C        3.04338327       8.73285915       2.78865198      -0.00079128       0.00407613       0.00588620
C        1.92723544       7.14546329       4.25438373      -0.00397119       0.00745219       0.00551377
H        0.65869112       9.32413421       5.09389730      -0.00274400      -0.00208007       0.00709778
H        1.46997085      10.48440624       4.00805194       0.00079511       0.00771472       0.02049798
H        0.47683665       9.18233715       3.31572706       0.00315081       0.01292819       0.00634873
H        4.14123657       8.29895698       5.17936201      -0.00169237      -0.00050592       0.00866813
H        3.56851254       9.98747695       5.06086919       0.00708629       0.00156206       0.00350671
H        2.74250259       8.81930583       6.14238959       0.00106858       0.00825440       0.00616416
H        3.92225683       8.09716545       2.78299439      -0.00381856      -0.00000660       0.00416973
H        2.36015540       8.42534401       1.99915263      -0.00280479       0.00741784       0.00637744
H        3.32821264       9.77569978       2.67208604       0.00452814       0.00232625       0.00499097
H        2.80842749       6.50864835       4.20565439      -0.00651307       0.00446118       0.00478015
H        1.43868392       7.04311126       5.21934449      -0.00472306       0.00825561       0.00498495
H        1.24718461       6.90094966       3.44268304      -0.00479758       0.01187246       0.00504597
O        7.73592144       0.54944080       1.44355810      -0.00268775       0.00045586      -0.01162291
O        9.57783387       1.59797736      -0.17713608       0.01658070       0.01653990       0.01942146
O        9.22516605       2.71053852       2.20803217      -0.00170690      -0.01406020       0.02774405
O        7.32404553       2.94723535       0.31791348       0.01821578       0.01875794       0.01454985
Cr       8.45364948       1.95683748       0.94481377       0.00495204       0.00606066       0.01219422
O        4.28965406       6.02966545       1.04886836       0.00691950      -0.00596493       0.00219446
H        3.31526472       6.00168471       1.00846907       0.00776164       0.00117189       0.00747475
H        4.53311433       6.96571245       0.91230557       0.01227427      -0.00622038       0.00436741
O        1.17883115       2.83386278      11.43073140      -0.00537428      -0.00094801      -0.00992858
H        0.38392982       2.35384997      11.12404480      -0.00529136      -0.00572030      -0.01147260
H        1.55780262       3.28512588      10.65339699      -0.01364550       0.00770537      -0.00498266
O        5.62570260       4.44535333       7.24589211       0.00287999      -0.00776812      -0.00145747
H        6.32386312       3.80853197       7.52388375      -0.00107468      -0.01241437      -0.00080271
H        5.58536912       5.06363620       7.99081047       0.00984169      -0.00535978      -0.00779849
O        2.67812249       1.28459347       9.12211414       0.01272695      -0.00780956      -0.01933539
H        2.90299540       2.13311641       9.52697526       0.00798458      -0.00647191      -0.01707959
H        2.10296078       0.81926840       9.75754490       0.00854589      -0.00423700      -0.02292541
O        1.51520309       6.27213788       0.64152719      -0.00170895      -0.01426160      -0.01925492
H        1.64497633       6.96837201      -0.04958923      -0.00404622      -0.01443363      -0.02122051
H        0.84255118       5.66770556       0.27701156      -0.01619204      -0.00485533      -0.00819993
O        5.46147847       6.28994315       9.34872912       0.00374252      -0.00603735      -0.00244138
H        5.29945579       7.23288426       9.51183405       0.01250597      -0.00470899       0.00607469
H        5.12251343       5.88114244      10.17255933      -0.00350592      -0.00882530      -0.00828028
O       -0.57147643       3.44395766       8.29506664       0.00462237       0.00408360      -0.00502871
H       -0.28526505       2.51045295       8.20231934      -0.00933917      -0.00031713      -0.01287922
H       -0.46536423       3.69802990       9.22603368       0.02592795      -0.00402242      -0.00726343
O        9.76405256       9.46498450       1.49656361       0.01053462       0.00680853      -0.00512674
H        9.05504632      10.11757761       1.67041334       0.01235912       0.00981787      -0.01332724
H       10.49962156       9.97127189       1.09763968       0.01479348       0.00194823      -0.00359481
O        1.34078237      10.40741394       0.26613949       0.01319018       0.00854909      -0.00807157
H        1.67334097       9.61387089      -0.20946400       0.01062472       0.00684388      -0.00488391
H        1.95702443      10.62087440       0.98041814       0.01539266       0.01119279      -0.01004174
O        5.03116865       0.38599115       0.80660457      -0.00354131      -0.00370491      -0.00408509
H        5.88732064       0.58248016       1.23543146      -0.00530320      -0.01027217      -0.00222902
H        4.33820984       0.88022622       1.29433714      -0.00249293       0.00087730      -0.00567482
O       10.99907679       2.90240239       5.48178270      -0.01890036      -0.02695365      -0.00589117
H       10.88604398       3.60145988       4.83016631      -0.01676497      -0.01654276       0.00587587
H       10.11114004       2.61108051       5.77923964      -0.01906606      -0.02175457       0.00042236
O        5.07250462       0.17886495       8.68955062       0.01115875       0.00316826       0.00625908
H        4.14021485       0.48817871       8.63615581       0.00808604      -0.00393023       0.00853843
H        5.20394254       0.28569669       9.65129852       0.01033308       0.00110437       0.00685798
O        0.44784665       4.41295823       3.04646063      -0.00139408       0.00170266      -0.00158894
H        0.82576680       4.87700986       2.29062129      -0.01251127       0.00513134      -0.00503904
H       -0.09670254       3.69995867       2.64367227      -0.00291062       0.00093713       0.00261085
O        2.94914099       3.58024125       3.90507406       0.00207695      -0.00644486      -0.01129775
H        2.03541524       3.82696688       3.66090696       0.00151872      -0.00150391      -0.00598729
H        3.01967808       3.72299765       4.86576919       0.00942837      -0.00242676      -0.01274375
O        9.71127426       7.89486008      -0.59180358       0.00374408      -0.00473670       0.00135243
H        9.56254904       8.51309810       0.16720769       0.00910163       0.00342333      -0.00463360
H       10.28723065       7.21715153      -0.22405159      -0.00106975      -0.00546622       0.00813040
O        2.65117115       4.07490057       9.49366738       0.00340609      -0.00006288      -0.00928411
H        2.68645331       4.05733790       8.51103267      -0.00022643       0.01924231      -0.00655518
H        2.91672138       4.96069478       9.75654964       0.00262352      -0.00586177       0.01009995
O        6.39234483       9.16766634       6.75255464      -0.00645986       0.01808137       0.00348988
H        5.85897529       9.68812648       7.37741655      -0.00588399       0.01723350       0.00172788
H        6.40726440       9.69359953       5.91450820       0.00050424       0.02107430       0.00461825
O        9.94657351       5.69161049       6.82347495       0.00503447       0.01152039      -0.00665832
H       10.24782212       4.81485282       7.13609497       0.02006751       0.01442116      -0.01003581
H        9.21606641       5.87959419       7.44520846       0.01663692       0.00623379       0.00497806
O        5.32579979       3.19255879       2.62397400       0.00754228      -0.00648070      -0.00819868
H        4.45710907       3.55128260       2.87390175       0.01552632       0.00336765      -0.00281585
H        5.53138988       3.45462870       1.72040659       0.00926062       0.00089266      -0.00771269
O        2.79810659       1.31152477       2.10680620      -0.00850123      -0.00479002       0.00007787
H        2.21301244       1.90234629       1.56351779      -0.00716452      -0.00228802       0.00263278
H        2.99840348       1.84914573       2.89072586      -0.00669264      -0.00753425       0.00201962
O        8.64252283       1.71486247       6.15698742      -0.02101576       0.00734051       0.00486580
H        8.23995730       1.77085985       7.03832205      -0.02922513       0.00773555       0.00206810
H        8.02336764       2.18901891       5.54083304      -0.01763325       0.00526472      -0.00124539
O        5.25597910       8.52372252       0.26997719      -0.01349412      -0.00321140      -0.01276674
H        4.94984805       9.42132470       0.53574802      -0.01566024      -0.00364231      -0.01547559
H        6.14059442       8.75596495      -0.08753734      -0.00910137      -0.00396894      -0.00262672
O        3.08675811       3.85044736       6.79813503       0.00221521       0.01092820      -0.02004351
H        4.07339255       3.86472580       6.91769975       0.00174143       0.00339361      -0.01500322
H        2.80059319       2.91211325       6.73286171      -0.00388847       0.01173564      -0.00735456
O        7.48134481       9.75873859       9.96668617      -0.00202157      -0.01674655       0.01021288
H        7.67169620      10.33641832      10.74166724      -0.01030419      -0.01221856       0.00960083
H        7.06013610      10.34656715       9.32668949      -0.00269716      -0.02206665       0.00618262
O        8.97174768       9.41327245       7.61232289      -0.00442849      -0.00195540       0.00209557
H        8.80592441       9.27938347       8.56011356       0.01382978       0.01078122       0.00601780
H        8.07293904       9.33498363       7.21585991      -0.01218479      -0.01554883       0.01981939
O        9.89986345       4.90112488      -0.07346493       0.00545372      -0.00040771       0.00808281
H        9.14079802       5.22949868      -0.61498437       0.00575720      -0.00831686       0.00312984
H        9.52150538       4.34563095       0.62062969       0.00858073      -0.01528640      -0.00420170
O        7.50133795       2.83343908       8.34538603       0.00208535       0.00302313       0.01296477
H        8.42039308       3.18550896       8.33233079      -0.00293379       0.01006617       0.00508107
H        7.29252572       2.78255911       9.30093081       0.00573584       0.01250640       0.01542729
O        8.20634677       6.11734947       8.97767878       0.00985253      -0.00425074      -0.00084188
H        7.24168898       6.15246854       9.11201850       0.00800799      -0.01594352      -0.00496437
H        8.57702579       6.94579216       9.36630381      -0.00139134      -0.00400956       0.00708247
O        9.30997428       0.21595498       4.04758671      -0.02811694      -0.01157491       0.00785931
H        9.23219874       0.61999742       4.93405443      -0.03306061      -0.00791925       0.00363222
H        9.44917522       0.97359118       3.46033790      -0.00475360      -0.01506478       0.00673598
O        7.45078756       3.01462536       4.26686079      -0.00033547       0.01000769       0.00734989
H        8.08300192       2.90792858       3.52819311       0.01437165      -0.00111265       0.02073476
H        6.57770819       3.01575744       3.82643546       0.00817895      -0.01628187      -0.00920638
O        1.97520001       8.19311098       9.53816940      -0.01075429      -0.01990080      -0.00147849
H        2.81664592       7.97040764       9.12115932      -0.01751957      -0.02370556      -0.01132713
H        1.34170945       8.14922718       8.75651211      -0.01450892      -0.01754010       0.00225616
O        3.20378283       6.61658029       7.35332383       0.01632191       0.00478961      -0.00900690
H        2.82564267       5.76082229       7.09947415       0.02657794       0.00615140       0.00143811
H        4.13950990       6.41707926       7.45906257       0.01196462       0.01768919       0.02299121
O       -0.02578393       0.73055882       8.21525805      -0.01006934       0.00511537      -0.00681869
H       -0.68199766       0.15593346       7.78182567      -0.01823635       0.01066504      -0.00202988
H       -0.32513753       0.75773061       9.14154198       0.01071735      -0.00692889      -0.00087948
O        2.19442383       1.29676764       6.30122809       0.00129940       0.01381785       0.00443219
H        1.46191295       1.77784422       5.85056624      -0.00778898       0.00492651       0.00994936
H        1.83420692       1.06138068       7.17370140       0.00824424       0.00390659       0.00468587
O        6.49445138      10.50478326       4.40916484      -0.02391868       0.00603099      -0.01031573
H        7.38848947      10.77691433       4.12403447      -0.02035644      -0.00429923      -0.00919975
H        6.04501907      11.30399489       4.74032452      -0.00670148       0.00718357       0.01002621
O        4.98304467       1.44650171       5.96142067       0.00842736       0.00001336       0.02130228
H        4.01696865       1.34481270       6.03803047       0.00683378       0.00016007      -0.00603858
H        5.31836133       1.28857263       6.85460915      -0.01801232       0.00118493       0.03187118
O        0.51961183       8.01291844       7.34282524       0.00518233      -0.00036857      -0.01408559
H       -0.31395549       8.52614767       7.41201206       0.01510547       0.01258267      -0.00205470
H        0.19091915       7.09432645       7.21815047      -0.01302383       0.00594649      -0.01905864
