146
Lattice="10.923595695768784 0.0 0.0 0.0 10.923595695768784 0.0 0.0 0.0 10.923595695768784" Properties=species:S:1:pos:R:3:forces:R:3 energy=-64469.0 stress="-0.0008517644018866122 0.0005199208972044289 -7.028017716947943e-05 0.0005199208972044289 -0.002738669514656067 -0.0012700639781542122 -7.028017716947943e-05 -0.0012700639781542122 -0.0020669458899646997" pbc="T T T"
N        7.37077064       7.79178322       8.56980982      -0.00091401      -0.00201291      -0.00058011
C        6.08201742       7.08802769       8.93693831      -0.00269818       0.00123192      -0.00119677
C        7.65428955       7.69724484       7.08081149      -0.00115407      -0.00098863      -0.00057846
C        8.51399939       7.14084917       9.32476666      -0.00251502      -0.00580382      -0.00164077
C        7.22983310       9.25113350       8.96053274       0.00279200      -0.00224859       0.00088060
C        6.04019956       5.62109205       8.60198019      -0.00785636       0.00232044      -0.00384831
C        6.51100647       8.10779876       6.17717485       0.00026262       0.00277966      -0.00030425
C        9.80649917       7.92292788       9.29340006      -0.00140530      -0.00789422       0.00076676
C        6.96037968       9.48170505      10.42262889       0.00036611      -0.00345555       0.00054234
H        5.97421685       7.23981186      10.00928922      -0.00128953      -0.00033634      -0.00068575
H        5.28563674       7.64300053       8.43960291      -0.00104192       0.00436561       0.00050545
H        8.52839820       8.32528210       6.91102323       0.00025997      -0.00289483       0.00016897
H        7.94700692       6.66407854       6.89139700      -0.00349489      -0.00142732      -0.00159734
H        8.16521693       6.99615421      10.34679439      -0.00329439      -0.00702627      -0.00215578
H        8.64296428       6.16003954       8.87376171      -0.00427580      -0.00522944      -0.00327386
H        8.14482663       9.74795313       8.64051535       0.00456551      -0.00444078       0.00336888
H        6.41257427       9.63341587       8.35529492       0.00514176       0.00102185       0.00012879
H        5.05331035       5.24352211       8.86799450      -0.00707518       0.00404771       0.00089737
H        6.20565928       5.40661542       7.54824033      -0.01308290       0.00410456      -0.00510615
H        6.76929486       5.04472285       9.16890885      -0.00631951       0.00000851      -0.00912365
H        6.87657572       8.11422950       5.14957025       0.00033723       0.00296695      -0.00019282
H        5.67658362       7.40707395       6.21943473      -0.00147091       0.00496909      -0.00101977
H        6.14244183       9.11153714       6.38548068       0.00254542       0.00329755       0.00074870
H       10.55827573       7.32729536       9.81350939      -0.00262383      -0.01045406      -0.00064523
H       10.17979069       8.09277894       8.28345350      -0.00106004      -0.00572405       0.00130081
H        9.73444200       8.88052130       9.80857410      -0.00020154      -0.00925079       0.00316580
H        7.16314141      10.53219232      10.63331512       0.00403781      -0.00447029       0.00218498
H        5.93322506       9.26856620      10.70891908      -0.00095105       0.00015787      -0.00218433
H        7.62673582       8.91951466      11.07529106      -0.00356616      -0.00713839       0.00125463
N        2.56690297       6.19708706       1.76470795       0.00217101      -0.00007986      -0.00173430
C        3.63945626       5.16622376       2.07344029       0.00151914       0.00010794      -0.00001234
C        1.48365278       5.61921451       0.86071833       0.00231692      -0.00032914      -0.00147015
C        3.23327267       7.37410070       1.06897327       0.00279498      -0.00142446      -0.00283316
C        1.91653890       6.63152254       3.06024722       0.00164032       0.00213830      -0.00288379
C        4.34363670       4.60309158       0.86258044       0.00441951       0.00126213       0.00133118
C        0.89785213       4.29281335       1.29751851       0.00335057      -0.00088382      -0.00180387
C        2.37579991       8.60468006       0.89017489       0.00396785      -0.00095704      -0.00438752
C        2.84188201       7.26766155       4.07284560       0.00137311       0.00187288      -0.00274029
H        4.36666623       5.67219651       2.70433663      -0.00006932      -0.00021650       0.00177804
H        3.14536762       4.38393967       2.65009300       0.00033438      -0.00022317      -0.00168236
H        0.70943853       6.38531165       0.81938511       0.00303048       0.00025922      -0.00096089
H        1.93521765       5.53932873      -0.12877379       0.00164482      -0.00025962      -0.00159279
H        4.12887730       7.60390565       1.64684056       0.00285125      -0.00165737      -0.00302729
H        3.55110741       6.98887929       0.10167057       0.00261948      -0.00265527      -0.00223503
H        1.11347664       7.31398042       2.78466602       0.00309299       0.00306705      -0.00447969
H        1.45442719       5.73604650       3.47097258      -0.00032036       0.00355804      -0.00238253
H        5.07474712       3.87667717       1.21491356       0.00256361      -0.00007510       0.00198752
H        3.68021868       4.09977283       0.16083371       0.00599158       0.00359693      -0.00163596
H        4.91019970       5.36352887       0.32961431       0.00717773       0.00152861       0.00486194
H        0.04826407       4.04166199       0.65756511       0.00161976       0.00005716       0.00023690
H        1.61510160       3.47557697       1.22650565       0.00334716      -0.00053202      -0.00523914
H        0.48741731       4.31012959       2.30647165       0.00694582      -0.00257032      -0.00043525
H        2.97897457       9.34242331       0.35980367       0.00389959      -0.00305915      -0.00709063
H        1.47493166       8.42253749       0.30445072       0.00313024      -0.00111758      -0.00286122
H        2.08949406       9.05850657       1.83749797       0.00578531       0.00160147      -0.00524554
H        2.21937128       7.59823066       4.90407034       0.00076355       0.00637947      -0.00519615
H        3.59083678       6.57482158       4.45430401      -0.00187699       0.00061169       0.00083313
H        3.35664693       8.14611750       3.68398349       0.00516530      -0.00105637      -0.00399207
O        8.71889219       1.21126559      -0.29606857       0.00008643      -0.00550067      -0.00130725
O        8.85987109       2.88795789       1.14492743      -0.01336110       0.02101111      -0.03317368
O        7.39700713       1.25372690       1.48910060      -0.00141168       0.01706922      -0.00295866
C        8.33159108       1.79282668       0.77568366      -0.00494510       0.00952620      -0.01316225
O        0.41459018       8.94847302       6.17220096      -0.00359559       0.00621137      -0.00646812
C        1.56252313       9.68295057       6.66494263      -0.00015073       0.00194055       0.00000386
C        1.87401051      10.84787617       5.74706645      -0.00257972       0.00498706       0.00234970
C        1.36878953      10.09763805       8.11152234      -0.00570518       0.00054915      -0.00043398
H        2.38736402       8.96336959       6.61904833       0.00014719       0.00549290       0.00058857
H        2.75126277      11.38735714       6.10398863      -0.00494534       0.00688509       0.00628705
H        2.04952926      10.50054160       4.72675930       0.00200678       0.00702670       0.00251496
H        1.04207294      11.55741121       5.73369915      -0.00401273       0.00236341       0.00093411
H        2.21540548      10.69233533       8.45359919      -0.00760309       0.00133345       0.00252739
H        1.26127950       9.22113100       8.74935849      -0.00526865      -0.00109239      -0.00200013
H        0.47260655      10.71083945       8.22839128      -0.00691237      -0.00197942      -0.00149011
H       -0.21313348       9.60367589       5.84505809       0.00459588      -0.00540131       0.00011580
O        5.24311060      -0.38818782       1.69781376       0.01991761      -0.00101550       0.00669730
C        4.38498462       0.14738074       2.70221352       0.01089761      -0.00253069      -0.00069588
C        5.19578530       0.75978724       3.82691133       0.00094390      -0.00115970       0.00513089
C        3.39128829       1.14695871       2.12169280       0.01361758      -0.00455868      -0.00789201
H        3.81983990      -0.70993616       3.08841015       0.00988013      -0.00361252      -0.00507537
H        4.54817583       1.22105953       4.57258570      -0.00527059      -0.00284029       0.00047861
H        5.80974764       0.00141251       4.31591753      -0.00123604      -0.00007401       0.00891871
H        5.86466589       1.51626312       3.41652368       0.00163591       0.00060353       0.00998363
H        2.69409255       1.48645748       2.89360611       0.00548662      -0.00857123      -0.01388696
H        2.81554218       0.71236387       1.30338488       0.02293627      -0.00429694      -0.01419355
H        3.92627028       2.01590657       1.73593511       0.01400989      -0.00179458      -0.00049016
H        5.94814440       0.27781689       1.49985580       0.01442775       0.00454451       0.00385831
O        7.73787111       8.88646614       2.84840911      -0.00566018      -0.00247917       0.00465044
C        9.06135525       9.37576446       3.13596842      -0.00719675       0.00126129       0.00373780
C        9.85351437       9.61079565       1.86293141      -0.00571170      -0.00232950       0.00432706
C        8.99366681      10.61598616       4.00417188      -0.00939739       0.00445235      -0.00127339
H        9.53007874       8.56422289       3.70413224      -0.00646128       0.00418627       0.00736478
H       10.85642474       9.96992015       2.10627591      -0.00475349      -0.00569136       0.00544503
H        9.94799075       8.68016774       1.29761386      -0.00789440      -0.00311449       0.00547041
H        9.37609244      10.36405279       1.23260165      -0.00267778      -0.00134948       0.00318590
H       10.00118811      10.95494874       4.26230939      -0.01011479       0.00659508      -0.00170300
H        8.44055174      10.40419200       4.92263856      -0.00923806       0.00799317      -0.00070114
H        8.49622345      11.42718648       3.46602575      -0.00976472       0.00163037      -0.00511120
H        7.20821629       9.60168560       2.45789028      -0.01066441      -0.00508088       0.00562816
O        2.87458611       4.36000942       8.60214229      -0.00848341      -0.00452724       0.00243405
C        2.55381037       5.06319987       7.37975642      -0.00039536      -0.00286271       0.00165112
C        2.03284750       4.09028984       6.33978697      -0.00056416       0.00037360      -0.00082672
C        1.59190906       6.19125228       7.68989434       0.00437206       0.00181156      -0.00232355
H        3.51158017       5.47346760       7.04689166       0.00281972      -0.00753330       0.00560191
H        1.77572632       4.61368068       5.41683428       0.00622830       0.00202759      -0.00156879
H        2.77497035       3.32241375       6.11788452      -0.00364654      -0.00314586       0.00210593
H        1.13137925       3.59318233       6.70415273      -0.00458579       0.00498271      -0.00506431
H        1.27083186       6.72213917       6.79394963       0.01233833       0.00426780      -0.00340213
H        2.04807666       6.91286301       8.37144624       0.00434357      -0.00153739       0.00098397
H        0.69679162       5.79295032       8.17114978      -0.00054935       0.00657771      -0.00803986
H        2.05807728       3.93260537       8.89445022      -0.01185256      -0.00197594      -0.00158729
O        7.81465885       3.58913793       7.08107225       0.02120927       0.02700567      -0.01911539
C        8.79313601       2.74829997       7.72778856      -0.00192535       0.00437307       0.00999287
C        9.54062985       1.93727975       6.69387802      -0.00748351       0.00709134       0.00127980
C        9.71117862       3.59798590       8.58496614       0.00624430      -0.01079011       0.01445770
H        8.24637276       2.08062095       8.39374915      -0.00710776       0.00836471      -0.00100902
H       10.29247336       1.31050534       7.17432595      -0.01668806      -0.00753744      -0.00116318
H        8.85634210       1.29991142       6.13493359      -0.01314840       0.01874921      -0.00508266
H       10.05532474       2.58879136       5.97834449       0.00298361       0.00427884       0.00895358
H       10.47998482       2.97470963       9.04712765      -0.00367755      -0.02261876       0.01361180
H        9.15512819       4.05587792       9.40394375       0.00768746      -0.01159719       0.01765773
H       10.17201755       4.37098092       7.96514647       0.01625162      -0.01168560       0.02285112
H        8.08719240       3.69993561       6.16409106      -0.00682263       0.00489182       0.03280795
O        3.52828080       1.60728936       8.40296727      -0.00201529      -0.00305271      -0.00024185
C        4.85819723       1.11694659       8.61275606      -0.00170332      -0.00044730       0.00146870
C        5.56239178       0.97080767       7.27314777       0.00257501       0.00569799       0.00326347
C        5.62251209       2.00649582       9.56468440      -0.00613016      -0.00214344       0.00577277
H        4.72610113       0.12855635       9.07135267       0.00004499      -0.00249517      -0.00248259
H        6.59497542       0.63636276       7.39331271       0.00206886       0.00548695       0.00533427
H        5.03133347       0.26314563       6.63588174       0.00484900       0.00842369      -0.00122721
H        5.60197258       1.93448581       6.76219084       0.00341255       0.00785761       0.00743267
H        6.61860625       1.61631245       9.77351998      -0.00481680       0.00077308       0.00397036
H        5.09453099       2.09637793      10.51225138      -0.00634214      -0.00842583       0.00603291
H        5.73892971       2.99824058       9.12379453      -0.01030345       0.00009282       0.01020913
H        3.57174817       2.57545174       8.37554448      -0.00528373      -0.00279010       0.00536097
O        6.55367569       6.31283268       3.04055992       0.00227502      -0.00416893      -0.00505880
C        7.27288236       5.40493381       3.88313701       0.00412178      -0.00051075      -0.00364962
C        6.75655099       4.01192922       3.60245085       0.00074425      -0.00083232       0.00567558
C        8.77227912       5.49831313       3.64906345       0.00299937      -0.00500436      -0.01098451
H        7.05985585       5.65327881       4.93725671       0.00908084       0.00533547      -0.00418842
H        7.20914621       3.28584428       4.28157588       0.00045761       0.00266958       0.00985029
H        5.67577607       3.96250625       3.74930968       0.00117196       0.00198471       0.00761487
H        7.01901398       3.69960860       2.59091931      -0.00164464      -0.00760986       0.00738594
H        9.30284834       4.79768206       4.30085378       0.00497340       0.00127774      -0.00603520
H        9.14236754       6.50321500       3.86586921       0.00500052      -0.00355294      -0.02280292
H        8.99759277       5.22794949       2.61599954      -0.00239523      -0.01579410      -0.00906083
H        7.01893552       7.16813402       3.01292691      -0.00001320      -0.00236492      -0.00391526
