134
Lattice="13.335646084550868 0.0 0.0 0.0 13.335646084550868 0.0 0.0 0.0 13.335646084550868" Properties=species:S:1:pos:R:3:forces:R:3 energy=-818076.3125 stress="-0.00022589506988879293 -3.585461101351939e-06 0.00033188181987497956 -3.585461101351939e-06 3.8747075450373814e-05 -0.00014980573178036138 0.00033188181987497956 -0.00014980573178036138 0.0004375685821287334" pbc="T T T"
Tm       3.65633105      11.33391499       3.01506318       0.01277196       0.00106013      -0.00598748
Tm       4.46756353      13.37522233       6.46217327       0.00163905      -0.02271044       0.01280060
O        4.06643066      14.70644740       4.68092417      -0.00135943      -0.00755972       0.02368820
O        3.56699177      13.55121336       2.77904064       0.01437538       0.00675678       0.01028740
O        3.07480706      12.72668329       4.77768300       0.01217455      -0.01558155       0.00099081
C        3.56015439      13.73543864       4.03636444       0.00825533      -0.00537732       0.01182271
O        6.76262345      11.15705528      12.13964351      -0.01402903       0.01802051      -0.00301290
O        6.26823047      12.68989016      10.64927972      -0.01323009       0.00555253      -0.01642466
O        4.72641774      11.94555391      12.03224360      -0.01261663       0.02022405      -0.01003850
C        5.92360307      11.93939510      11.60677025      -0.01354754       0.01437609      -0.00932242
O        5.94741299      12.10719470       5.88595846      -0.00015339      -0.02436548       0.00262743
O        6.48763698       9.93048584       5.77425812      -0.00235915      -0.03385937      -0.00148302
O        5.26635427      10.88457987       4.15709246       0.01602608      -0.00756285      -0.01191413
C        5.94792680      10.91341407       5.30465113      -0.00385427      -0.00735551      -0.00959581
C        4.00211153       7.29475215       8.49222708      -0.00292730      -0.00821520       0.00065473
C        2.72895356       6.65768771       7.95110678      -0.00286180      -0.01168719       0.00348997
C        3.74686771       8.26811723       9.63620820      -0.00098893      -0.01705472       0.00921863
C        2.98922546       5.53370961       6.95634627      -0.00353909      -0.00407763      -0.00549400
C        4.98543186       9.04470223      10.05494739      -0.00280428      -0.01179379       0.00538039
C        1.71741734       4.95891880       6.34931852      -0.00422388      -0.00432146      -0.00424387
H        4.68544507       6.51080769       8.84044011       0.00456648      -0.00603443      -0.00909667
H        4.52929278       7.81154472       7.68072299      -0.01136920       0.00047107       0.00044963
H        2.11252111       7.43286611       7.47663965      -0.00817667      -0.01235771       0.00927849
H        2.12976147       6.27176095       8.78444529       0.00250570      -0.01829401       0.00441092
H        2.95184391       8.96344043       9.34629772      -0.00796571      -0.02063382       0.01981728
H        3.34213438       7.71427100      10.48975750       0.00927334      -0.02591078       0.00856075
H        3.64238614       5.89954563       6.15797547      -0.00912490       0.00572672      -0.00563911
H        3.55128988       4.74136949       7.46225033       0.00171411      -0.00690699      -0.01565510
H        5.75910226       8.37407153      10.43278259       0.00499748      -0.00955819      -0.00665881
H        4.76268728       9.76857136      10.83707273      -0.00065885      -0.01886427       0.01286724
H        5.41915095       9.58622093       9.21040467      -0.01349860      -0.00212350       0.00597788
H        1.03455491       4.60816121       7.12646403       0.00007543      -0.01145534      -0.00363447
H        1.18610242       5.71770443       5.77075078      -0.00975318      -0.00352062       0.00196802
H        1.93175734       4.12224427       5.68235694      -0.00375517       0.00013502      -0.00963295
C        2.86154239      10.85810215       7.08323394      -0.01118243      -0.00451475       0.01424607
C        1.72699224      10.46359310       6.13889744      -0.00821084       0.00342321       0.00730686
C        2.57722886      12.11807804       7.90261854      -0.00994772      -0.00197794       0.01084240
C        2.19553730       9.57182218       4.97907362      -0.00590831       0.01134217       0.00246751
C        3.77009031      12.54230757       8.79142780      -0.01341656      -0.00472152       0.01591408
C        1.39223587       9.78801486       3.69249908       0.00063890       0.02641747       0.00097340
H        3.13160772      10.04050043       7.75153439      -0.02123179      -0.00547716       0.01737142
H        3.76484350      11.01517218       6.47963935      -0.00543948      -0.01215596       0.02016771
H        1.29722828      11.37692812       5.72087973      -0.00509967       0.00712577       0.01217541
H        0.92506858       9.97155788       6.69691270      -0.01112501       0.00124152       0.00117682
H        2.27323360      12.91576029       7.19791079      -0.00447877      -0.00180992       0.00859556
H        1.69162666      11.98055775       8.52384554      -0.01321772       0.00135580       0.00685668
H        3.26882083       9.75053421       4.81074700      -0.00499541       0.01106375       0.00812728
H        2.15193328       8.51256136       5.24920972      -0.01044355       0.00914893      -0.00671653
H        4.72420446      12.09737040       8.46632545      -0.01138131      -0.00269990       0.01896685
H        3.68057109      12.21525919       9.82783043      -0.01651969      -0.00980692       0.01388657
H        3.89637478      13.63658180       8.85815920      -0.01420776      -0.00536600       0.02075728
H        0.34879570       9.49189159       3.82344239      -0.00424278       0.04198214      -0.00238774
H        1.34025194      10.85443936       3.41501313       0.01710019       0.02815214       0.00554895
H        1.77500736       9.20060846       2.85028227      -0.00548972       0.02326080       0.00023705
C       10.02853501       7.27523903       8.78363001      -0.00382912       0.00221789       0.00252173
C        9.82508238       8.77560686       8.95104715      -0.00626779       0.00220990      -0.00090347
C        8.73786404       6.47244538       8.89488472      -0.00304908       0.00053586      -0.00088470
C       11.11570808       9.57366139       8.80182301      -0.00591427       0.00282133       0.00488600
C        8.95989277       4.97370972       8.74158689      -0.00039613       0.00072610       0.00154434
C       10.91733591      11.06219204       9.05102283      -0.00777283       0.00334227       0.00019482
H       10.49155447       7.07583909       7.80961594       0.00034353       0.00099487       0.00474194
H       10.74380028       6.91758515       9.53546979      -0.00624888       0.00460154       0.00608101
H        9.38685291       8.97917972       9.93433653      -0.01171204       0.00345149      -0.00370312
H        9.09145986       9.13040005       8.21907412      -0.00285515       0.00044380      -0.00555396
H        8.26899238       6.68062719       9.86207233      -0.00651971       0.00095773      -0.00263849
H        8.03083679       6.82438003       8.13683431      -0.00110298      -0.00128287      -0.00369662
H       11.86724379       9.18015785       9.49563864      -0.01009692       0.00471479       0.01056263
H       11.52070190       9.41577894       7.79533061       0.00051890       0.00049809       0.00783482
H        9.42458007       4.74373540       7.78003912       0.00243424       0.00021221       0.00294802
H        8.02323215       4.41636900       8.79700367       0.00043829      -0.00073100      -0.00001087
H        9.62249890       4.59312073       9.52268139      -0.00162400       0.00281257       0.00369664
H       10.19577005      11.48197673       8.34822885      -0.00222844       0.00201100      -0.00645730
H       10.53008128      11.23902979      10.05565265      -0.01567559       0.00554409      -0.00326478
H       11.85051981      11.61883112       8.94582187      -0.00696340       0.00303779       0.00637270
C        5.80384123       7.92971909       2.71777832       0.00696325      -0.00112307      -0.00994148
C        5.60830203       6.80086438       3.72354880       0.00341034       0.00454313      -0.00403313
C        4.50733811       8.36585459       2.04616036       0.00418344       0.01532248       0.00559529
C        6.89207687       6.47623962       4.47609577       0.00317639      -0.00334316      -0.00688152
C        4.66275132       9.61396042       1.17091656       0.01319984       0.00129886      -0.01240608
C        6.75434299       5.32467726       5.46226476      -0.00445389      -0.00020820      -0.00415319
H        6.22479388       8.78807212       3.24728007       0.02482560      -0.00473806      -0.01816425
H        6.53249240       7.63356836       1.95574382      -0.00708066      -0.01377833      -0.01862681
H        5.22535691       5.90251963       3.22370315      -0.00560887       0.00541931       0.00123537
H        4.84080132       7.10076072       4.44777518       0.00902389       0.01323685      -0.00157434
H        4.09116489       7.55157987       1.44376508      -0.02228105       0.01515055       0.02364941
H        3.77303494       8.53484263       2.84736676       0.02191372       0.04106377       0.01700747
H        7.67834342       6.24062265       3.75075030       0.00036329      -0.01082432      -0.00757125
H        7.21446577       7.38091755       4.99873499       0.01049815      -0.00462025      -0.00889960
H        5.33806812      10.34834541       1.63428769       0.01807018       0.00384185      -0.02408960
H        3.69780809      10.08224414       0.90676459       0.01672682       0.00558596      -0.01748429
H        5.13826404       9.41436490       0.20873192       0.01014246      -0.01734441      -0.01024249
H        6.04092723       5.56590913       6.25268917      -0.00494361       0.00582797      -0.00641067
H        6.40524921       4.41622159       4.96481173      -0.00860154       0.00046939      -0.00253969
H        7.70845064       5.09866724       5.94206406      -0.00679602      -0.00429723      -0.00157295
C        9.39327747       9.64121402       3.84850144       0.00836140       0.00259966      -0.00652640
C       10.65207980       8.91916022       4.31138535       0.00613880       0.00121385      -0.00250707
C        9.65232925      11.10361686       3.50224412       0.01297829       0.00089109      -0.01061265
C       10.43118200       7.45374249       4.66402013       0.00416785       0.00206262      -0.00051643
C        8.43651169      11.81160864       2.92159486       0.01496029       0.00362165      -0.01116918
C       11.71747518       6.73315223       5.04294241       0.00322703       0.00218599       0.00309992
H        8.98520580       9.12807729       2.96894354       0.00838142       0.00131576      -0.00565460
H        8.61927486       9.57873496       4.61942516       0.00684097       0.00630461      -0.00744751
H       11.07113841       9.44202115       5.18083563       0.00532565       0.00231211      -0.00288397
H       11.41141996       8.98399877       3.52091062       0.00753284      -0.00124721      -0.00151590
H        9.98313072      11.62610586       4.40631120       0.01714817       0.00201042      -0.01266652
H       10.48542221      11.16398736       2.79280894       0.01205623      -0.00445007      -0.01211438
H        9.70637871       7.38534755       5.48162448       0.00264360       0.00369808      -0.00159654
H        9.96675685       6.94824523       3.81076712       0.00546853       0.00090811      -0.00050324
H        8.09696304      11.33592198       1.99913687       0.01230116       0.00175375      -0.00925632
H        8.65283434      12.85561249       2.69244826       0.01925039       0.00193697      -0.01526374
H        7.60712797      11.79638666       3.62733696       0.01544379       0.00929163      -0.01022570
H       12.42547359       6.73645288       4.20992316       0.00541896       0.00218144       0.00492491
H       12.20703195       7.21718092       5.89195034       0.00105117       0.00259504       0.00416492
H       11.53766355       5.69187034       5.31670350       0.00272924       0.00227299       0.00297736
C        9.12519356       5.94309311       0.72044589       0.00293925      -0.00088862      -0.00112690
C       10.63387942       6.14536812       0.76197213       0.00287059      -0.00065765       0.00005555
C        8.69274776       4.48959550       0.87084941       0.00237954      -0.00053644       0.00039408
C       11.04145903       7.60681319       0.61477761       0.00225705      -0.00058120      -0.00107548
C        7.17919051       4.32173686       0.86184358       0.00232309      -0.00008988      -0.00171156
C       12.54621950       7.81740551       0.71053139       0.00200653       0.00058340      -0.00067049
H        8.66197899       6.54137725       1.51358166       0.00219524       0.00036711      -0.00243378
H        8.73352697       6.34153760      -0.22211974       0.00392129      -0.00213601      -0.00209558
H       11.10609068       5.55279260      -0.03070914       0.00380994      -0.00126669       0.00101990
H       11.02710203       5.75321217       1.70803903       0.00219553       0.00036247       0.00078240
H        9.13721768       3.89690335       0.06447950       0.00343943      -0.00185546       0.00186518
H        9.10151324       4.08721997       1.80380638       0.00095344       0.00062212       0.00157598
H       10.67351389       7.98924241      -0.34277003       0.00215778      -0.00158257      -0.00146320
H       10.53790613       8.19766779       1.38618539       0.00172292      -0.00031294      -0.00156987
H        6.72342033       4.86751151       1.69006405       0.00113034       0.00075850      -0.00287804
H        6.88625513       3.27505050       0.95286517       0.00171211       0.00016689      -0.00133242
H        6.74785080       4.71028468      -0.06319066       0.00389186      -0.00077385      -0.00274976
H       12.92887798       7.45455644       1.66780529       0.00141018       0.00212490       0.00013117
H       13.07234575       7.27430112      -0.07768597       0.00286761      -0.00016706       0.00040533
H       12.81078592       8.87268483       0.62208908       0.00140152       0.00067633      -0.00196740
