137
Lattice="13.084464934403497 0.0 0.0 0.0 13.084464934403497 0.0 0.0 0.0 13.084464934403497" Properties=species:S:1:pos:R:3:forces:R:3 energy=-461070.09375 stress="0.001880731899291277 0.0003314588248031214 0.00019718932162504643 0.0003314588248031214 1.38007171699428e-05 -0.000254921309533529 0.00019718932162504643 -0.000254921309533529 -0.00012295904161874205" pbc="T T T"
V        2.32627442      12.10305861       5.52056784       0.01053955       0.00278777       0.00158365
V       10.56628729      12.77975188       8.59292321      -0.01179439      -0.01787233      -0.03209978
O       11.18126067      11.53066235       5.54992423       0.02280462      -0.03724693      -0.02383405
O       12.24930532      10.18650516       7.77902178       0.01739965      -0.01342082      -0.00721240
O       11.93333935      13.49218636       7.94813370      -0.02105713      -0.00664896      -0.03710598
O       13.93604572      12.14816456       6.41436154       0.01104009      -0.00390241       0.00010527
Mo      12.11975689      11.68962511       6.95846209       0.00816804      -0.01599991      -0.01597607
O        3.82778131      12.18238424       6.33836541       0.01399261      -0.00551745      -0.00291914
O        4.54757148      10.29952146       8.51650159       0.02944201      -0.00138009       0.00370795
O        5.32357993      12.98985711       8.77086564      -0.01382929      -0.00073516      -0.01161718
O        6.76386122      11.30265361       7.07754200       0.02847278       0.03552094       0.00822443
Mo       5.18010611      11.67616464       7.68503783       0.01580644       0.03881073       0.01384938
O        1.51383548      10.70441213       1.96285608      -0.02585232       0.01213539       0.01060921
O        2.23563265      12.79573712       3.97752998       0.01058961       0.00841072       0.00540170
O        1.64188755      13.35977468       0.98531077      -0.02125025       0.01707220       0.01889384
O        4.01098650      11.95723799       1.68219596      -0.02119374       0.00615138      -0.01827973
Mo       2.34624065      12.21361773       2.05453306      -0.02149667       0.02078933      -0.00183344
O        7.03470902      11.55455126      10.85727817       0.00042701      -0.00366664      -0.00248900
C        8.18650242      10.80111068      10.61996755      -0.00530756      -0.00877008      -0.00962716
C        6.04764361      10.83031948      11.60505250       0.00089914       0.00169061       0.00227187
C        9.10350498      11.62682161       9.74006872      -0.01019104      -0.01486756      -0.02121864
C        4.76619271      11.61863939      11.63722618       0.00276268       0.00416943       0.00327911
H        8.70113903      10.53185495      11.55689707       0.00114375      -0.00844686      -0.01273060
H        7.94124662       9.86639532      10.09380103      -0.01424569      -0.01031211      -0.00392196
H        5.88989114       9.85761063      11.11773895      -0.00239977       0.00021082       0.00502187
H        6.43343135      10.65216382      12.61825340       0.00317156       0.00295399       0.00199819
H       10.04009272      11.05847899       9.53482264      -0.01476112      -0.01968908      -0.02853131
H        8.60211869      11.86704097       8.77602137      -0.01919898      -0.01521146      -0.01636833
H        9.38388960      12.58135534      10.24409660      -0.00484112      -0.01466245      -0.02487820
H        4.03107447      11.08202592      12.23522930       0.00268980       0.00792171       0.00583136
H        4.91095653      12.59632575      12.09059759       0.00626389       0.00509718       0.00101119
H        4.38361966      11.75134873      10.62889988       0.00229832       0.00424189       0.00305885
O        8.36635109       6.39233457       7.61718286       0.00026149      -0.00300276      -0.00088919
C        9.77531000       6.44181931       7.66853056       0.00086969      -0.00322485      -0.00323930
C        7.78398231       7.68655198       7.67020016       0.00008678      -0.00366631       0.00130563
C       10.30087649       5.02822337       7.71520921       0.00181423      -0.00240445       0.00106618
C        6.28576622       7.55171600       7.62353489      -0.00032878      -0.00386751      -0.00098606
H       10.16672566       6.98012405       6.79200198       0.00112101      -0.00247601      -0.00234526
H       10.10178791       7.00627747       8.55459681       0.00381885       0.00071064      -0.00459701
H        8.10045710       8.18663944       8.59795869      -0.00162832      -0.00563695       0.00291544
H        8.15432364       8.29883988       6.83777003       0.00062908      -0.00126761       0.00300157
H       11.39081405       5.02832341       7.73820288       0.00196438      -0.00075493       0.00223491
H        9.93230309       4.51189159       8.60188022       0.00189838      -0.00087958       0.00219823
H        9.97386400       4.47010974       6.83750890       0.00281584      -0.00332940       0.00212005
H        5.80607694       8.52772927       7.71311237      -0.00045022      -0.00433654       0.00295640
H        5.96768575       7.08789989       6.68864081       0.00059076       0.00014985      -0.00324605
H        5.94036675       6.93127152       8.45224529      -0.00094480      -0.00728235      -0.00391303
O        2.84393130       7.94338582       6.06208833      -0.00906447      -0.00686097       0.00547448
C        2.45272810       9.26496534       5.73915510      -0.00655724      -0.00581551       0.00926897
C        2.15791602       7.42994100       7.19149465      -0.00784309      -0.00558043       0.00725248
C        3.37883763       9.70225544       4.61610586      -0.01389441      -0.00658251       0.00334224
C        2.67368116       6.03572311       7.44987200      -0.01150388      -0.00683069       0.00579233
H        1.39498279       9.27664148       5.43442657      -0.00850856      -0.00063616       0.01663283
H        2.56394112       9.88270649       6.65530999       0.00120128      -0.00547823       0.00790098
H        2.33665809       8.08190635       8.05727361      -0.00373565      -0.00598896       0.00710565
H        1.07503328       7.42234772       6.99999750      -0.00831431      -0.00142320       0.01010284
H        3.36210940      10.76407755       4.30229197      -0.02624922      -0.00876649      -0.00511122
H        4.41451272       9.51649950       4.89533047      -0.01055938       0.00282329      -0.00219089
H        3.14640466       9.17933318       3.69052190      -0.01610644      -0.01258697       0.00710884
H        2.15205459       5.59016467       8.29681670      -0.00952582      -0.00452356       0.00819744
H        2.52348580       5.40297952       6.57391314      -0.01720291      -0.00703987       0.00682552
H        3.73994232       6.06142274       7.67315886      -0.01033866      -0.01037450       0.00134265
O        5.72570365       2.16515327      10.89985853      -0.00667214       0.01978403       0.00959940
C        6.77630942       2.66042212      11.69550884      -0.00174320       0.01333711       0.00543517
C        5.11580546       3.17829463      10.12798999      -0.00387669       0.02128155       0.00911033
C        7.39810153       1.51190673      12.45221461      -0.00636217       0.00953037       0.00405732
C        4.02943248       2.57314001       9.27203946      -0.00576818       0.02397913       0.01015386
H        7.52700103       3.15353530      11.05603271      -0.00020763       0.00863102       0.00311011
H        6.39443494       3.42497254      12.39135789       0.00564411       0.01653007       0.00677061
H        4.69964858       3.94876288      10.79726710      -0.00116265       0.02352986       0.00905633
H        5.87424324       3.67133496       9.49921110      -0.00212198       0.01861647       0.00855687
H        8.23451207       1.86493623      13.05769350      -0.00109655       0.00364929       0.00014862
H        6.66752146       1.03718248      13.10726807      -0.00717506       0.01609953       0.00800432
H        7.75052403       0.75449102      11.75240205      -0.01496081       0.00620766       0.00298212
H        3.47996668       3.36113122       8.75540185      -0.00281756       0.02407238       0.00784934
H        4.45498635       1.88611035       8.54512704      -0.00746737       0.01967701       0.01217918
H        3.33762930       2.00044869       9.88960191      -0.00833404       0.02815717       0.01167376
O        9.60237420       9.64886158       0.85039639       0.01041818       0.00125014      -0.00065669
C       10.30878408       8.42462771       0.87869624       0.01547515       0.00401664      -0.00740714
C       10.42130726      10.76738183       1.18417815       0.00871879       0.00202775       0.00127342
C        9.32906720       7.29480830       0.66051647       0.01842469       0.00322637      -0.01219965
C        9.53435362      11.98498291       1.27484448       0.00891426       0.00206301       0.00178348
H       11.08657254       8.42351758       0.10127734       0.01536614       0.00992244      -0.00786829
H       10.82144459       8.31459709       1.84522951       0.01589179      -0.00000925      -0.00821924
H       10.92847637      10.58353925       2.13881189       0.00787950       0.00253290       0.00276971
H       11.20630657      10.89726801       0.42668717       0.00837946       0.00128231       0.00160211
H        9.85397571       6.34188974       0.59552232       0.01951061       0.00351591      -0.01338523
H        8.61624823       7.23732600       1.48130834       0.01491582       0.00343771      -0.01559454
H        8.76838677       7.44470718      -0.26254790       0.01760991       0.00654364      -0.01338342
H       10.13727563      12.87063226       1.47440270       0.00720629       0.00133754       0.01063161
H        8.98439773      12.14047607       0.34521294       0.01599468       0.00640159      -0.00171115
H        8.80687458      11.87326907       2.07926077       0.00342359      -0.00105696      -0.00334409
O       11.82166800       3.38240336       3.25052778       0.00089942      -0.00780398      -0.00017335
C       12.13433460       3.93386560       4.51389589       0.00430806      -0.00907817      -0.00056547
C       11.67047930       4.36574599       2.24892588       0.00290360      -0.00747674      -0.00021923
C       12.35786632       2.80175509       5.48625323       0.00437652      -0.00998259      -0.00166306
C       11.40665210       3.66810144       0.93635487       0.00388864      -0.00703150      -0.00068843
H       13.03499530       4.56185387       4.43177768       0.00536454      -0.01040539      -0.00211974
H       11.31469705       4.58993686       4.84713625       0.00615847      -0.00770053       0.00170673
H       10.84228069       5.04360893       2.51228377       0.00320154      -0.00649026      -0.00092061
H       12.58286877       4.97854570       2.18554994       0.00370383      -0.00833932       0.00103295
H       12.62322784       3.18482037       6.47150932       0.00689830      -0.01144528      -0.00176869
H       11.45989035       2.19185659       5.58832156       0.00328973      -0.00840355      -0.00020938
H       13.16411408       2.15723905       5.13502109       0.00249191      -0.01131375      -0.00373484
H       11.29607302       4.39686384       0.13205381       0.00591281      -0.00668062      -0.00077640
H       12.23006345       2.99866037       0.68986139       0.00346974      -0.00812614       0.00055327
H       10.49043513       3.08027613       0.99863958       0.00295980      -0.00593004      -0.00213268
O        6.21149150       2.98320026       4.41603165      -0.00006998       0.00187737       0.00421610
C        5.26357204       4.02836058       4.51323135       0.00056809       0.00212125       0.00363120
C        7.31361738       3.17745408       5.28186902      -0.00089002       0.00064063       0.00570874
C        4.10912418       3.72418319       3.59008475       0.00217792       0.00308256       0.00146103
C        8.23605985       1.98875014       5.16090523      -0.00350595      -0.00104952       0.00416516
H        4.91712999       4.11881236       5.55374298      -0.00096497       0.00120276       0.00321937
H        5.73352088       4.98782485       4.24710884       0.00224450       0.00186932       0.00483374
H        7.83448302       4.11094490       5.01788193      -0.00050357       0.00126857       0.00701025
H        6.95973488       3.29296323       6.31674337      -0.00114021      -0.00122248       0.00569725
H        3.35704694       4.51086328       3.65890032       0.00257219       0.00368632       0.00012717
H        4.45042121       3.66041626       2.55714055       0.00447002       0.00283649       0.00212325
H        3.64377759       2.77453180       3.85486642       0.00142577       0.00322402       0.00104839
H        9.08748231       2.10418929       5.83404024      -0.00897983      -0.01167777       0.01257031
H        7.71057917       1.06994229       5.42278337      -0.00768833      -0.00052097      -0.00070304
H        8.61719432       1.89511314       4.14397949       0.00215026       0.00382812       0.00591293
O        5.86980776       8.83283850       2.80632704      -0.00016868      -0.00343885       0.00206608
C        7.20079660       8.90792308       3.28724264       0.00096947      -0.00301287      -0.00129497
C        5.78229625       8.27047049       1.51257034      -0.00292253      -0.00317489       0.00141633
C        7.22057528       9.78637533       4.51015204       0.00387077       0.00150460      -0.00315726
C        4.38275259       8.47239568       0.98628674      -0.00465083      -0.00301646       0.00510470
H        7.57167306       7.89661879       3.52717262       0.00146714      -0.00210422       0.00067991
H        7.84930052       9.31924278       2.50412932      -0.00023401      -0.00487995      -0.00315309
H        6.51605458       8.76087132       0.85701558      -0.00487152      -0.00250080      -0.00014994
H        6.04287870       7.19925848       1.54639262      -0.00276572      -0.00310451       0.00007483
H        8.23755413       9.93365066       4.87398484       0.00510427       0.00129571      -0.00634274
H        6.80087379      10.76556168       4.27926568       0.00444487       0.00093880      -0.00574493
H        6.63887965       9.35811413       5.32450759       0.00474988       0.00404048      -0.00058700
H        4.31473855       8.11253575      -0.04167662      -0.00631270       0.00209368       0.00337493
H        3.65412721       7.92863730       1.58796120      -0.00241174      -0.00813145       0.00336376
H        4.12205082       9.53120472       1.01078185      -0.00677377      -0.00372162       0.01019564
