143
Lattice="12.480779436339773 0.0 0.0 0.0 12.480779436339773 0.0 0.0 0.0 12.480779436339773" Properties=species:S:1:pos:R:3:forces:R:3 energy=-180458.921875 stress="0.0003369552141521126 0.0003651797742350027 -3.1212944122671615e-06 0.0003651797742350027 -0.0001585352438269183 2.8785090762539767e-05 -3.1212944122671615e-06 2.8785090762539767e-05 0.0006789545295760036" pbc="T T T"
V        6.13774329      12.26199880      10.58068363      -0.00489804       0.00532207       0.01890993
V        9.62036797      12.29083654       0.06762407       0.00057104       0.00971162      -0.00359395
S        5.92683905      11.29159239       8.59478673      -0.02319367       0.01592141       0.01743428
S        5.10131286      13.15596098       8.84926603      -0.03178809       0.01028461       0.03645080
S        8.14155047      13.05701675      11.11655403      -0.00043635       0.00995663      -0.00421551
S        4.99726947      11.56154162      12.14330818       0.02035746      -0.01553977       0.02781942
S        0.42678814      12.65345009       4.10576575       0.00490151       0.00103276       0.00364079
S        0.53511739      13.29829633       5.94209578      -0.01455083       0.01500070       0.00009997
O       11.48642802      10.29816442       6.28083310      -0.00139928       0.00548612      -0.00388634
C       10.96878333      10.49160020       7.58705666       0.00154045       0.00565246      -0.00248379
C        9.99585374      11.65324480       7.65700982      -0.00065511       0.00388253      -0.00141476
H       10.45739469       9.55960250       7.84310743       0.00430664       0.00488073      -0.00005580
H       11.79826956      10.62889115       8.29608824       0.00330934       0.00810289      -0.00499204
H        9.58835798      11.77931967       8.66537285       0.00107977       0.00438721      -0.00073649
H       10.49686719      12.58329154       7.37916049      -0.00319244       0.00460568      -0.00353904
H        9.16143998      11.47807818       6.97809443      -0.00195895       0.00140606       0.00072505
H       12.01397385      11.08141201       6.06112125      -0.00255839       0.00516461      -0.00555611
O        4.80927137       9.19032374       5.00281173       0.01400828      -0.00690573       0.00048870
C        5.11480580       7.81857952       5.23791009       0.00019452      -0.01139981      -0.00738496
C        5.93540133       7.19382148       4.12972823       0.00637484      -0.00961056      -0.00405750
H        5.64225806       7.78644055       6.19822172      -0.00935605      -0.02289719      -0.00279060
H        4.19167209       7.23908000       5.37721050      -0.00581479      -0.00488248      -0.02097573
H        6.17823915       6.15477639       4.36261927      -0.00213538      -0.01244311      -0.00752191
H        5.37755699       7.21482308       3.19378339       0.01516710      -0.00027030      -0.00898315
H        6.86252066       7.74830931       3.96742960       0.01155491      -0.01492940       0.00802120
H        4.64985983       9.31031399       4.04821710       0.00696039      -0.00187147       0.00190779
O        1.09347755       3.97833844       3.85985724      -0.00584221      -0.01401699      -0.00257576
C        2.38209696       3.36132726       4.02252825      -0.00294709      -0.01030093       0.00074290
C        3.44888123       4.36490911       4.40071716      -0.00840241      -0.00401476       0.00022052
H        2.31773090       2.56008027       4.76340761      -0.00239450      -0.00694862       0.00446165
H        2.59260124       2.89676337       3.05867494       0.00077485      -0.01326050       0.00413352
H        4.43144405       3.88992156       4.42915122      -0.00677259      -0.00052986       0.00517867
H        3.48610414       5.19090465       3.68717013      -0.00934829      -0.00694002      -0.00323384
H        3.25559648       4.77964156       5.39460664      -0.01324432      -0.00054745      -0.00228809
H        0.89235924       4.43273598       4.68467766      -0.01152760      -0.01924640      -0.00651655
O        8.54472233       8.94350862       6.03391326      -0.01164567       0.00179980       0.01408118
C        9.35166875       7.87135313       5.55241638      -0.00873199       0.00623876       0.00885218
C        9.00582401       6.55670352       6.21864738      -0.00139174       0.00200146       0.00489178
H        9.25104747       7.76801844       4.46375061      -0.01029050       0.00988588       0.00871277
H       10.38087273       8.17057209       5.75461550      -0.00942677       0.00938673       0.00761408
H        9.65003094       5.75168695       5.85431327       0.00282907       0.00704822       0.00121926
H        9.11864599       6.63105682       7.30031628      -0.00015887      -0.00123916       0.00501570
H        7.96725696       6.29171354       6.00382833      -0.00016077      -0.00350601       0.00539615
H        7.61827260       8.70672592       5.91349959      -0.01111482       0.00452621       0.00512610
O       11.90562542       7.62338194      10.10049004       0.00878760       0.00103661       0.00113755
C       11.14290268       6.75036842       9.28546392       0.00732061      -0.00027907       0.00396936
C       11.70748211       5.34425438       9.22948209       0.00956959       0.00065738       0.00183897
H       10.09488371       6.71846083       9.63290176       0.00843081      -0.00225730       0.00738418
H       11.13023026       7.19740196       8.28947524       0.00354233      -0.00016616       0.00407860
H       11.07918656       4.69818205       8.61170781       0.01131018       0.00092407      -0.00030973
H       12.71381657       5.34815524       8.81042028       0.00995770       0.00343053       0.00256422
H       11.76940776       4.90687307      10.23044253       0.00930592      -0.00127179       0.00095020
H       12.13125206       7.16170410      10.92630640       0.00328803       0.00618802       0.00552656
O        6.98321001       3.78684764       5.33216279       0.00376529      -0.00638488       0.00019807
C        6.27373863       3.90735085       6.56602108       0.00089070      -0.00634621       0.00041109
C        7.15820966       3.72986478       7.78188351       0.00025091      -0.01385327       0.00007814
H        5.76242761       4.88047388       6.61549767       0.00725785      -0.00299251       0.00185134
H        5.50971130       3.13063437       6.53294756      -0.00288728      -0.00124189      -0.00154422
H        6.55459634       3.78678916       8.68955527       0.00071208      -0.00983203       0.00037070
H        7.65826973       2.76131107       7.76314660      -0.00776888      -0.01795898      -0.00033561
H        7.91446791       4.51809300       7.83431713       0.00655614      -0.02007933       0.00043116
H        7.80761316       4.27524825       5.41011002       0.00059932      -0.01105982       0.00009413
O       12.24520090       6.96294696       0.31876905      -0.00522423       0.01769215       0.00743020
C       11.87306304       5.92898851       1.25392591      -0.00008085       0.00919054       0.00079784
C       11.65446744       6.49035379       2.63906754       0.00069640      -0.00135753       0.00542867
H       10.97896991       5.41259468       0.89448360       0.00056195       0.00935012      -0.00145672
H       12.70170156       5.22211907       1.24715385       0.00172088       0.01186983      -0.00668590
H       11.34215101       5.69464360       3.31703228       0.00473548      -0.00772691      -0.00001328
H       12.56443456       6.95013252       3.02768205      -0.00015841      -0.00116760       0.00713810
H       10.86027093       7.24489050       2.62668806      -0.00159206      -0.00382446       0.01313657
H       11.59843315       7.66917583       0.41295046      -0.01072308       0.01027223       0.00707647
O        2.98486762       8.98264677       7.51409472       0.00377592       0.01042926      -0.01342583
C        2.34735853       7.71751535       7.56324749       0.00387895       0.01049250      -0.00753096
C        1.25845355       7.56478922       6.51570437       0.00710410       0.00404411      -0.01011026
H        3.08124238       6.90171690       7.46761820       0.00427347       0.01002616      -0.00017209
H        1.91405899       7.64409671       8.56285445       0.00064799       0.01650759      -0.00847346
H        0.75171316       6.60076004       6.62594624       0.00636820       0.00489908      -0.00541775
H        0.52237133       8.36490299       6.60709079       0.00720818       0.00497368      -0.01750161
H        1.67945177       7.60883217       5.50655616       0.01047539      -0.00305964      -0.00901356
H        3.35738654       9.12486356       6.63345998       0.01162993       0.00287564      -0.01130462
O        4.92169870       0.83676810       5.19155848      -0.00337497      -0.01797648       0.01197231
C        5.04415448       0.73793448       3.77409532      -0.00754130       0.00055846      -0.00197971
C        6.47093981       0.91747826       3.29090923      -0.00202322      -0.00774401       0.00978291
H        4.62941612      -0.21280280       3.41877858      -0.00413832      -0.00477642       0.00252190
H        4.41225219       1.53030310       3.37170620      -0.00029477      -0.00756910      -0.00360870
H        6.49869140       0.89870609       2.19756850       0.00349762      -0.01425547       0.00914033
H        6.87522294       1.86373357       3.65155815      -0.00368800      -0.00426367       0.00492708
H        7.10509686       0.10853016       3.66345872      -0.00440659      -0.00434677       0.01756043
H        5.31576978       0.04616806       5.57414707      -0.01853747       0.01496358      -0.00035414
O       10.14225607      10.55114125      11.55620437       0.00258140       0.01406872      -0.00355887
C        9.36439609       9.28993020      11.56065626       0.01301440       0.00819248      -0.00904175
C        8.09314561       9.38851537      10.76145588       0.01535064      -0.00321359      -0.01405960
H       10.04557040       8.52887482      11.17461805       0.02092429       0.01445466      -0.00650556
H        9.15592160       9.09873897      12.61425473       0.00995054       0.00604624      -0.00924513
H        7.54800969       8.44894458      10.83197777       0.03155296      -0.01366901      -0.02671045
H        7.43891579      10.15997185      11.17304655      -0.00050279      -0.01852115      -0.01119378
H        8.28736696       9.59211792       9.70739456       0.01822746       0.00963081      -0.01124954
H       10.47757687      10.67759165      10.65929562      -0.00131631       0.02164574      -0.00747424
O       10.29743796      11.13842832       1.56836971      -0.00828166       0.01029909       0.00035346
C        9.79520238      10.82348395       2.92621540      -0.01021080       0.02365403       0.00334412
C        8.54075276       9.99809042       2.83440408      -0.00786349       0.01962608       0.00856990
H       10.60871630      10.32501748       3.45348967      -0.00997519       0.03147487       0.01055318
H        9.64227627      11.78879210       3.40116977      -0.01363894       0.02857766      -0.00789021
H        8.15515573       9.84309023       3.84250342      -0.00814919       0.02389270       0.00932962
H        7.77242895      10.49691005       2.23919303      -0.00888652       0.01398566       0.00513983
H        8.74004183       9.01481786       2.39985763      -0.00468272       0.01788703       0.01415053
H       10.81064543      10.38781189       1.23799825      -0.00689059       0.00809568       0.00904971
O        2.78062669       3.91330971       0.55246623      -0.00642252      -0.00446657       0.00912166
C        4.11151201       4.39121169       0.72365679      -0.00482330      -0.00406313      -0.00028978
C        4.17047957       5.90400324       0.77671586      -0.00469870      -0.00367332      -0.00488993
H        4.56543307       3.95907858       1.62601619       0.00019735      -0.00168855      -0.00183815
H        4.66764655       4.00649116      -0.13345195      -0.00980256      -0.00601242      -0.00246495
H        5.18950168       6.25824712       0.94016138      -0.00355707      -0.00335831      -0.01215115
H        3.78874300       6.34318353      -0.14602158      -0.00983322      -0.00646355      -0.00401385
H        3.56087916       6.27754517       1.60154329       0.00040968      -0.00121033      -0.00226137
H        2.26235713       4.23339738       1.29822333       0.00007961      -0.01005456       0.01435311
O       10.85463207       2.73508817       3.27199613       0.00630118      -0.00273332      -0.00255650
C       11.06724464       2.28213417       1.95282947       0.00605184       0.00365365      -0.00451303
C        9.73850180       1.88307420       1.34685825       0.00537375       0.01112302      -0.00778556
H       11.50655948       3.06987159       1.32846576       0.00928548       0.00526851      -0.00024113
H       11.76588638       1.43658681       1.94721832       0.00329641       0.00112867      -0.00861161
H        9.83922242       1.83056136       0.24596625       0.00773560       0.01163942      -0.00753212
H        9.32280346       0.95683014       1.79737229      -0.00025485       0.01278072      -0.00943473
H        8.96656827       2.63932263       1.50137737       0.00861572       0.01453163      -0.00872762
H       11.72761877       2.83006547       3.68141677       0.00690001      -0.00407521      -0.00290827
O        9.31888500       4.52633288      11.82973620       0.00244272      -0.01778308      -0.00423020
C        7.89910013       4.51176133      11.66257504       0.00051241      -0.01809424       0.00044349
C        7.35389705       5.88981986      11.35954207       0.00173266      -0.01964355      -0.00909657
H        7.61984529       3.80057641      10.87866913      -0.00066486      -0.02378801       0.00565246
H        7.49562394       4.13734464      12.60433030       0.00190073      -0.01069344       0.00300381
H        6.26966823       5.87192547      11.23881666       0.00150684      -0.01959013      -0.00801193
H        7.59722640       6.58025603      12.16997152       0.00276772      -0.01452593      -0.01372190
H        7.78444928       6.27516157      10.43179555       0.00109414      -0.02615092      -0.01201646
H        9.70896028       4.75918966      10.98121847      -0.00036311      -0.02309348      -0.00228542
O        4.28159250       9.30079151       2.20012016      -0.00192636       0.00108516       0.01248440
C        2.88974361       8.96276806       2.14144619      -0.00116608       0.00053602       0.00084773
C        2.00755796      10.11658567       2.55394285      -0.00483683      -0.00206220       0.00024870
H        2.63307450       8.59761984       1.14196285       0.00655672       0.00567780      -0.00298244
H        2.76881510       8.12806825       2.83743111      -0.00597967      -0.00320262      -0.00451407
H        0.96215542       9.80321027       2.61490287      -0.00539894      -0.00255288      -0.01164783
H        2.29364492      10.49015541       3.53686328      -0.01377312      -0.00832856       0.00521335
H        2.07697547      10.94403479       1.84524930       0.00175755       0.00233011       0.00600596
H        4.46230110       9.97266877       1.52480343       0.00350643       0.00245148       0.01489002
