149
Lattice="12.678649111711893 0.0 0.0 0.0 12.678649111711893 0.0 0.0 0.0 12.678649111711893" Properties=species:S:1:pos:R:3:forces:R:3 energy=-183514.453125 stress="0.00020574365044012666 0.0007731618243269622 -0.0009773920755833387 0.0007731618243269622 0.0008159998105838895 4.4835340304416604e-05 -0.0009773920755833387 4.4835340304416604e-05 -0.0003266962885390967" pbc="T T T"
V        1.29620925      11.11574431       0.93758825      -0.00004323       0.00440550       0.00527368
V        1.50529631      12.48833693       2.49779390       0.00629514       0.00045565       0.00884557
S       12.13629229      11.47448722       4.90878238       0.00249426      -0.00756411      -0.00113747
O       12.94358752      12.36235877       3.75734417       0.00446922       0.00182649       0.00775701
O       12.73927384      11.95626485       6.12843918      -0.00217134      -0.01540691       0.00411499
O       10.74976201      11.83213263       4.69985127       0.00272250      -0.00794736      -0.00338298
O       12.47159834      10.10054254       4.55686622       0.00528538      -0.00451207      -0.00933957
S        2.40387054      11.60195159      11.32782865      -0.01065241       0.00718434       0.00277531
O        3.01993741      12.82735695      10.90416105      -0.00944203       0.00982881       0.00084898
O        0.97335971      11.89675619      11.89871311      -0.00688934       0.01014149       0.00772366
O        2.37736127      10.51448593      10.40124025      -0.01576381       0.01060903       0.00246912
O        2.99435551      11.14340346      12.70610856      -0.00345796       0.00695610      -0.00148708
S        7.68704573       8.93432778      11.52232518      -0.01572108      -0.02595973       0.00781537
O        8.67112426       8.45745405      10.50472046      -0.01583791      -0.03631991       0.01253986
O        7.12557668       7.75089621      12.23043461      -0.00675690      -0.01817274       0.02837157
O        8.39590404       9.79195539      12.49700577      -0.01724958      -0.00593209      -0.00883961
O        6.61524094       9.69339655      10.85433970      -0.02118540      -0.04277277      -0.00199437
O       12.39926651      10.14382073       1.26545425      -0.00109601       0.00594664       0.00404914
N       10.46433795       9.10367191       1.79514656      -0.00475454       0.00983805      -0.00064056
C       10.67422142       8.00603283       0.86479150      -0.00271450       0.00714731       0.00303359
C        9.23981642       9.06592972       2.58465169      -0.00697818       0.01288669      -0.00385252
C       11.29060660      10.10000624       1.91194059      -0.00327274       0.00847888       0.00081128
H        9.72755557       7.80548560       0.36742176      -0.00073743       0.00694379      -0.00061016
H       11.00718812       7.12119918       1.41237912      -0.00641228       0.00807798       0.00680310
H       11.41324627       8.29414825       0.12495881       0.00134656       0.00409509       0.00593014
H        8.39956943       9.13654566       1.89213090      -0.00523657       0.01151107      -0.00627744
H        9.24857061       9.89812341       3.28463665      -0.00767199       0.01442578      -0.00555846
H        9.21217506       8.11886929       3.12743672      -0.00882506       0.01377890      -0.00230226
H       10.99060071      10.91327520       2.56783768      -0.00404093       0.00981420      -0.00089595
O        9.24606025       0.02350383       1.92366500      -0.00381249      -0.00190067       0.00081125
N       10.41062434       1.91337937       1.38536618      -0.00524276      -0.00351997      -0.00642021
C       11.66234090       1.22079764       1.25353393      -0.00534448      -0.00387986      -0.00791663
C       10.40796437       3.33476036       1.13515164      -0.00613606      -0.00361736      -0.00597966
C        9.28477601       1.21085085       1.64483559      -0.00452195      -0.00356841      -0.00058118
H       12.27638537       1.39403039       2.14895425      -0.00680888      -0.01114002      -0.00613955
H       12.19046777       1.55408441       0.36258708      -0.00328910       0.00260749      -0.00444922
H       11.46351019       0.15629238       1.17497758      -0.00535247      -0.00319579      -0.01698856
H       11.06080722       3.85147017       1.84638865      -0.00022009      -0.00451642      -0.01095811
H        9.40617438       3.73910545       1.26294407      -0.00480148      -0.00287480       0.00149910
H       10.76106869       3.54248933       0.12167951      -0.01345725      -0.00353777      -0.00858188
H        8.37973984       1.83076738       1.57698925      -0.00450784      -0.00237548       0.00190441
O        8.18771384       4.71726788       3.39368832      -0.00130796       0.00169659       0.00769243
N        7.85714333       2.56662400       4.09956776      -0.00289626      -0.00023541       0.00090104
C        8.98364640       2.54743714       5.00814442      -0.00213173      -0.00397277      -0.00009520
C        7.06487344       1.36097843       4.00630930      -0.00519178       0.00137544      -0.00094613
C        7.56664645       3.66664647       3.36955595      -0.00287017       0.00251389       0.00493835
H        9.63709523       1.70229707       4.77951255      -0.00380097      -0.00471538      -0.00217274
H        8.62968982       2.44401213       6.03660967      -0.00148928      -0.00509496      -0.00000012
H        9.52367894       3.48580715       4.91457576      -0.00065897      -0.00468564       0.00120203
H        7.71301484       0.50570585       3.80440406      -0.00712395       0.00077772      -0.00447775
H        6.36137045       1.45795961       3.17940731      -0.00653817       0.00493369       0.00063699
H        6.51443575       1.18746875       4.93820021      -0.00377634      -0.00036968      -0.00038826
H        6.69243132       3.50916214       2.71422332      -0.00381392       0.00596043       0.00558874
O        1.78099673       3.10119983       0.46723615      -0.01139470       0.00031807      -0.01812908
N        2.53942501       1.64608346       2.10992220       0.00254053      -0.00111872       0.00425894
C        3.70001093       1.32531438       1.24149811      -0.00294113       0.00155404       0.00466505
C        2.92749560       1.86058214       3.52990503       0.00447471       0.00560741       0.00342977
C        1.75135125       2.74867711       1.60669694      -0.01575518      -0.00032389       0.04248071
H        4.14429491       0.38815990       1.57901028      -0.00385236       0.00015569       0.00059173
H        4.44576964       2.11829345       1.30396381      -0.00154915      -0.00006819       0.00257863
H        3.37219679       1.20734034       0.21219697      -0.00636716       0.00378207       0.00378856
H        3.41026439       0.95403391       3.90761575       0.00411253       0.00359239       0.00565134
H        2.04344428       2.07724549       4.12979596       0.00659278       0.00689256       0.00612818
H        3.61460455       2.70470188       3.59183953       0.00611481       0.00279811       0.00110916
H        1.11771596       3.18635387       2.38983550       0.00334768      -0.00496890       0.00256991
O        4.54438125       7.60652833       4.48423092      -0.01640296       0.00518674       0.00364614
N        4.23107198       5.84484289       5.90952701      -0.00789928       0.00175124       0.00162507
C        5.47455855       5.18711844       5.58162550      -0.00913414       0.00333145      -0.00623546
C        3.29507606       5.11927861       6.73684805      -0.00337526      -0.00052813       0.00487145
C        3.87656350       6.99646386       5.30797171      -0.01197040       0.00265282       0.00615698
H        5.27970100       4.24783541       5.05464821      -0.01151761       0.00441340      -0.00704215
H        6.03313103       4.96439026       6.49480176      -0.00404549       0.00219351      -0.00968447
H        6.06793633       5.83057601       4.93883790      -0.01299803       0.00491545      -0.00819296
H        2.91512958       4.23692468       6.21170777      -0.01168125       0.00410715       0.00320140
H        2.45218582       5.75853652       6.98941803       0.00124516       0.00072922       0.01661707
H        3.77380593       4.79339847       7.66311256       0.00398903      -0.00796945      -0.00170779
H        2.89190563       7.35451632       5.64750258      -0.01020324       0.00142142       0.01184845
O       10.45630786       1.29543508      11.22105825      -0.00499046       0.00634280      -0.01155162
N       11.22090082       1.87791571       9.15832744       0.00590876       0.00312546      -0.00801533
C        9.97224854       2.48580258       8.76906564       0.00599792      -0.00238809      -0.01788481
C       12.30747697       1.92605607       8.20004627       0.00922244      -0.00230244      -0.00462256
C       11.34081797       1.31197163      10.37271501      -0.00031382       0.00612102      -0.00685441
H        9.60980734       2.01909526       7.85104041       0.00256436      -0.01996568      -0.00725466
H       10.11748500       3.55183572       8.58200165       0.00849599      -0.00699687      -0.03895966
H        9.25037110       2.32531601       9.56614217       0.00745592       0.01443218      -0.01382622
H       12.04963135       1.36831228       7.29761427       0.01507200      -0.01240757       0.00015840
H       13.19458417       1.47093753       8.63576997       0.00966397       0.00602388       0.00340146
H       12.51694373       2.96573901       7.93986650       0.00490830      -0.00373137      -0.01258360
H       12.32964039       0.85762920      10.54187117      -0.00032175       0.00789192      -0.00006548
O        6.45557637       2.48094799      12.99238654      -0.00237405       0.02072388       0.01030362
N        6.88320061       4.20678827      11.55877495       0.00359628       0.00945461      -0.00074732
C        5.56227438       4.78636407      11.65655364       0.00910187       0.02139904       0.00294591
C        7.86607359       4.96963745      10.81287135       0.00554666      -0.00549537      -0.01224575
C        7.20114155       3.08920535      12.22649137      -0.00235873       0.01050723       0.00300997
H        5.17271921       4.97380358      10.65310080       0.00170255       0.00852668       0.00385216
H        5.62347796       5.74503031      12.17595995       0.02353682       0.02991584      -0.01505122
H        4.90780586       4.08605560      12.16991697       0.00947179       0.03401509       0.01823866
H        7.60277253       4.98910613       9.75182377      -0.00003326      -0.01121845      -0.01094097
H        8.84401517       4.50471947      10.92431131       0.00241958      -0.01284167      -0.01425057
H        7.88578256       5.99951084      11.18420452       0.01744264      -0.00334895      -0.02068979
H        8.23021280       2.74979801      12.02107091      -0.00623351       0.00030553      -0.00092116
O       11.67495513       5.28808703       7.58048288       0.00399081      -0.00444949      -0.02109408
N       10.44987749       7.21501275       7.45086353       0.00870460      -0.00007357      -0.00324129
C        9.25389584       6.64552897       8.03674334       0.00673676      -0.00229258      -0.00930486
C       10.39701213       8.60668571       7.05511933       0.01181879       0.00336155       0.00837269
C       11.55317839       6.46935143       7.27855639       0.00671703      -0.00090206      -0.01042628
H        8.43085118       6.69165036       7.31724954       0.00875458       0.00008165      -0.01154006
H        8.97193731       7.19655024       8.94078949       0.00331388      -0.00613803      -0.00823754
H        9.46150103       5.60694206       8.27543634       0.00562605      -0.00331283      -0.01270732
H        9.64061442       8.75240304       6.27962519       0.01346403       0.01153861       0.00837132
H       11.35681669       8.91724758       6.64905317       0.01317877       0.00494314       0.01295796
H       10.13817562       9.23174879       7.91190484       0.01137094      -0.00338651       0.01316023
H       12.37399515       7.04807500       6.82094713       0.00816625       0.00059727      -0.00518095
O        2.87349814       4.87459990       3.08279104       0.01658380      -0.00156498      -0.01119232
N        2.67827645       6.77535967       1.82423178       0.00910065       0.00047889      -0.00497581
C        1.53242470       7.29303554       2.54321098       0.00779881      -0.00562713      -0.00218514
C        3.21395620       7.58783123       0.74932611       0.00508373       0.00453132      -0.00361099
C        3.25439195       5.62282636       2.18132173       0.01281686       0.00029665      -0.00648379
H        0.75902157       7.59261822       1.83487991       0.00487582      -0.00878402      -0.00055936
H        1.80897896       8.16752096       3.13686702       0.00490980      -0.00472209      -0.00208443
H        1.15086550       6.52027229       3.20483983       0.01259635      -0.00764552      -0.00212367
H        2.47793384       7.70770759      -0.04911279       0.00575876      -0.00065739      -0.00491306
H        4.11502429       7.13425235       0.34492525       0.01072332       0.01414727      -0.00192077
H        3.48164227       8.57855167       1.11481665      -0.00566470       0.00632280      -0.00158449
H        4.13093254       5.38279191       1.56100152       0.01455283       0.00693659      -0.00874329
O        4.08760078       9.26222189       7.74372582       0.00361896      -0.00998497       0.00211042
N        6.04915697      10.38093137       8.03260771      -0.00096023      -0.00332400       0.00914187
C        6.86780962       9.21554037       7.78299209       0.00490936       0.00300486      -0.00076800
C        6.73494399      11.58592262       8.44245998      -0.00670715      -0.00553834       0.02436623
C        4.71121626      10.26327779       8.08158806      -0.00036496      -0.01057816       0.01089826
H        7.58583348       9.10466875       8.59758523      -0.00255984      -0.00788554       0.00420892
H        7.39434052       9.30830834       6.82713541       0.01353802       0.01951879       0.00604093
H        6.21530019       8.34574545       7.75279132       0.00791061       0.00189543      -0.02050773
H        7.24901772      11.41903246       9.39089441      -0.01044166      -0.01277497       0.02514136
H        6.01245200      12.39301778       8.56182047      -0.00911283      -0.00823714       0.02754285
H        7.46371388      11.87454330       7.67616124      -0.00393391       0.00341521       0.03093931
H        4.20769631      11.18193079       8.42337980      -0.00436836      -0.01674289       0.02099884
O        2.42647623      10.73556771       2.55818122       0.00324035      -0.00067663       0.00214623
N        4.02291516      10.63047653       4.14658020       0.00420281      -0.00362095       0.00130519
C        3.03202474      10.73912877       5.20972303       0.00473699      -0.00494845       0.00201935
C        5.42037949      10.51753211       4.53026198       0.00423396      -0.00509962       0.00092241
C        3.66718719      10.58400074       2.89558101       0.00369138      -0.00224116       0.00166875
H        3.01599807      11.75288850       5.61648908       0.00380427      -0.00500974       0.00219032
H        3.31402072      10.05319858       6.00764551       0.00614662      -0.00494561       0.00138211
H        2.04496071      10.48481460       4.83630623       0.00474817      -0.00606816       0.00242431
H        5.67818833      11.36261930       5.16944921       0.00505017      -0.00562531       0.00119948
H        6.04604482      10.52091469       3.64147709       0.00399695      -0.00519483       0.00072256
H        5.55198219       9.58741576       5.07827996       0.00328713      -0.00545162       0.00049932
H        4.41428272      10.39969081       2.12781571       0.00293590      -0.00250904       0.00106039
