149
Lattice="16.522673000737342 0.0 0.0 0.0 16.522673000737342 0.0 0.0 0.0 16.522673000737342" Properties=species:S:1:pos:R:3:forces:R:3 energy=-1121114.25 stress="-2.2104628442320973e-05 4.1757246435736306e-05 3.01427880913252e-05 4.1757246435736306e-05 -0.0007339509902521968 -2.7730658985092305e-05 3.01427880913252e-05 -2.7730658985092305e-05 -0.000987111940048635" pbc="T T T"
V       13.10946195      16.62797736       9.06828326       0.00383729       0.00709949      -0.00370961
V       10.37828879      16.02941137       4.45811002       0.00120819       0.00218713       0.00022146
O        1.37346202      15.66344570       3.05949181      -0.00793982      -0.00598931      -0.00332940
O        2.53072479      13.91190044       3.76758292      -0.01265383      -0.00379515       0.00909345
O        0.31485263      13.93264727       3.83358924      -0.01356459      -0.01422393      -0.02866864
C        1.41552442      14.48118938       3.55908419      -0.01135115      -0.00755115      -0.00721192
O        0.40803254      15.02270044       0.01847036       0.02078164       0.00121403      -0.01597694
O        2.33076512      16.05427904      -0.08013887       0.01363516       0.01543503      -0.00153632
O        0.47505705      17.19762624      -0.24376413       0.00578976       0.00330567       0.00130698
C        1.06971585      16.09205147      -0.09542072       0.01279490       0.00735809      -0.00556407
O       13.02698884      17.16546965       7.23333840      -0.00204784       0.00679053      -0.00246522
O       11.89837177      15.30675870       7.56668611       0.00101638      -0.00215793       0.00399119
O       11.69365400      16.44017443       5.62590909       0.00462878       0.00713626      -0.00107375
C       12.18789770      16.25723370       6.82276856       0.00771838       0.02269667      -0.01301366
Cl      11.83623804      15.47364385      13.07239088       0.00494936      -0.00973490       0.00280026
Cl      14.30757561      15.04578230      14.59462055       0.00364971       0.00154276       0.00837980
Cl      12.58721025      17.31487645      15.21189604      -0.00041751       0.00095338      -0.00452894
C       12.65292471      15.64205616      14.64906877       0.00261804      -0.00119980       0.00307824
H       12.09844156      15.03169076      15.35185293       0.00272198       0.00063376       0.00461692
Cl      14.82545257      12.28952448       4.71144239      -0.00719705      -0.00418377      -0.00010677
Cl      12.13500787      12.23648384       5.83056195      -0.00602691      -0.00264318       0.00192512
Cl      12.84376364      10.39156011       3.70694985      -0.00590967      -0.01134025       0.01134932
C       13.45943992      11.26937349       5.11748584      -0.00514613      -0.00426903       0.00617542
H       13.76105647      10.53447216       5.85543909      -0.00321683      -0.00107917       0.00855491
Cl      15.00689827       1.65707636       1.62114049       0.00224292      -0.00141257       0.00121433
Cl      14.45821546       3.92055757       3.38286318       0.00064051      -0.00314978       0.00301437
Cl      12.28942354       2.72730972       1.84285078       0.00341284       0.00130580      -0.00386387
C       13.82948184       2.41033447       2.67715155       0.00071250      -0.00140363      -0.00035430
H       13.62080888       1.74281066       3.50437899      -0.00188620      -0.00204650      -0.00183856
Cl       3.53044321      11.26574327       3.33842754      -0.00156793       0.00019574       0.00186928
Cl       3.53585533       8.70419891       4.73634918       0.00354698      -0.00157572      -0.00280175
Cl       4.24547999       8.82434063       1.90386310      -0.00356414       0.00315657      -0.00361505
C        4.28619452       9.68230049       3.45838067       0.00015917       0.00066711      -0.00266859
H        5.32621122       9.81176772       3.73424918       0.00069296       0.00108403      -0.00527202
Cl       9.24922517       6.04345563      12.32339049       0.01120466       0.00217581      -0.00337979
Cl       9.47057888       3.13136946      12.43497832       0.00813429       0.00255477       0.00157651
Cl      11.73218579       4.74353063      11.50416926       0.01075631      -0.00136204       0.00201555
C       10.32341674       4.66955814      12.59515047       0.00943017       0.00172447       0.00022788
H       10.70146459       4.74008730      13.60802654       0.00821529       0.00291779       0.00053328
Cl       6.68231245      12.47846256      -0.92440654      -0.01280749       0.00157122      -0.00112979
Cl       4.10036247      13.52699090      -0.02930974      -0.01685411       0.00291407      -0.01641873
Cl       4.23592520      10.93529465      -1.35981910      -0.00856388      -0.00510564       0.00027937
C        5.05205598      12.08338285      -0.27895549      -0.01401870       0.00291943      -0.00416794
H        5.20306405      11.57738383       0.66737061      -0.01636057       0.00911221      -0.00067982
Cl       1.28125558       4.45789010      17.46509080      -0.00576940      -0.00149426      -0.00062723
Cl       0.18984111       6.68949636      15.92108506       0.01176497       0.00384411      -0.00458238
Cl      -0.79441069       3.98814808      15.47476047      -0.00906569       0.01012498       0.00085789
C       -0.15753688       5.11428652      16.66916919      -0.00040485       0.00798042      -0.00162942
H       -0.90978866       5.26791138      17.43306832       0.00093758       0.01617000      -0.00223568
Cl       8.15232797       8.94756170      10.43801969       0.00085884      -0.00613167      -0.00420321
Cl       9.53538048       7.11216217       8.64813172       0.00769477      -0.00309888      -0.00158231
Cl       9.81716784      10.00029154       8.29041228       0.00293440      -0.00306974      -0.00073840
C        9.60182234       8.68492495       9.46463436       0.00333836      -0.00341755      -0.00137081
H       10.46415421       8.68311100      10.12244687       0.00170797      -0.00177069       0.00038399
Cl       2.73178618       2.32404531      14.70760348      -0.00390083       0.00203800      -0.00207129
Cl       3.59715373       5.09957580      14.44542214       0.00207679      -0.00051224      -0.00176565
Cl       5.56673455       2.94968323      14.36684024      -0.00296101      -0.00480679      -0.00214258
C        3.89077999       3.41699408      13.96847079      -0.00173318      -0.00086521      -0.00204796
H        3.79690132       3.35825096      12.89000162      -0.00181974      -0.00048300      -0.00197557
Cl       3.24237368      11.47225074       7.06364181      -0.01809265      -0.00835389       0.00346319
Cl       1.68087687      13.88432541       7.52957087      -0.01751614      -0.00852770       0.00715357
Cl       4.52876812      14.08789501       6.88073018      -0.01531732      -0.00905815       0.01769646
C        3.02510175      13.17551345       6.62257501      -0.01500802      -0.00667351       0.00920117
H        2.78605574      13.24576661       5.56016342      -0.01192844      -0.00263512       0.00897217
Cl       7.49925623       8.74061849      16.97326989      -0.00457180       0.00648203      -0.00091606
Cl       9.98312182       7.99086383      15.63286082      -0.00468570       0.00181219       0.00211079
Cl       7.63087466       8.76335322      14.06811033      -0.00391036      -0.00430281      -0.00109786
C        8.53588239       9.01593701      15.56437329      -0.00467474       0.00119563      -0.00167364
H        8.86214847      10.04871790      15.57975465      -0.00493113       0.00119030      -0.00543305
Cl      -0.24054412       3.74352399      12.02834104       0.00754841      -0.01311916       0.00205262
Cl       1.84134644       5.60219073      11.18646146       0.00118941      -0.00800978      -0.00148997
Cl      -0.73034522       6.61837596      12.13178782      -0.00352591      -0.01515770      -0.00709444
C        0.48256751       5.34250892      12.28689857       0.00125371      -0.00981827      -0.00212798
H        0.86337309       5.36687179      13.30230016       0.00028934      -0.00531158      -0.00198230
Cl      11.34948007      15.70298349       2.56249740      -0.01315166      -0.00975902      -0.00564668
Cl      12.41154582      12.89584628       0.93455180       0.04311633      -0.01198304      -0.02009195
Cl      14.62915430      14.56962515       1.71662269       0.03135002      -0.00787099       0.00236434
C       13.24121787      13.78903203       2.09363177       0.03386664      -0.01458733      -0.01391693
H       13.00735147      13.58404848       3.12941990       0.01514249      -0.00339566      -0.01630872
Cl       4.93413028       1.50372351       1.01826029      -0.00668050      -0.01648434      -0.00433743
Cl       3.71565708      -0.37928344       2.84090875      -0.00532341      -0.00855266       0.00366319
Cl       8.93667685       1.06800460       4.17153040       0.00033657       0.00430636       0.02250379
C        4.49806068       0.98893317       2.54486570      -0.00427158      -0.01058295      -0.00229132
H        4.65064936       1.70073875       3.35131088      -0.00190795      -0.00814003      -0.00506121
Cl      13.39755658       4.46342422       8.27108219       0.00538726       0.00743830      -0.00367680
Cl      14.92220880       5.83358939       6.19116590       0.00836516       0.00476828      -0.00275227
Cl      16.31582686       4.57223223       8.39301756       0.00468436       0.01145203       0.00305751
C       14.90746655       4.48861215       7.32361399       0.00745265       0.00724630      -0.00000999
H       14.94978919       3.55734452       6.76793634       0.00995110       0.00628355       0.00219165
Cl       4.14503500       0.53894146      11.73090739      -0.00627470      -0.00398710       0.00422222
Cl       2.47700737       2.04298955       9.87945488       0.00021225      -0.00683823      -0.00338382
Cl       1.75093507      -0.69077307      10.60712508      -0.00749877      -0.00195268       0.00552544
C        2.49300668       0.81403840      11.15814096      -0.00459124      -0.00192649       0.00108001
H        1.91127085       1.19566957      11.98964581      -0.00468776       0.00247586      -0.00112972
Cl       0.72408283       7.13437420       2.96373290      -0.00280649      -0.00363988       0.00394163
Cl      -0.59568019       9.57855027       2.08275830      -0.00762126      -0.00765882       0.00244877
Cl      -0.55099054       8.85214502       4.93253611       0.01355138       0.00694188       0.00533983
C        0.31648457       8.79687225       3.37597981       0.00167349      -0.00148653      -0.00054459
H        1.23626272       9.34995324       3.51484167       0.00308830      -0.00166604      -0.01029864
Cl       2.52669286       5.37413112       5.90585911       0.00523627      -0.00254706      -0.00047310
Cl       4.73520362       3.48029529       5.64267028       0.00524989      -0.00184378      -0.00235734
Cl       4.10661065       5.29063143       3.44681939       0.00156409      -0.00333596      -0.00230369
C        4.12608394       5.08493194       5.19905888       0.00422577      -0.00239374      -0.00243593
H        4.80184693       5.82119989       5.61999897       0.00444426      -0.00200817      -0.00381149
Cl       3.28493119       9.58500704      10.16694142      -0.00126830       0.00386597       0.00876752
Cl       2.46032121       8.93635568      12.89101639      -0.00739738      -0.01232070       0.00297248
Cl       4.93991886       7.83392854      11.82015376      -0.00460507      -0.00483876       0.00207968
C        3.82614177       9.21877990      11.80602765      -0.00510253      -0.00546125       0.00770641
H        4.37299157      10.07631502      12.17867297      -0.00650980      -0.00755525       0.01408423
Cl      15.87680328       8.57638173       8.88908752       0.00721517       0.00512993       0.00143255
Cl      13.68634678       8.91997886      10.80301896       0.00175948      -0.00233305      -0.00377597
Cl      13.09493575       8.45479087       7.99945387       0.00990304       0.01739931      -0.00833738
C       14.23185582       8.11319453       9.31793962       0.00485747       0.00622594      -0.00702642
H       14.21926249       7.04451397       9.50048440       0.00175089       0.00513706      -0.01425515
Cl       5.75990218       7.85054596       7.56480299      -0.00793776       0.00164421      -0.00227149
Cl       7.05432483       7.71673544       4.95856204       0.00547464       0.00793675       0.00363985
Cl       6.55081677      10.31867840       6.23360328      -0.00320736       0.00441960       0.00506189
C        6.93628298       8.61602502       6.49674439      -0.00355021       0.00456288       0.00468388
H        7.91072605       8.55603827       6.96769733      -0.00606224       0.00446334       0.00959409
Cl       2.35980507       0.64201324       6.01435387       0.00354683      -0.00492609       0.00225474
Cl       1.47048175       2.41097862       3.85347911       0.00301547      -0.00421993       0.00332379
Cl      -0.48398528       1.16361347       5.62380366       0.00425065       0.00181307       0.00812639
C        1.16749140       1.82612872       5.48709900       0.00543950      -0.00232162       0.00431728
H        1.22397997       2.67768048       6.15586019       0.00895271      -0.00208622       0.00353682
Cl      14.76493838       0.84267992      11.91497755      -0.00386900      -0.00290330       0.00027454
Cl      15.24555062       1.30607676       9.00918376       0.00005639       0.01137805       0.00276598
Cl      11.23154606       0.54331249      10.03190462       0.00306726      -0.00394159       0.00104225
C       14.07336401       1.32860618      10.40657854      -0.00155170       0.00313172       0.00099415
H       13.70908238       2.35452857      10.49007179      -0.00363781       0.00207797       0.00516430
Cl       9.31692199      14.23652718       4.95663960       0.00182262       0.00659420       0.01704987
Cl       9.13674881      10.16400699       3.83269809      -0.00459664       0.02576506       0.00577882
Cl       8.48003299      12.21486419       1.91981163       0.01881972       0.01468056      -0.01390594
C        9.42762472      11.65113246       3.16403077       0.00897229       0.01882944      -0.00414343
H       10.36646945      12.13385017       3.38019019       0.01392579       0.01067021      -0.00853989
Cl       7.13620688       4.10970700       8.59539694       0.00573622       0.00568590       0.00089483
Cl       4.42578698       5.12524089       8.96688813       0.00194317      -0.00572053       0.00026530
Cl       6.00627845       4.30581306      11.27738146       0.00479484       0.00112575       0.00052491
C        6.05369338       5.01517272       9.66262054       0.00200742       0.00114214       0.00064548
H        6.44264417       6.02363173       9.74606023      -0.00239853       0.00275803       0.00059653
Cl      11.04897731      10.39287669      12.76497482       0.00089638      -0.00292140       0.00878553
Cl       9.19692178      12.49454652      11.94666612       0.00769658      -0.00197850      -0.00287098
Cl      10.26284484      12.46226381      14.66230088      -0.01183018      -0.00480282       0.00510728
C       10.58657020      12.08965010      12.95053427       0.00001618      -0.00345443       0.00723656
H       11.42153442      12.70979135      12.64493621       0.00195989      -0.00296015       0.01398121
Cl      12.31259543      12.37920484       9.66529088      -0.02190885       0.02728697       0.01908318
Cl      14.17517024      14.87994027       9.79180834       0.00364944       0.00530523      -0.00951558
Cl      15.16061345      12.08815878       9.16209336      -0.02957907      -0.00891145      -0.00186596
C       13.73979375      13.03630102       8.95875495      -0.01971319       0.00598902       0.00389487
H       13.57269832      13.30936759       7.92271055      -0.02606817       0.00171904       0.00338171
