150
Lattice="17.577444927658085 0.0 0.0 0.0 17.577444927658085 0.0 0.0 0.0 17.577444927658085" Properties=species:S:1:pos:R:3:forces:R:3 energy=-1574091.25 stress="-0.0001263590675080195 8.519995390088297e-05 0.00014296641165856272 8.519995390088297e-05 -0.00011136133980471641 -0.0002016094367718324 0.00014296641165856272 -0.0002016094367718324 0.00034448684891685843" pbc="T T T"
Y        5.65699435      16.17434696       8.61321848      -0.02756646      -0.01230231      -0.02294829
Y       -0.48417303      17.43633386       4.53426185       0.01464254      -0.00118174      -0.00780806
P        7.88220076      16.47680434       5.71625670      -0.00059037      -0.00323698      -0.00212562
O        6.82446219      17.13799579       6.82020099      -0.00376707       0.00153834       0.00145653
O        9.01920556      16.05901244       7.11670411      -0.00525963      -0.00796759       0.02400276
O        8.57916568      17.56781008       5.05304229       0.00065580      -0.01153906       0.01659863
O        7.34154704      15.20343848       5.26639558      -0.00117224       0.01444985       0.01467961
H        6.78281065      18.09863708       6.69928616       0.01194742       0.01024938       0.01499030
P       12.22644014      17.23402325      14.99495286      -0.00347890       0.01552139       0.01547301
O       11.75269233      17.96041215      16.39695230      -0.03021245       0.01358706       0.00742459
O       11.56554325      17.96425557      13.84270523       0.00375247       0.00452578       0.00495243
O       11.71774685      15.80927077      15.03557212       0.01600820       0.00918722       0.01449093
O       13.72467824      17.37953349      14.98621738      -0.00559330       0.03447628       0.03363512
H       10.83852985      17.72843884      16.59270603      -0.02443263      -0.00650183       0.00903967
P       15.22653714      16.40958474       6.28639461       0.01561013       0.01217383       0.00121841
O       13.70313364      16.73506924       5.84888663       0.01493198       0.01428540       0.00779426
O       15.27305320      15.62784759       7.53311156       0.01869998       0.01706886       0.00471580
O       15.90806736      17.82457162       6.25837504       0.02043602       0.00961387      -0.00633109
O       15.91230934      15.76073839       5.02210019       0.00790846       0.00558388       0.00082231
H       13.12420642      16.03046400       6.15924576       0.01292959       0.02369176       0.02435639
Cl      10.10744163       3.77454703       2.62781894       0.00355129       0.00440702      -0.00123480
Cl       7.61204245       5.22219819       2.61968972       0.00308156       0.00426751      -0.00716823
Cl       8.77664032       4.34630211       0.11220136       0.00516517      -0.00193724      -0.00371295
Cl      10.02125600       6.49332300       1.60738482       0.00371644       0.00205615      -0.00785830
C        9.12627755       4.96683841       1.72847235       0.00402666       0.00198280      -0.00474172
Cl      16.17758688       0.84378322       2.43048785       0.01226167      -0.00427559      -0.00779632
Cl      12.93986989       1.20605366       3.86024813       0.01106937       0.00537631      -0.00966376
Cl      12.89592196       1.43681070       1.00474638       0.00284852      -0.01661985      -0.01246908
Cl      13.88697262       3.60624891       2.61891703       0.00394306      -0.00526416      -0.02987773
C       13.24201224       2.07159432       2.47903359       0.00698437      -0.00674209      -0.01906762
Cl       4.05522819      11.76564137       5.14274599      -0.00352988      -0.00477523       0.00743708
Cl       3.30139749      10.78172594       2.50611614      -0.00431961      -0.00742560       0.00869715
Cl       4.68105858       9.05247379       4.38809482       0.00263651      -0.00354284       0.00733787
Cl       6.07903778      11.26904503       3.12449525      -0.00471517      -0.00117153       0.00470504
C        4.53716763      10.71493352       3.78641259      -0.00270791      -0.00406280       0.00710863
Cl       8.59834636       5.08339422      11.47399225      -0.00483418       0.00437415       0.00192955
Cl      10.27140974       3.20143379      12.93634174      -0.00468385       0.00627345       0.00461826
Cl       9.84529322       5.87819046      13.97149219      -0.00499009       0.00765523       0.00096673
Cl      11.46846060       5.47581872      11.59790330      -0.00471616       0.00434822       0.00150487
C       10.04302784       4.89148785      12.49469891      -0.00476229       0.00563373       0.00228893
Cl       8.02201586      12.92086944       0.18183267       0.00309032       0.00049186       0.00905553
Cl       5.27738486      13.84589182       0.02340268       0.00427270       0.00152114      -0.00177702
Cl       7.46250757      15.66990139      -0.54671059       0.00658704       0.00235966       0.01260093
Cl       7.00336626      14.76462999       2.17216834      -0.00559946      -0.00377452       0.00861973
C        6.95018503      14.30286179       0.45661495       0.00220323       0.00011630       0.00738686
Cl      -1.07660084       5.45920813      16.05354392      -0.00232235      -0.00195022      -0.00122777
Cl       1.58449361       5.29158922      17.20376733      -0.00229478      -0.00144517      -0.00128032
Cl      -0.41042158       3.29403836      17.87036081      -0.00508918       0.00467920       0.00763741
Cl      -0.67706607       5.99439867      18.87770419      -0.00077817       0.00913417      -0.00349322
C       -0.14722887       5.00400282      17.48972599      -0.00265779       0.00255314       0.00048152
Cl       8.88673347      11.92319836      11.31251710      -0.00461218       0.00184983       0.01496051
Cl       8.14558564       9.25691501      10.41354269       0.00423852       0.00494006      -0.00624527
Cl      10.39263738       9.60868132      12.20144665       0.00060529      -0.00384274      -0.00584936
Cl      10.58032307      10.50146244       9.44511775      -0.00153872       0.02193176       0.00256693
C        9.50231547      10.31554336      10.84637704      -0.00046596       0.00755677       0.00143219
Cl       4.90154459       4.64825837      14.72277446       0.00075639      -0.00755268       0.00558856
Cl       4.03312585       3.90239235      12.07003500       0.00344235       0.01205824      -0.00040302
Cl       3.59518253       2.09465461      14.30145632      -0.00534543      -0.00121558      -0.01317172
Cl       6.28204233       2.53279896      13.28464272      -0.00226256      -0.00225273      -0.00542119
C        4.71670794       3.29185580      13.60121645      -0.00078717       0.00013253      -0.00323077
Cl       2.65509502      14.12261474       8.33690761       0.00637498      -0.02560390      -0.00454829
Cl      -0.22659726      13.87851291       8.35217135       0.00207514      -0.00733665       0.00298506
Cl       1.31531575      13.07705410      10.69173170       0.00282691      -0.01037445       0.00042364
Cl       1.44254314      11.49692261       8.26105173      -0.01081529      -0.01533842       0.00017990
C        1.26259708      13.12816332       8.91288563      -0.00109665      -0.01467866       0.00058641
Cl      11.77512955       8.74226198      15.90401033      -0.00059658       0.00585443      -0.01065989
Cl      11.90509201      11.62682057      15.55276641       0.00079671       0.00677401      -0.00278610
Cl      11.07286795      10.51414601      18.09601752       0.00100153       0.00085352      -0.00592327
Cl       9.33975399      10.29911274      15.78531832      -0.00009578       0.00731151      -0.00573118
C       11.02847554      10.30644437      16.32920414       0.00029116       0.00521963      -0.00630440
Cl       3.89376264       7.94588291      -1.16750620      -0.00428516       0.00377461      -0.00652839
Cl       5.68032189       7.91977432       1.11067128      -0.01198962       0.00298250      -0.00032866
Cl       5.73977553      10.14142077      -0.74244942      -0.00482644       0.00296474      -0.00020839
Cl       6.73770590       7.54082933      -1.56179475      -0.00315055       0.00252104       0.00317234
C        5.51469474       8.39094362      -0.59128231      -0.00601832       0.00294828      -0.00090688
Cl       1.61952604       6.51525231      13.50653666       0.00017044       0.00226767       0.00277689
Cl       0.98438506       7.74158847      10.95489260       0.00369319       0.00031109       0.00097385
Cl      -0.65029817       8.30521069      13.28511841       0.00183839       0.00367534      -0.00088000
Cl      -0.74538344       5.68216843      12.04751507       0.00087044       0.00272563       0.00115100
C        0.30035766       7.05780076      12.44963842       0.00157066       0.00217957       0.00099660
Cl      11.50251653      14.78654903       0.23826695       0.00629355       0.00702124       0.01293302
Cl      11.00815726      13.54931602       2.83343833      -0.01203634      -0.02392274      -0.00643495
Cl      10.45721967      16.36656674       2.43000934      -0.00689048      -0.01979679       0.02537155
Cl      13.20505272      15.41631629       2.49741760      -0.00730085      -0.02257325       0.03125279
C       11.54785251      15.02513763       1.97227515      -0.00444050      -0.01401833       0.01612847
Cl       1.21148649      16.27075609       2.50396954       0.00116490      -0.01531070      -0.01140120
Cl       3.74445967      15.05687216       3.28006501      -0.00231433      -0.02701042      -0.02030133
Cl       1.25035817      13.62004037       3.67163041      -0.00877061      -0.01168694      -0.00227223
Cl       1.87930037      15.94464585       5.31933579       0.01465365      -0.00987403      -0.01378104
C        2.05320428      15.15996986       3.67658409       0.00056531      -0.01641607      -0.01175410
Cl       6.46429120       1.61094533      -0.81645300      -0.00691479       0.00005449      -0.00390965
Cl       4.76833667       3.12901891       0.97165336      -0.00236335      -0.00147957       0.00127184
Cl       6.67446479       1.22309232       2.05406221       0.00481185       0.00226597      -0.00398460
Cl       4.33044157       0.28191315       0.62471001       0.00144529      -0.00278711       0.00595852
C        5.56885263       1.56597074       0.70995118      -0.00070455      -0.00053636      -0.00017423
Cl      14.28500210       6.32219337       9.04270641      -0.01244654       0.00559703      -0.01011524
Cl      15.84299698       4.58665940       7.32023944       0.00836301       0.00480786       0.01028060
Cl      13.54585098       5.99037464       6.25450723       0.00813594      -0.01565388      -0.01185670
Cl      13.16121763       3.81138526       8.13458563       0.00815293      -0.00630742      -0.00285149
C       14.20118397       5.17329360       7.69403175       0.00256018      -0.00256990      -0.00387162
Cl       0.35846093      -0.87108253      10.15945695       0.00557095       0.02103412      -0.02799642
Cl       2.51118699      -0.89083994      12.06775861      -0.02296555       0.01383573       0.00254762
Cl       2.07091538       1.40299993      10.42776467      -0.00857985       0.02574778       0.01641455
Cl       6.61722214      -0.26299510      10.53992905      -0.02480984      -0.02241252      -0.01987837
C        1.62052357      -0.11360858      10.89277396      -0.00802930       0.01895864      -0.00460251
Cl      -0.58110414       8.38247248       7.25841218      -0.00117874      -0.00459206       0.00087768
Cl       0.87958447       9.66985237       5.10902477      -0.00012675      -0.00464076       0.00151052
Cl      -1.99187442       9.31144196       4.90328100      -0.00086480       0.00098686       0.00284992
Cl      -0.22051970       7.01835647       4.72438927      -0.00526848      -0.00197285      -0.00105302
C       -0.48328667       8.60006065       5.49963867      -0.00176192      -0.00278770       0.00095682
Cl       5.43777940       6.27460087       6.41454296       0.00343524      -0.00258572      -0.00500333
Cl       5.12506248       8.21539160       8.54800478       0.01428518       0.00012973      -0.00670727
Cl       4.97222305       5.38412813       9.13246402      -0.00404993       0.00169849      -0.00506896
Cl       2.84120523       6.69189393       7.64464077       0.00465435       0.01436133      -0.00675312
C        4.59009396       6.64837328       7.93454514       0.00411977       0.00320709      -0.00618118
Cl      14.42069732      11.88933600       2.21254081      -0.00118086      -0.00823823      -0.00050157
Cl      14.84119712       9.82103392       0.22273494      -0.00112593       0.00555605      -0.01487264
Cl      17.11466592      11.01893693       1.56729745      -0.00210774      -0.01433182       0.00413248
Cl      15.57715227      12.56077914      -0.35803782       0.01266418       0.00679010       0.00967282
C       15.48221598      11.32454047       0.90814270       0.00201287      -0.00260746      -0.00036380
Cl       5.74384843      11.12685181      13.17800029       0.00246936       0.00005621       0.00572583
Cl       4.04145091      10.69240240      10.87721032       0.01713642       0.00642140      -0.00666893
Cl       2.94410126      10.45447054      13.55367232      -0.00117612       0.00738253      -0.01425076
Cl       4.79901402       8.45502079      12.56110666       0.00037072       0.00336289      -0.00430689
C        4.38379365      10.18221169      12.54492224       0.00461989       0.00430590      -0.00485283
Cl      10.09174442      14.93567928       9.09946342      -0.00867433      -0.03373337       0.00529385
Cl       9.53308978      13.56386062       6.65171079       0.01955043       0.00885478      -0.02322754
Cl       3.64544841      17.40092479       7.79177695      -0.03226483      -0.00414939      -0.00137915
Cl       6.35805736      13.80989200       8.65539315      -0.00432190      -0.00461370      -0.04416952
C        9.47595049      14.97856527       7.52763262      -0.00101089      -0.00722450       0.00295625
Cl      13.86201420       9.32159219      11.01515169      -0.00232846      -0.00912857       0.00143844
Cl      16.18409494      10.97966516      10.53841759       0.00021422      -0.01362057      -0.00220318
Cl      13.58708129      12.20540285      10.91840940       0.00303125      -0.00889736       0.00551584
Cl      14.15453912      10.72680051       8.48705558      -0.00272851      -0.00551921       0.00175470
C       14.44727435      10.80808996      10.23969056      -0.00033520      -0.00990641       0.00177130
Cl      10.35270317      10.34431416       5.40471553       0.01289117      -0.00944111      -0.00206953
Cl       7.70489648      10.23933239       6.58797696       0.01064476       0.00931925      -0.00637627
Cl       9.54006011       8.01754548       6.94272504      -0.00179735       0.00364172       0.00472686
Cl       8.36825294       8.51310053       4.34679783       0.00511777      -0.00154437       0.00184909
C        8.97895052       9.26934088       5.82385941       0.00581953       0.00055064      -0.00026867
Cl       0.81295319       2.49192216       5.25437850       0.00849974      -0.01344189       0.03098564
Cl       3.40832006       1.60348103       4.19902341       0.00027213       0.00063807       0.00066638
Cl       3.27878959       3.16267264       6.63698387       0.01931182       0.01149815      -0.00530994
Cl       2.66478068       4.40382602       4.09663869      -0.02144087      -0.00513238      -0.00366911
C        2.59444121       2.92280253       5.04073983       0.00120303      -0.00116318       0.00458029
Cl      13.85124967       2.53771508      12.13079671      -0.00333351       0.00452504       0.00709975
Cl      14.58005830       0.08159576      10.77800629      -0.00287455       0.00589055       0.00421876
Cl      16.28141884       1.15119015      12.87274608       0.00094408       0.00790656      -0.00010687
Cl      16.10204058       2.50616616      10.30983976      -0.00845587       0.00822595       0.00089261
C       15.18373423       1.56447982      11.53247194      -0.00356272       0.00689304       0.00280386
