144
Lattice="12.6566207711781 0.0 0.0 0.0 12.6566207711781 0.0 0.0 0.0 12.6566207711781" Properties=species:S:1:pos:R:3:forces:R:3 energy=-328604.03125 stress="-0.0011025900021195412 0.0007385641220025718 -0.00019382412574486807 0.0007385641220025718 -0.0008377276244573295 -0.0004904069937765598 -0.00019382412574486807 -0.0004904069937765598 -0.0013465157244354486" pbc="T T T"
Y       10.17991351      13.44416599      11.57892488      -0.00847775       0.00028262      -0.00469521
Y       11.56287870      11.90370115       4.10661316       0.00614676       0.00359667      -0.00157474
O        5.53266483      11.26731604       4.08875024      -0.00842309       0.00360739       0.01141107
O        3.93499774      10.99965354       2.60674692       0.00562835       0.00593865      -0.00365472
O        4.27981184      12.97993395       3.53020530       0.00560057       0.00742292      -0.00794631
C        4.57899511      11.75246331       3.40631770       0.00100510       0.00587592      -0.00014304
O        8.91448236      12.07031861      10.44485288      -0.01609612       0.00739169      -0.00651407
O        8.03468398      13.48436189      11.91000538      -0.00594765       0.00166035       0.00449693
O        6.91933133      11.58648525      11.41128355      -0.03040361       0.02562594      -0.02752095
C        7.87523667      12.33137254      11.25709958      -0.01771411       0.01251206      -0.00981905
O       10.72498067      11.63943077       0.20096388      -0.00948647      -0.00205219      -0.00710124
O       10.29395130      13.58412592       1.16037699       0.01414250       0.00158763      -0.00470349
O       10.38169708      11.74852266       2.40637562       0.01086307       0.00116667      -0.00444627
C       10.47491605      12.32281389       1.24858903       0.00487675       0.00044325      -0.00560138
O       12.23181259       1.54955000       3.05988917       0.00424632       0.00369579       0.01016533
O       13.20274116       3.07362227       4.32631541       0.01962382      -0.00303447       0.00573522
O       12.91124704       0.96373422       5.07906652       0.00600466      -0.00040501       0.00727570
C       12.35071188       2.70963448       2.17451596       0.01304955      -0.00003576       0.00739217
C       12.66985179       3.80852201       3.16576533       0.02343743      -0.00160807       0.00535837
C       12.80958609       1.83410279       4.22101558       0.00973104       0.00045387       0.00782324
H       11.40302033       2.82316637       1.66447335       0.01325151       0.00640551       0.00863121
H       13.15456465       2.49756593       1.47316796       0.00976443      -0.00863783       0.00685537
H       13.42806160       4.51027275       2.84353555       0.02742314      -0.00783063       0.00502802
H       11.78565919       4.33451647       3.51531084       0.02914792       0.00624114       0.00573321
O        8.07471756       0.48144434       3.96794721       0.00701076      -0.00630993      -0.00855526
O        9.21756714       2.33595749       3.62994999       0.00037754      -0.00109211      -0.00020359
O       10.07170787       0.73634846       4.92976806       0.00289656      -0.00091258      -0.00178485
C        7.28823490       1.17616719       2.94284555       0.00384319      -0.00419839      -0.00456199
C        8.03275882       2.49929160       2.77425639       0.00418743      -0.00476444      -0.00611305
C        9.15331631       1.16302067       4.20546198       0.00302108      -0.00234188      -0.00370441
H        6.26851173       1.24400062       3.31811761       0.00552994      -0.00375284      -0.00050922
H        7.31527758       0.55507249       2.04864187      -0.00064863      -0.00286826      -0.00546262
H        8.39862553       2.65930553       1.76405387       0.00882909      -0.00899509      -0.00498217
H        7.51473709       3.38018422       3.13562317       0.00228000      -0.00352901      -0.01220943
O        6.31947291       4.11479173       5.37832813      -0.00525272      -0.02333229       0.00105995
O        5.43866188       6.12669804       5.04121965       0.00432321      -0.01696655       0.01615153
O        7.41597701       5.94274197       6.10788605       0.00370115      -0.03325561       0.02150115
C        5.13494439       3.88767606       4.57214657      -0.00445808      -0.01206517      -0.00303400
C        4.37814979       5.19448604       4.72774129       0.00158703      -0.00957941       0.00333374
C        6.48336894       5.44009134       5.54493992      -0.00439811      -0.02797648       0.01032844
H        4.62123600       3.00901190       4.95260488      -0.00879270      -0.01285526      -0.01007277
H        5.44400346       3.72662430       3.54030192      -0.00331452      -0.00738845      -0.00333264
H        3.89454446       5.52071551       3.81102023       0.00810915       0.00002410       0.00312078
H        3.67045593       5.20070394       5.55768952      -0.00315544      -0.01211753      -0.00083795
O       11.84772294       0.86474259       9.35616396      -0.00177908       0.00241965      -0.00278169
O       12.86859089       2.82025561       9.12205962       0.01662409      -0.00640333       0.00790944
O       12.23498771       2.09359768      11.16221966      -0.00292510      -0.00489932       0.00131226
C       12.24651031       0.89954909       7.95877847       0.00537337       0.00202799      -0.00035477
C       12.59787620       2.36976219       7.76401212       0.02440836      -0.00174507       0.00525481
C       12.33969086       1.96053272       9.96272165       0.00334125      -0.00309382       0.00333500
H       11.40103172       0.57091672       7.36295095       0.00481842       0.01408464      -0.00547822
H       13.10320143       0.23766158       7.84836959      -0.00209460      -0.00768594       0.00196402
H       13.48405306       2.54183617       7.16599343       0.03215924      -0.01194033       0.01409772
H       11.76299887       2.95682368       7.37948573       0.03601468       0.00883204      -0.00263668
O        9.28865984       2.79550326      10.03939025      -0.02200907      -0.00497943      -0.02613191
O        7.71702845       3.78049765      11.26255006      -0.00698861       0.00734964      -0.01902229
O        9.69030943       3.18984854      12.19198096      -0.00723262      -0.00536400      -0.02797937
C        8.18020382       2.99132446       9.11971107      -0.02303337       0.01227024      -0.02227539
C        7.03201891       3.32852241      10.06233269      -0.01615179       0.01445686      -0.01633993
C        8.92487561       3.27918122      11.26308112      -0.01365624      -0.00127141      -0.02607989
H        8.03563217       2.06617649       8.57109149      -0.03273351       0.01913303      -0.03081556
H        8.44388829       3.80474118       8.44551718      -0.01749657       0.01624900      -0.01589261
H        6.39254672       4.13496012       9.72015632      -0.01495776       0.01817212      -0.01078731
H        6.46220513       2.44402977      10.34219212      -0.01923683       0.01637778      -0.01653686
O       11.84121385       5.53239381       5.82473167       0.01763925      -0.00139093       0.00683688
O       11.32099294       7.63970314       5.37465675      -0.00323398      -0.00891307      -0.00292552
O       12.84753020       6.59272315       4.10877331       0.00187194      -0.00032353       0.00446385
C       10.73218635       5.83909520       6.70099971       0.01404554      -0.00707746       0.00379145
C       10.60554286       7.35520713       6.58421798       0.00930902      -0.00788963       0.00393343
C       12.08976255       6.59591237       5.03587978       0.01208663      -0.00289337      -0.00470161
H       10.99452552       5.50464526       7.70356206       0.01221643      -0.00705162       0.00376198
H        9.84154428       5.32597762       6.33509447       0.01747644      -0.00982875       0.00029083
H        9.57783615       7.68457137       6.44785669       0.00829113      -0.00960966       0.01310763
H       11.09726345       7.89582557       7.39349780       0.01688308      -0.00681438      -0.00162661
O        5.59298376       5.82115026       1.82028645       0.00295806       0.00157933       0.00476588
O        6.78855568       7.66758069       2.10812330       0.00420438      -0.00003546       0.00728859
O        7.58973885       5.70382302       2.83843311       0.00346094      -0.00295341       0.00953788
C        4.82616634       6.84021181       1.14568253       0.00494859       0.00269356       0.00389069
C        5.61677191       8.12869439       1.40644962       0.00595108       0.00116330       0.00510380
C        6.73412945       6.34508081       2.28926867      -0.00091577       0.00243914       0.00414798
H        3.82585535       6.82999183       1.57162498       0.00426847       0.00331225       0.00254953
H        4.76952875       6.58296119       0.09442425       0.00607605       0.00282647       0.00377375
H        5.94149624       8.61196197       0.48767999       0.00792922       0.00072035       0.00539887
H        5.12018947       8.86109800       2.04250023       0.00557831       0.00190970       0.00421333
O        4.84308585      10.64046487       9.12559061      -0.00169840       0.00457558      -0.01279538
O        5.23026652      12.81270589       8.85474531       0.00493953       0.00441352      -0.00234574
O        3.23985111      12.12832585       9.66155923       0.00922859       0.00744447       0.00608751
C        6.23633351      10.71673496       8.75692710      -0.00500342       0.00077784      -0.02275702
C        6.39783750      12.16180527       8.31109613      -0.00101081       0.00345927      -0.01348433
C        4.33867957      11.87745647       9.26137716       0.00299078       0.00671135      -0.00068176
H        6.42105868      10.00618845       7.95523833      -0.01439806       0.00548178      -0.02884555
H        6.82397988      10.50799293       9.64749322       0.00087765      -0.00766081      -0.02908599
H        7.28775852      12.60758818       8.74880259       0.00321987      -0.00467359      -0.01449488
H        6.38792961      12.28402546       7.22664730      -0.00752594       0.01172391      -0.01225966
O        1.57920234       9.59192850       3.20370228       0.00832334       0.00794017       0.00213671
O        1.58015891      10.48242817       1.18153773       0.00400817       0.00206873       0.00005853
O        0.73834964      11.62131507       2.90111744       0.00627782       0.00679091      -0.00132378
C        2.28785431       8.61509920       2.40855415       0.00591317       0.00525075       0.00331743
C        2.29960651       9.23522333       1.00354142       0.00633293       0.00287908       0.00265142
C        1.31754631      10.62936809       2.45436256       0.00696723       0.00439098      -0.00049628
H        1.73870880       7.67926023       2.48334435       0.00403556       0.00648874       0.00537985
H        3.27594649       8.53424004       2.84626359       0.00586224       0.00391923       0.00274797
H        3.29098846       9.50685593       0.65284564       0.00617522       0.00414215       0.00375729
H        1.76503675       8.64671782       0.26079264       0.00821796       0.00094838       0.00304416
O        3.28011380       3.78770958      10.54537989      -0.00703052       0.00483024       0.02272607
O        3.38433101       3.82551159      12.76763378      -0.00338131      -0.00798118       0.02250230
O        2.69823641       5.66350786      11.66029163      -0.01065600      -0.00561380       0.03310034
C        3.52389829       2.41705719      10.94716746      -0.00718950       0.00276542       0.01431760
C        4.01695377       2.58208766      12.37132379      -0.00427729      -0.00594197       0.01405883
C        3.08365646       4.53265136      11.65387290      -0.00823107      -0.00005502       0.02754278
H        4.23641622       1.96940389      10.26155290      -0.00888929       0.00562857       0.01122355
H        2.58667176       1.86401027      10.88999673      -0.00789994       0.00414701       0.01413452
H        3.69948887       1.79709363      13.05228990      -0.00322959      -0.00887564       0.01087597
H        5.09863593       2.71354905      12.43505945      -0.00428724      -0.00685485       0.01329168
O        3.06025058       9.36542329       6.14199332      -0.02959283      -0.01834235      -0.00872917
O        3.35875141       7.43382448       7.19936209      -0.02085319      -0.01183838      -0.00018544
O        1.27162052       8.10701126       6.67089378      -0.02353013      -0.02589743      -0.00708813
C        4.49394586       9.17176838       6.18801471      -0.02886647      -0.00958750      -0.00511026
C        4.63906627       8.11104324       7.26267376      -0.02481170      -0.00462282      -0.00103319
C        2.45603202       8.28970820       6.67265940      -0.02351570      -0.01932246      -0.00599343
H        4.95275363      10.13077552       6.40354135      -0.03551905      -0.00595787      -0.00809744
H        4.83666799       8.83755801       5.20896921      -0.02532834      -0.01132213      -0.00316387
H        5.42527506       7.39053222       7.06149782      -0.02116331      -0.00158009       0.00245255
H        4.73764642       8.52522805       8.26343349      -0.02786880       0.00029054      -0.00282258
O        8.87540010       7.68043296      11.38221360      -0.00329594       0.01886840       0.00283870
O        7.34423876       7.09060115       9.87760919       0.00434652       0.00510880      -0.00121410
O        7.05701177       6.52554933      12.03369234       0.02066612       0.02057415      -0.02474308
C        9.26718597       8.35786458      10.16427518      -0.00303480       0.01740164       0.00305523
C        8.42999851       7.64121115       9.11296786       0.00169318       0.01228668       0.00070530
C        7.70114901       7.05596607      11.18059896      -0.02211881      -0.00993395       0.03107667
H       10.33811090       8.21647066      10.03474187      -0.00417176       0.01948447       0.00661414
H        9.03193296       9.41904734      10.26703418      -0.00778285       0.01530653       0.00139023
H        8.01814971       8.29413274       8.34901532      -0.00184239       0.01006514       0.00329766
H        8.95342871       6.80970486       8.63781642       0.00641304       0.01595894       0.00245623
O        9.30611391       8.71610712       3.52540767       0.00680041       0.00500737       0.00691357
O       11.39674168       9.37525795       3.24798843       0.00813365      -0.00127554       0.00407533
O       10.24007392      10.21910938       4.92583512       0.01233748       0.00307721       0.00527656
C        9.77674786       7.97238966       2.34936661       0.00403950       0.00170046       0.00794840
C       11.11092228       8.63663486       2.02207012       0.00358099      -0.00030257       0.00452614
C       10.28028124       9.44545331       3.96683392       0.00956559       0.00108870       0.00461760
H        9.02431490       8.09475756       1.57981102       0.00312284       0.00055037       0.00904214
H        9.84558223       6.92907396       2.64321059       0.00361509       0.00232559       0.01004446
H       11.92194012       7.92839849       1.88376321       0.00207004      -0.00125962       0.00059526
H       11.04851945       9.36685972       1.21541541       0.00168832       0.00114739       0.00619027
