149
Lattice="11.299942441845587 0.0 0.0 0.0 11.299942441845587 0.0 0.0 0.0 11.299942441845587" Properties=species:S:1:pos:R:3:forces:R:3 energy=-434511.09375 stress="-0.006239036563783884 -0.0021548200165852904 -0.0010429986286908388 -0.0021548200165852904 -0.0025398980360478163 0.0005510046030394733 -0.0010429986286908388 0.0005510046030394733 -0.006707653868943453" pbc="T T T"
Y        8.21061621      11.64784570       9.95196416       0.00120088      -0.00412367      -0.00688055
Y        3.17119655      12.47750870      -0.20682205      -0.00260158      -0.00312099       0.00387855
S        3.42838944       7.30739059       4.50617863      -0.00165975      -0.00601179      -0.00174259
S        7.52598955       7.85458319       2.31425523      -0.00163513       0.00153720       0.00229448
S        5.58350828       7.29129863       4.85915829      -0.00225882      -0.00975192       0.00021322
S        6.34611874       6.35663935       3.26733454       0.00199080      -0.00220929      -0.00100589
O        3.15279123       6.21663834       3.59487210      -0.00194444       0.00315183      -0.01025069
O        7.99057204       8.76363067       3.35337646      -0.00135766      -0.00002688       0.00296438
O        3.15062962       8.64181667       3.95716520      -0.00106342      -0.00123990       0.00874621
O        2.92507615       7.10947564       5.84987255      -0.00128636      -0.01488113      -0.00418997
O        8.58684133       7.00829467       1.75182132      -0.00148740       0.00449353      -0.00075595
O        6.73567026       8.52004532       1.27374457      -0.00404403       0.00192234       0.00495851
S        4.73316185       5.56203117       8.18591009      -0.00264621       0.00372350       0.00646827
S        3.14344706      10.12026833       8.43244151      -0.00100523      -0.00262496       0.00887111
S        5.50133860       7.66243716       8.41350087      -0.00188988       0.00288338      -0.00084248
S        4.73475999       9.16943961       7.31791768      -0.00769841      -0.00108518      -0.00135709
O        4.90660274       5.08756199       6.82876019      -0.00161857      -0.00149620       0.00959945
O        3.79749735      11.06894010       9.36055380       0.00059262      -0.00273171       0.00390968
O        3.37753408       5.48305595       8.70930197      -0.00341272       0.00798843       0.00502732
O        5.75635112       5.06846893       9.10996307      -0.00485444       0.00661561       0.00913388
O        2.40471333      10.79304968       7.38997143       0.00044969       0.01183891      -0.00146574
O        2.43031606       9.07471386       9.15393057      -0.00643694       0.00891012      -0.00459975
S        0.81305435       3.07631342       5.72658337      -0.00043231       0.02243390      -0.01313084
S        4.78350548       2.29730135       2.88528436       0.00299188       0.00030851      -0.00216949
S        2.97477743       3.03115530       5.45971230       0.00148204       0.00300002      -0.00338063
S        3.21287720       1.48997943       4.12568017       0.00738534      -0.00090479       0.00264531
O        0.27383019       2.39897791       4.53680365       0.00540337      -0.01301560      -0.00221521
O        6.00145695       1.81862692       3.52555279       0.00497878       0.00055131      -0.00425020
O        0.52044606       4.49177951       5.78487347       0.00047188      -0.02276754      -0.01373729
O        0.55361619       2.31990058       6.93086955       0.00220889      -0.00363129       0.00680846
O        4.58282016       1.64442872       1.56922269       0.00106931      -0.00066581      -0.00054416
O        4.64216438       3.73480903       2.81609944       0.00183214      -0.00205171      -0.00140597
O        8.43451391       1.67519730       5.57075836       0.00094503       0.00170999      -0.00328828
H        9.12714457       1.29199945       6.12583507      -0.00297128      -0.00865284      -0.00647286
H        8.84607390       1.87266989       4.69636418       0.00167847       0.00140795      -0.00278860
O        0.21431760       5.99436647       2.11534011       0.00122702       0.00844640       0.00753849
H       -0.03627301       6.68604082       2.79399519      -0.00152632       0.00541958       0.00861037
H        1.16453649       6.09860736       1.97745092       0.00161144       0.00840439       0.01445539
O        2.22431357       3.08739181       0.57313958      -0.00596890      -0.00723965       0.00576073
H        2.60928862       3.99168104       0.68350987      -0.00508570      -0.00699847      -0.00097327
H        1.38840717       3.09571337       1.12004994      -0.00503398      -0.00208902       0.00633282
O       10.68642322       8.50414094       0.67600973       0.00245389       0.00161618       0.00390192
H       10.04481012       7.92794013       1.12440046       0.00262141       0.00222646       0.00402778
H       11.23184507       7.93032329       0.08332034       0.00430639       0.00076266       0.00612312
O        0.68955592       4.31255586       9.25591430       0.00538132       0.00147310      -0.00145853
H        1.44854372       4.91207733       9.28556219       0.00810601      -0.00174023      -0.00560173
H        0.12540293       4.55533503      10.02548408       0.00960605       0.00333445       0.00076903
O        5.16025458      10.34511194       3.04688488      -0.00837597      -0.00120000       0.00698447
H        5.50981440      11.09935123       3.53933151      -0.00424450      -0.00772765       0.01245249
H        4.60242205       9.82671130       3.65026584      -0.00856983      -0.00410781       0.00428779
O        8.78085214       3.97533342       8.60232736       0.00236155      -0.00052261       0.00642564
H        8.25710142       4.14541510       7.77198086       0.00180555       0.00089543       0.00743100
H        9.24401287       4.80237396       8.79837342       0.00146077      -0.00058289       0.00853810
O        6.74412669       0.34944442       8.24288013      -0.00039849       0.00086403      -0.00560561
H        6.36356417       1.03587037       7.60642849       0.00012501       0.00192504      -0.00423294
H        6.31675915      -0.48503833       7.98254872      -0.00242364       0.00206923      -0.00539669
O       -0.31825640       9.14484662       8.72176997      -0.00799684       0.00245667      -0.00738509
H        0.64770391       9.09701255       8.62181725      -0.00779158       0.00482474      -0.01102762
H       -0.63911432       8.25129034       8.47444781      -0.00473975      -0.00064074       0.00002973
O        2.89345434       5.61519106       1.03882454      -0.00049450      -0.00833510      -0.00903557
H        3.09088333       5.71395111       1.99622058      -0.00115199      -0.00884535      -0.00939416
H        3.63108553       6.13514587       0.62631766      -0.00025317      -0.00844617      -0.00723560
O        1.21228408       0.37024249       0.65379104      -0.00430012      -0.00915311      -0.00917215
H        0.37976833       0.26277844       0.15596910      -0.00267911      -0.01309902      -0.01065159
H        1.27750163      -0.41134997       1.27125955      -0.00459944      -0.00426385      -0.00397886
O        9.75844694       1.55083836       8.82443779       0.00161500      -0.00256751      -0.00621255
H        9.66547528       2.50682310       8.60236327       0.00255754      -0.00167082      -0.00101968
H       10.17593778       1.06218499       8.06296746       0.00212091       0.00183538      -0.00703102
O        7.48537232      11.08709819       0.72335390       0.00018542      -0.00425795      -0.00886673
H        6.95567203      10.28359635       0.90447519      -0.00028160      -0.00354365      -0.00763554
H        8.25600979      11.00739423       1.37947049      -0.00141720      -0.00234150      -0.00690469
O        4.30470445       2.76954026       9.77696760       0.00186484      -0.00170767       0.01248720
H        4.99104665       3.43852212       9.95108938      -0.00938144       0.00661477       0.02397426
H        3.64440050       3.24681900       9.25320863       0.00715914      -0.01405454      -0.00321476
O        7.88972319       9.50722923       9.39108449       0.00033803      -0.00114514      -0.01327183
H        8.05714985       8.64669489       9.88171053      -0.00035510      -0.00152558      -0.01265009
H        8.02456484       9.22065626       8.42684668      -0.00289757      -0.00007294      -0.01331182
O        8.36757208       8.74043751       6.99076093      -0.00571499       0.00962564      -0.01743537
H        7.93599116       7.91103686       6.75997249       0.00619379       0.00554335      -0.02468116
H        8.00060470       9.41236413       6.36163072      -0.01178174       0.00899642      -0.01346492
O       10.20568221       5.06696489      -0.16397803       0.00908514       0.00330314      -0.00024506
H        9.58842994       4.49922501       0.33441506       0.00695658       0.00529908      -0.00152762
H       10.68376587       5.54158180       0.54202216       0.00612374       0.00541155      -0.00002776
O        7.53186380       2.52242296      10.35386150       0.00593036      -0.00586736       0.00097467
H        7.91798999       3.21034121       9.73216312       0.00492121      -0.00364703       0.00327034
H        6.91938405       3.00555567      10.93979145       0.00266832      -0.00929417      -0.00043206
O        8.36482090       7.09955874      10.09529608      -0.00396265       0.00558764       0.00668219
H        9.05671016       6.83547073       9.46164036       0.00231916      -0.00254389       0.01717107
H        8.64661492       6.72212008      10.93851887      -0.01302493       0.02147219       0.01582781
O       11.53230979      -0.30445660       4.65043535       0.01138513      -0.01012782      -0.00394276
H       11.62312107       0.65177892       4.47933927       0.01001784      -0.01171715      -0.00929229
H       11.18535557      -0.70271093       3.84298421       0.01224869      -0.01596496      -0.00252282
O        9.14827415       2.05460524       3.02880825       0.00298071       0.00037566      -0.00470066
H        8.46162597       2.62422614       2.63434744       0.00040632      -0.00282486      -0.00438740
H        9.96673499       2.49422114       2.71355465       0.00068552       0.00454151      -0.00433552
O        1.14671196       6.99799343      10.56872975      -0.00088668       0.00531039       0.00398742
H        1.71857247       6.56044509      11.22310656      -0.00022346      -0.00022574      -0.00121032
H        1.74115246       7.56219996      10.05363044      -0.00113833       0.00547273       0.00328965
O        4.91601539       6.93220479      11.38629730       0.00086041      -0.00164726       0.00275815
H        4.86131796       7.31178408      10.49455957       0.00543550      -0.00207361       0.00253876
H        5.49518402       7.54605115      11.88033335      -0.00381596      -0.00053596       0.00567761
O        9.48436897       6.05762097       5.52496982      -0.00211058       0.00192937       0.01423047
H        8.74754479       5.42392832       5.63431557       0.00029011       0.00129656       0.01184642
H       10.26850960       5.50568261       5.36583889      -0.00040197       0.00148419       0.00840079
O       -1.07305663      -0.60311093      10.66799565      -0.00199802      -0.00611171      -0.00547457
H       -0.73976826      -1.14325604       9.88726067      -0.00338621      -0.00818238      -0.00568052
H       -1.07652481      -1.33802200      11.34606557      -0.00092514      -0.00407645      -0.00347154
O        5.73095089       1.96093020       6.54706813       0.00236699       0.00387626      -0.00398019
H        4.78003464       2.13511000       6.62039160       0.00280404       0.00587912      -0.00515303
H        5.88702061       1.69663520       5.62719770       0.00235281       0.00232916      -0.00299197
O        9.49853426      10.85194575       2.31659816      -0.00346483       0.00110896      -0.00692800
H        9.17581771      10.15101701       2.90831147       0.00010305       0.00330548      -0.00248383
H        9.34881288      11.73442594       2.73934972       0.00162566       0.00186201      -0.00794780
O        1.54016187       9.42516754       1.91278963      -0.00028615      -0.00002447       0.00736752
H        1.91020816       9.12970245       2.76502722       0.00009727       0.00081131       0.00744840
H        0.71008878       8.93643208       1.72185404       0.00142184      -0.00144772       0.00666782
O       10.80339408       7.92817525       3.75704994      -0.00112444       0.00615645       0.01155955
H        9.95652360       7.60412817       4.09453332      -0.00225814       0.00924154       0.01099262
H       11.30437840       8.12496038       4.59544022       0.00037172       0.00187557       0.01108389
O       -1.04029244       6.49770706       8.12098149      -0.00214647       0.00146583       0.01062033
H       -1.29111881       6.43436701       7.16633028      -0.00236291      -0.00298362       0.01045741
H       -0.29475940       5.88619142       8.24584301      -0.00016122       0.00481135       0.01192924
O        5.91582042       4.30947933       0.44291037      -0.00081405      -0.00353950      -0.00132183
H        5.71678509       5.17092286       0.02467345       0.00195551      -0.00182250       0.00148995
H        5.33501986       4.23834628       1.22535762       0.00205436      -0.00226758       0.00066543
O       10.18199188      11.08844796       6.99801579       0.00100905       0.00440715      -0.01376327
H       10.67861302      11.03909932       6.15150221       0.00579088      -0.00055084      -0.01009160
H       10.42449693      10.26062429       7.46535315      -0.01047104       0.00146341      -0.01302265
O        3.81548150      10.47286201       0.81164471      -0.00276238      -0.00022900       0.00586136
H        4.35075400      10.49077819       1.65519791      -0.00315072       0.00090636       0.00541437
H        3.12387868       9.80333996       0.95852036      -0.00253257      -0.00009452       0.00692555
O        0.13782910       3.31988614       2.11405447      -0.00179072       0.00810744       0.00734726
H        0.06892261       4.30043575       2.19981950       0.00055947       0.00827884       0.00747333
H        0.45153761       3.03160784       2.99773288      -0.00393927       0.00567323       0.00692211
O        7.54697189       4.25482100       6.28316188       0.00013942       0.00140738       0.00831020
H        7.64960477       3.32742933       5.99574422      -0.00022772       0.00318876       0.00526239
H        6.59093867       4.42654308       6.38404123       0.00030294       0.00115681       0.00910540
O        8.30257103       4.17305280       1.65846764       0.00322866       0.00196001      -0.00739765
H        7.43006251       4.33047876       1.23553139       0.00275184      -0.00097434      -0.00611541
H        8.50885914       5.01213211       2.09451051       0.00027184       0.00171536      -0.00611192
O        1.69673320       1.83647956       9.39660973       0.00629276       0.00137064      -0.00427902
H        1.25055985       2.73130445       9.39273044       0.00486699       0.00094105      -0.00282552
H        1.57359634       1.50123449       8.49557183       0.00635485       0.00049419      -0.00078648
O        7.16038467      10.52013608       5.38349959      -0.01137760       0.01127167      -0.01119703
H        7.25841655      10.05743151       4.53777369      -0.00574187       0.00823979      -0.00918273
H        7.64574132      11.36757949       5.32335602      -0.00797438       0.00861180      -0.01011336
O        0.69198693       8.60373588       6.01628021       0.00892149      -0.00251341       0.00930026
H        1.00886691       9.49065670       5.79445128       0.01233931      -0.00541179       0.00702418
H        1.50059678       8.06527411       6.10650725       0.00614808      -0.00764015       0.00473515
