150
Lattice="12.612386714749473 0.0 0.0 0.0 12.612386714749473 0.0 0.0 0.0 12.612386714749473" Properties=species:S:1:pos:R:3:forces:R:3 energy=-359675.15625 stress="-0.00021559868764597923 -0.0003748627204913646 0.00027121785387862474 -0.0003748627204913646 0.0007273400551639497 0.00015642797370674089 0.00027121785387862474 0.00015642797370674089 -0.0002495678490959108" pbc="T T T"
Y       13.88550796      11.29744393       8.18291895      -0.00197902       0.00132442      -0.01369241
Y        9.61691645      10.70263481       6.55838360       0.01067853      -0.00027698      -0.00994188
P        7.72833562      11.09253952       4.57651007       0.00375977       0.00597429      -0.00176391
O        6.14743061      11.18256723       4.66609839       0.00467795       0.01688781       0.00144687
O        8.32476684      12.10904821       5.60791403       0.01406034       0.00566578      -0.00768405
O        8.20919248      11.17425888       3.17956521       0.00264290       0.00335413      -0.00133371
O        8.15701478       9.73962881       5.30138830       0.00124996       0.00247204      -0.00496483
H        5.76837709      11.05421261       3.77549952       0.00058196       0.00757061       0.00417458
P        3.30018494      12.99776074       7.22598672      -0.00833255       0.00803715      -0.01400641
O        3.16899785      13.14696554       5.63360874       0.00281806       0.00000376      -0.01546550
O        4.40674866      13.85465269       7.70038586      -0.01435137       0.01481164      -0.01083660
O        3.38472531      11.47132335       7.54261280      -0.00085980       0.01050794      -0.00422650
O        1.86902481      13.33121355       7.80227058      -0.01296020       0.00404853      -0.02572817
H        2.46374198      12.58641404       5.27465215       0.00169874       0.00293066      -0.01791149
P       12.33278181      10.29128136       5.89877079       0.00868690      -0.01968159      -0.00954018
O       12.41950894       8.79131455       5.44439710       0.00254582      -0.02396521       0.00555100
O       13.68095860      10.96395736       5.92028742       0.01073331      -0.02426928      -0.01206577
O       11.80891911      10.41057680       7.38683535       0.00571084      -0.00289029      -0.01111323
O       11.17527662      10.85477461       5.07431289       0.01151738      -0.02201781      -0.01491237
H       13.18406805       8.24347406       5.78647766       0.00506904      -0.02209621       0.00443844
O       11.01568879       1.22999953       2.42492113       0.03439075       0.02017423      -0.02586523
O       12.31179328       2.22676915       3.92819184      -0.01716104      -0.00174743       0.02692315
O       12.84180726       0.16035822       3.18504188       0.01889396       0.01438141       0.00701763
C       10.31194861       2.44211700       2.76478056       0.00873983      -0.00251862      -0.00473896
C       11.37410151       3.24186196       3.50302093      -0.00799268       0.00089106       0.01013675
C       12.12277029       1.11275288       3.17790003       0.01445699       0.01295972       0.00004573
H        9.45712284       2.18684520       3.39123341       0.02040514      -0.03767337      -0.00719976
H        9.98642583       2.90977424       1.83921115      -0.00613602       0.00852205       0.00662893
H       11.89625029       3.95145104       2.86169312       0.00442088      -0.00472486       0.01460806
H       10.98795024       3.74567361       4.38704327      -0.02030508       0.00358218       0.00275391
O        9.02979048      12.82020952       0.44615261       0.00718057       0.00201473      -0.00479406
O        8.24374332      11.10546122      -0.72568628       0.00041343       0.00210553      -0.00027161
O        7.29797143      13.12887473      -0.94449150       0.00460809       0.00390345      -0.00102592
C        9.92580115      11.72341812       0.76354826       0.00460559       0.00032592      -0.00410593
C        9.17857363      10.52109471       0.20906584       0.00045770       0.00109512      -0.00079439
C        8.12434952      12.41746896      -0.43571866       0.00416583       0.00276336      -0.00223568
H       10.03081777      11.69506944       1.84061702       0.00617695       0.00168498      -0.00404799
H       10.87920996      11.91871633       0.27531129       0.00449604      -0.00331357      -0.00578457
H        9.80763877       9.82538392      -0.34073794      -0.00247520      -0.00172761      -0.00068329
H        8.59775740      10.01622892       0.97933777       0.00013369       0.00402251       0.00083825
O        6.56740130       2.24683301       4.49800600       0.01654404       0.00463012      -0.00798644
O        6.28886786       4.09772469       5.69184603       0.00251636      -0.01186673       0.01320246
O        8.34016622       3.20054715       5.49138941       0.01082110       0.00918972       0.00123292
C        5.16799961       2.57420736       4.32967533       0.01392847      -0.00274768      -0.00402033
C        4.94033508       3.66730095       5.36637514       0.00563332      -0.02269268       0.01372176
C        7.16267413       3.16641062       5.24664081       0.00876158       0.00146081       0.00144215
H        4.57866734       1.68416373       4.52691705       0.02048051      -0.01006204      -0.01974738
H        5.02988176       2.91875538       3.30389726       0.01200156       0.01326478       0.00178331
H        4.39790660       4.52805024       4.97688314      -0.00652575      -0.02332368       0.03065161
H        4.47718275       3.28681866       6.27625747       0.01700337      -0.04355514       0.01027644
O       11.40649895       1.03871395       7.92299096      -0.00495377      -0.00335288       0.00250229
O       12.50237436       2.14588580       9.48868364      -0.00306582      -0.00050555      -0.00068808
O       12.40672206      -0.08686963       9.57412278       0.00425409      -0.00063366      -0.00311729
C       11.42740734       2.40606115       7.42481877      -0.00666532      -0.00427961       0.00008160
C       12.15052973       3.17351405       8.53773134      -0.01306880      -0.00091213       0.00173907
C       12.13165714       0.97633073       9.04142325      -0.00041914      -0.00297776       0.00042960
H       10.39959793       2.72132215       7.26600335      -0.00722888      -0.00827402      -0.00405518
H       11.97394618       2.39261602       6.48495931      -0.00280279      -0.00515198       0.00243172
H       13.07792967       3.63438900       8.20741557      -0.01786304       0.00863174       0.00245984
H       11.51996463       3.89571071       9.04702900      -0.01893067      -0.00798410       0.00396723
O        9.41633172       2.68089852      10.34299641      -0.01031163       0.00217360      -0.00695120
O        8.68381350       3.98986956      11.98700834      -0.00960398      -0.00246843      -0.00297343
O       10.85614239       3.41622349      11.91347897      -0.01098228      -0.00771873      -0.00201601
C        8.04681752       2.99277410       9.99404985      -0.00886653       0.00700893      -0.00789762
C        7.48909199       3.56597047      11.28736107      -0.00954801       0.00390459      -0.00675204
C        9.75188844       3.35738726      11.46066774      -0.01023257      -0.00318637      -0.00364944
H        7.55959721       2.07291956       9.68663463      -0.01073623       0.00942284      -0.01215457
H        8.06015945       3.71988450       9.18172537      -0.00569555       0.00985146      -0.00528499
H        6.85333343       4.43427420      11.13967624      -0.00642417       0.00655246      -0.00463040
H        6.99704766       2.81273684      11.89404713      -0.01313291       0.00353500      -0.01026240
O       10.61854927       6.15387345       6.99764783       0.00782710       0.00745720       0.01030707
O        9.60576681       8.13465574       7.18713840       0.00935215       0.00718561       0.00207394
O       11.60025785       7.76067638       8.21642338      -0.01401079      -0.00065126      -0.00030833
C        9.42481467       6.05091770       6.18891028       0.01226379       0.00761497       0.00254112
C        8.58567494       7.20686026       6.68308225       0.00997275       0.00583954       0.00138818
C       10.71654679       7.36868317       7.52878243       0.02650750       0.01497428       0.02383626
H        8.97422336       5.07598776       6.35471451       0.01171564       0.00715023      -0.00202794
H        9.72115677       6.13978917       5.14390759       0.01867495       0.01125438       0.00475317
H        8.02569691       7.73201104       5.91676248       0.00928073       0.00555126       0.00124618
H        7.96408153       6.92848738       7.53202486       0.01083894       0.00593153       0.00259048
O        4.98061293       8.20903953       2.41024030       0.00184871      -0.01051629       0.00567697
O        6.06134268       8.75266939       0.54362368      -0.00715843       0.00131539       0.00423047
O        5.47824723      10.36586342       1.99846813      -0.00361750      -0.00757182       0.01474921
C        5.24884744       6.94185412       1.77324702      -0.00115770      -0.00661826      -0.00359350
C        5.80598334       7.33532500       0.40838503      -0.00683261       0.00205666      -0.00334120
C        5.50518257       9.21575314       1.67959460      -0.00298707      -0.00576884       0.00896513
H        4.32156780       6.38214403       1.69074356      -0.00172815      -0.00575785      -0.00318690
H        5.96539939       6.39983816       2.39139603       0.00116614      -0.01082747      -0.01013875
H        6.74522591       6.84797083       0.15815219      -0.00753936       0.00437061      -0.01020478
H        5.08332346       7.17706488      -0.38886023      -0.01008940       0.00669090      -0.00122365
O        4.48274496       9.19051813       9.48845364      -0.01021692       0.00745565      -0.00245714
O        4.21755878      11.24978323      10.23694292      -0.02375792       0.00268844       0.00554052
O        2.41426293      10.00522888       9.74924997      -0.01497951      -0.00244424      -0.01195003
C        5.83028331       9.69377583       9.72895636      -0.01361340       0.01219210       0.00653039
C        5.60377792      11.19152354       9.78715321      -0.02033430       0.01108170       0.01513152
C        3.62799335      10.15307350       9.81665692      -0.01700529       0.00216731      -0.00338387
H        6.45047603       9.35793773       8.90062460      -0.00945136       0.02004036       0.00673863
H        6.19271862       9.27093908      10.66392069      -0.01603087       0.00797291       0.00568604
H        6.21423130      11.72055693      10.51007379      -0.02631705       0.00734757       0.02294686
H        5.62315785      11.67844893       8.80999121      -0.01631422       0.01808940       0.01886255
O        2.41027455      10.97165770       2.03762611       0.00522754       0.01584082      -0.00620824
O        1.22924184      10.44123229       0.22949441       0.00516188       0.00731039      -0.00347346
O        2.20860479      12.46851232       0.36170904       0.00747299       0.00637293      -0.01422071
C        1.75386505       9.72828488       2.35399333       0.00280526       0.01898773       0.00127923
C        1.36373782       9.21779521       0.98014931       0.00182717       0.01150915       0.00427347
C        1.97146115      11.40199769       0.84491931       0.00608274       0.00972134      -0.00870565
H        0.88664409       9.94734615       2.97670086       0.00331211       0.02514708      -0.00004259
H        2.45572324       9.09297150       2.88852494       0.00136000       0.02115268       0.00546172
H        2.13956734       8.60642364       0.51195620       0.00033230       0.00671455       0.00816011
H        0.42013395       8.68370437       0.96674186       0.00032231       0.01403929       0.00731265
O        2.56891064       3.76389651      10.89741778      -0.00527042      -0.00550072       0.00223273
O        4.39683261       3.35514561      12.08872788      -0.00404009      -0.01407710      -0.00267665
O        3.49341462       5.41043863      12.12610757       0.00425214      -0.01061881       0.00185496
C        2.76695022       2.32555386      10.79704744      -0.00978112      -0.00562114      -0.00237498
C        4.17932781       2.14569787      11.31458513      -0.01017118      -0.01223186      -0.00347790
C        3.47877971       4.27473543      11.73429806      -0.00119629      -0.01021338       0.00060511
H        2.65379768       2.03486820       9.75518878      -0.01068635      -0.00140581      -0.00347549
H        2.02490712       1.83606677      11.42416174      -0.01086670      -0.00568962      -0.00388023
H        4.29291443       1.28992671      11.97378310      -0.01412538      -0.01327467      -0.00424019
H        4.91295618       2.11355651      10.50782396      -0.01085052      -0.01479987      -0.00394845
O        3.37239290       8.50658621       5.74410958       0.00220633      -0.01522343      -0.01086900
O        3.70339613       6.74714915       7.05128320       0.01229793       0.00491658       0.01282434
O        1.64069926       7.20551557       6.32665118       0.01083899      -0.01731914       0.00528101
C        4.76140797       8.62361410       6.14171040      -0.00114408       0.00187546      -0.00538252
C        5.02510805       7.28354671       6.83016068       0.00918144       0.00672892      -0.00106514
C        2.81823259       7.47286775       6.36782803       0.00590593      -0.01088453       0.00275866
H        4.83271890       9.49356601       6.79242897      -0.01394083       0.00394502      -0.00692061
H        5.35471755       8.78902978       5.24842921       0.00049812       0.00555372      -0.00332618
H        5.57040135       6.57456423       6.20666584       0.00474982       0.00506550      -0.00293595
H        5.50620675       7.36845301       7.80085313       0.01757795       0.01214569      -0.00614968
O        9.01408301       7.20386567      11.55900310       0.00402990      -0.00106333       0.01059300
O        9.95546713       5.97138434       9.96918339       0.00013120       0.00191096       0.00602269
O        7.79445443       6.57041496       9.77926742       0.00315732       0.01163874       0.00707686
C       10.31115531       6.82060770      12.08289670       0.00306065      -0.00669258       0.00930882
C       11.05065240       6.35299299      10.84904471       0.00168073      -0.00545422       0.00787912
C        8.83077084       6.57920731      10.38612988       0.00244403       0.00470444       0.00751883
H       10.16357538       6.02041306      12.80332788       0.00120346      -0.00802815       0.00739908
H       10.75701139       7.69492106      12.54941080       0.00561564      -0.00914511       0.01117224
H       11.61190563       7.13816567      10.34982217       0.00577401      -0.00580478       0.01073259
H       11.66778400       5.47922341      11.02932994      -0.00233006      -0.00885794       0.00528196
O       10.04031700       6.36899302       2.66379734       0.00372897      -0.00618830       0.00801577
O       11.23749375       8.23944155       2.53693249      -0.00021324      -0.00423542      -0.00037310
O       12.18729928       6.27949450       1.96444970       0.00439727      -0.00498772       0.01057762
C        9.10861084       7.46240976       2.84024736       0.00102437      -0.00760204       0.00172968
C       10.02722247       8.58590846       3.25080546      -0.00180427      -0.00324970      -0.00356978
C       11.25451088       6.90746657       2.36551785       0.00327075      -0.00535569       0.00637558
H        8.37901388       7.18760501       3.59671506       0.00134422      -0.00518256       0.00299981
H        8.60714566       7.65111260       1.88686115       0.00093377      -0.01375768       0.00071719
H        9.69517020       9.58382134       2.98206189      -0.00258175      -0.00453714      -0.00836174
H       10.26383739       8.55122384       4.31054212      -0.00282414       0.00240436      -0.00331014
