148
Lattice="13.181730488276099 0.0 0.0 0.0 13.181730488276099 0.0 0.0 0.0 13.181730488276099" Properties=species:S:1:pos:R:3:forces:R:3 energy=-462558.125 stress="-0.000400023243855685 0.0004058203048771247 0.0001672061043791473 0.0004058203048771247 -0.0006370227201841772 0.00014137945254333317 0.0001672061043791473 0.00014137945254333317 -0.0015682606026530266" pbc="T T T"
Y       10.26078274      12.79437215       1.83297137      -0.00749885       0.00242493       0.00990540
Y        5.54798019      12.12219677       0.28580693      -0.00035620       0.00575869      -0.01210403
S        7.97585360      11.37772288      13.97208920      -0.00587574       0.00531098       0.00813061
S        7.62974229      13.47539531      14.12015565      -0.00668662       0.00678974       0.01190976
S       12.42204635      13.52163626       0.12323177      -0.00651810      -0.00248840       0.00464121
S       10.69247846      12.92785931      -0.81787539      -0.00857595      -0.00561227       0.01066762
S       12.55343289      12.45214271       3.29217394      -0.00776637       0.00107701       0.00694400
S       12.91910645      11.85292246       1.35623765      -0.00277108       0.00258407       0.00649828
S       10.54089471       2.67841688       3.70695613       0.00558151       0.00436258       0.00130290
O       10.05758258       1.71468554       2.63793297       0.00198521       0.00557104       0.00877926
C       12.18168925       3.16523665       3.19538876       0.00976092      -0.00550327       0.00366196
C       10.98577149       1.71492604       5.15176089      -0.00009829       0.00984502       0.00736123
H       12.07026947       3.75046855       2.28496407       0.01418024      -0.01084310      -0.00015724
H       12.75413402       2.25517957       3.01701729       0.00519142      -0.00907522       0.01119792
H       12.62186738       3.77203907       3.98613847       0.00964125      -0.00279482       0.00089428
H       11.20279032       2.41518673       5.95823086      -0.00053668       0.01128995       0.00538516
H       11.83712124       1.07284444       4.93133391      -0.00153890       0.00639431       0.01174782
H       10.11503588       1.11043513       5.39714495      -0.00259992       0.01282641       0.00691889
S        8.30500860      11.50548486       4.74230856      -0.00956687      -0.00343141       0.00776196
O        9.34059606      12.06026120       3.76896451      -0.01070899       0.00211060       0.00744176
C        7.71764824       9.96980819       4.05570531      -0.00655188      -0.00254482       0.00395197
C        6.83159886      12.49418961       4.49719822      -0.01084283      -0.00500208       0.01266387
H        8.47375852       9.20127866       4.21346234      -0.00730789      -0.00216241       0.00518440
H        7.52405731      10.10512224       2.99276898      -0.00475718      -0.00112067       0.00332218
H        6.81396430       9.70717222       4.60215135      -0.00836867      -0.00336474       0.00064456
H        6.05253709      12.08415062       5.14025188      -0.01026057      -0.00969691       0.01052243
H        6.55984811      12.47961403       3.44189940      -0.01119676       0.00060057       0.01314187
H        7.07709973      13.51397786       4.78781695      -0.01420944      -0.00699595       0.02036206
S        3.10631653       1.43058954       0.79976394      -0.00988057      -0.00489585      -0.01126148
O        4.25382368       0.44336038       1.16364918      -0.02114338      -0.00432920      -0.02119262
C        3.88673007       2.98369412       0.44405398      -0.00460809      -0.00538370      -0.01383959
C        2.37865968       1.82752661       2.37234112       0.00079037       0.00484258      -0.00665319
H        4.69808838       2.80460286      -0.26010452      -0.00875716      -0.01343139      -0.01897924
H        4.26582995       3.42367089       1.36895737       0.00325754      -0.01023662      -0.01788557
H        3.12604635       3.61749025      -0.02415555      -0.00103238      -0.00119075      -0.01131502
H        1.64844046       2.60976836       2.16443845       0.00581260       0.01037978      -0.00286981
H        3.15134241       2.21711093       3.03513026       0.00609571      -0.00300300      -0.01262727
H        1.87817370       0.93840917       2.75653003      -0.00534224       0.00784713      -0.00411560
S        5.61770715       4.76293075       3.88431481       0.00769722      -0.00883299      -0.00760567
O        4.34527827       4.20961617       3.31124245       0.00247645      -0.01412237      -0.01663047
C        6.14490903       6.17592230       2.90397739       0.00105809      -0.00944588      -0.00812113
C        6.94475553       3.66808663       3.33287096       0.00573581      -0.00906324      -0.00554925
H        5.39949128       6.95291453       3.05412296      -0.00130533      -0.01269230      -0.01237019
H        6.19419653       5.89097568       1.85197158       0.01060268      -0.01029828      -0.00686276
H        7.11993743       6.49640515       3.27526974      -0.00131895      -0.00463808      -0.00185731
H        7.89259286       4.10788356       3.64187310       0.00492847      -0.00760060      -0.00185567
H        6.89511752       3.56806328       2.24610036       0.01047597      -0.00854706      -0.00534913
H        6.80549694       2.69645162       3.80536340       0.00661323      -0.00887465      -0.00618712
S        7.95463434       3.64205087      11.67044841       0.00197947       0.00676262       0.01365280
O        6.81592682       3.67989666      12.64704030       0.00628948       0.00255177       0.01662195
C        7.87026787       2.02974806      10.85563487      -0.00098482       0.01007682       0.00779311
C        9.43523860       3.27362202      12.62772212       0.00595856       0.00181046       0.00597748
H        6.99769104       2.05227313      10.20481675      -0.00330400       0.01263268       0.01089084
H        7.76328515       1.26889038      11.62922546       0.00045368       0.00834525       0.00652078
H        8.77979517       1.85603367      10.28077949      -0.00344063       0.01024852       0.00473145
H       10.26628336       3.06649916      11.95452175       0.00369560       0.00730486       0.00193622
H        9.23275272       2.40877503      13.25546487       0.00871590      -0.00254017       0.00044203
H        9.64658790       4.15028882      13.23565541       0.00758617      -0.00245382       0.01120875
S        9.97128512       7.17972432       6.01965998       0.00136709      -0.00033930      -0.00105965
O        9.17290579       7.22333477       4.74629917      -0.00157547       0.00032875       0.00387394
C       11.04178647       8.63128579       6.01579695      -0.00068745       0.00142086       0.00007525
C       11.26359806       5.94556203       5.75965874       0.00405103       0.00341612      -0.00609602
H       10.40240055       9.49900110       6.16856646      -0.00228034       0.00022501      -0.00167428
H       11.54059582       8.70035925       5.04787992       0.00027025       0.00168003       0.00004689
H       11.74133477       8.53793995       6.84311294      -0.00140038       0.00298656       0.00010119
H       11.90764795       5.93687490       6.63659308       0.00732352       0.00443184      -0.00920175
H       11.81038288       6.18681254       4.84711481      -0.00048710       0.00576150      -0.00849502
H       10.74374616       4.99489537       5.64731460       0.00616997       0.00219287      -0.00509959
S        2.26088023       7.97064245       3.79472655      -0.00053430       0.01172620       0.00912595
O        3.48981985       7.73036546       2.98126365       0.00976253       0.02559704       0.02591658
C        0.85982778       7.24360613       2.91023793       0.02180922      -0.00184055      -0.01322052
C        1.81395546       9.69053694       3.50658771      -0.01451594       0.00606167      -0.00125946
H        0.94537027       6.16240306       3.00349118       0.02729922      -0.00176604      -0.00479421
H        0.91764996       7.55282136       1.86780041       0.03373549      -0.00365776      -0.00602317
H       -0.05965081       7.59368380       3.38251995       0.00961044      -0.00798803      -0.02945410
H        0.93921575       9.97281148       4.09080578      -0.02521181      -0.00236600      -0.00780606
H        1.63366301       9.81403449       2.43853095      -0.00390506       0.00785045       0.00276595
H        2.67356923      10.28068601       3.82397234      -0.02589069       0.01383808       0.01346646
S        5.33476636      11.50223770       9.87517341       0.01540061      -0.00934944      -0.00417317
O        5.49239277      12.06937984      11.30504886       0.00330026      -0.00517390      -0.01348144
C        6.06734662       9.87902892       9.93139402       0.02250098      -0.00651506       0.00237198
C        6.57865567      12.36362653       8.93922747       0.01959512      -0.00547278      -0.00042038
H        5.36889047       9.23082581      10.45966004       0.02382211      -0.00505528       0.00833893
H        7.03081195       9.93426776      10.43685494       0.02187720      -0.00049922       0.00501511
H        6.16397749       9.56629373       8.89192015       0.02399256      -0.01444519       0.00765133
H        6.59845101      11.89634021       7.95623033       0.02471356       0.00026101      -0.00295529
H        7.53274236      12.28444317       9.45932362       0.01523925      -0.00706181       0.00349116
H        6.25232214      13.39832999       8.86473976       0.01722649      -0.00570461       0.00370546
S        3.09377539       9.42051909      -0.51537497      -0.01551777      -0.00747716      -0.00771552
O        2.02398035       8.75213401       0.25525790       0.00790900       0.00853628      -0.01487768
C        4.64014326       9.40471008       0.48207431      -0.02470604       0.00724108       0.00921416
C        2.77136841      11.19865792      -0.34280998      -0.02643731      -0.01345319      -0.01450734
H        4.76937411       8.39199292       0.86296889      -0.01000803       0.01975554       0.00360964
H        4.55259446      10.03797744       1.38463714      -0.01451168       0.01738414      -0.01591326
H        5.51824249       9.61261654      -0.14708398       0.00050502       0.00875316      -0.01003569
H        3.39333258      11.78499809      -1.02314996      -0.00366747      -0.00157049      -0.02904701
H        2.86204354      11.49509488       0.70878754      -0.03056826       0.00199149      -0.03513093
H        1.73945956      11.37087958      -0.64281547      -0.01111728      -0.01281086      -0.04216103
S        4.67992828       9.33494128       6.12538952      -0.00444525       0.00731945       0.01627791
O        5.47423420      10.39319062       6.85635659      -0.00094843      -0.00974357       0.01763523
C        3.20912225       9.04330173       7.12158135      -0.00239426      -0.00069731       0.01933554
C        5.49805302       7.76465413       6.43899942      -0.01224443      -0.00174773      -0.00736579
H        2.57902931       9.92538989       7.02415601       0.00214358       0.00361773       0.03410598
H        3.50395672       8.89064301       8.16041771       0.00425550      -0.01400864       0.01506233
H        2.68671078       8.17367541       6.72546676      -0.01007442       0.00809541       0.01382489
H        4.90287906       6.96895556       5.98866544      -0.01518990       0.00727162      -0.01598044
H        5.62030030       7.60556388       7.51078981      -0.01104132      -0.01413760      -0.00906870
H        6.47377996       7.79658200       5.95353054      -0.01300724       0.00151514      -0.00755338
S       10.47837756       6.32263126       9.39411221       0.01589668      -0.00671089       0.00419840
O       11.56776501       7.05669898       8.66346914       0.01344919      -0.00612897      -0.00229585
C        9.18642940       7.52069303       9.77551361       0.01624367      -0.00803238       0.00473823
C       11.08671155       6.09993922      11.07143968       0.02256414      -0.00035661       0.00255114
H        8.76135125       7.82143096       8.82001681       0.01162324      -0.01180578       0.00530846
H        9.62330414       8.36846254      10.30488796       0.01646674      -0.00518471      -0.00019169
H        8.41355875       7.02213578      10.35917014       0.01932693      -0.00667875       0.00941468
H       10.26392811       5.75258177      11.69274130       0.02603552      -0.00356824       0.00536496
H       11.46644813       7.05868449      11.42527393       0.01837118       0.00236416       0.00022832
H       11.88681805       5.36176636      11.04237779       0.02585632       0.00430088       0.00168866
S        9.30499397       7.83554981       0.46616720      -0.02382088       0.00776911      -0.00013793
O        8.09669644       8.51233331       1.04139026      -0.00239313      -0.00421846      -0.02065891
C        9.78532877       6.53323448       1.62306821      -0.01364630       0.00360119      -0.00119239
C       10.72866795       8.90297347       0.78193586      -0.01212263       0.00266099      -0.00301313
H        9.00493248       5.77442115       1.58869974      -0.01340155       0.00222602      -0.00374339
H        9.85612776       6.94152863       2.63289527      -0.02069568       0.00536288      -0.00110662
H       10.73465989       6.11303744       1.28518886      -0.01348538       0.00551776       0.00536381
H       11.64586443       8.38752893       0.49366076      -0.01215276       0.00450212       0.00202380
H       10.74904653       9.15931657       1.84332280      -0.01874375       0.00550963      -0.00395600
H       10.60828327       9.79633128       0.16995447      -0.01304233       0.00197685      -0.00537573
S        7.18213911       4.78387575       7.22439213      -0.00343543       0.00662392       0.00517905
O        7.00062516       5.60745872       8.46139670      -0.00079474      -0.00144869       0.01159847
C        5.84398510       3.56605731       7.23462310      -0.00139105       0.00513026       0.00103089
C        8.51053187       3.60401874       7.56418616      -0.00143141       0.00664896      -0.00578111
H        4.91895570       4.10131482       7.02975247      -0.00283785       0.00502568       0.00866005
H        5.80546397       3.10280932       8.22212483       0.00262306      -0.00266172      -0.00292759
H        6.00756607       2.82265032       6.45481906      -0.00333413       0.01167843      -0.00512113
H        8.54680032       2.86551773       6.76287322      -0.00096924       0.01485845      -0.01273829
H        8.32332503       3.13033520       8.52484654       0.00011892      -0.00303238      -0.01056579
H        9.44093781       4.16562140       7.60967940      -0.00238396       0.00762139      -0.00115445
S        2.67533002       5.77701412      10.78486491       0.00789070       0.00432765      -0.00068319
O        1.93374404       4.84991273      11.69477630      -0.00603253      -0.00779080       0.00628853
C        2.12331212       5.38331316       9.10838774      -0.00140601       0.00660321       0.00733942
C        4.34270902       5.11501962      10.61104866      -0.00128317      -0.00856590       0.00484288
H        1.08930377       5.71517838       9.02140724       0.00037420       0.00778659       0.00994392
H        2.19373174       4.30390072       8.96670417      -0.00265712       0.00642520       0.00443361
H        2.74573794       5.91206367       8.38577662      -0.00064677       0.00713740       0.00703545
H        4.89517349       5.63890929       9.82946853       0.00277191      -0.00827405       0.00674048
H        4.26547321       4.05120239      10.37924027      -0.00867830      -0.00732209      -0.00289245
H        4.85378275       5.24016994      11.56438765      -0.00119064      -0.01778802       0.00379235
