146
Lattice="13.356837200474514 0.0 0.0 0.0 13.356837200474514 0.0 0.0 0.0 13.356837200474514" Properties=species:S:1:pos:R:3:forces:R:3 energy=-877023.4375 stress="-0.00045325723476707935 3.898971954185981e-05 -0.0003524152998579666 3.898971954185981e-05 -0.00029221156728453934 -0.0004324202745920047 -0.0003524152998579666 -0.0004324202745920047 0.00019625808636192232" pbc="T T T"
Yb       3.59687693      12.63646551      -0.36080935       0.00324565      -0.00861381       0.04606535
Yb      -0.13591304      13.19026703       2.39412646      -0.02027014      -0.01306367       0.01698406
O        9.62834044      12.99521226       9.60654385       0.00271416      -0.00757027      -0.02039731
O        7.62777704      13.18407089      10.42035839       0.00354809      -0.00868243      -0.01168314
O        8.92626017      11.39389666      11.05861919       0.02328563       0.00250745       0.02439189
C        8.85728485      12.40378207      10.38644177       0.00825602       0.01354152      -0.01229965
O        6.56959876      12.52609112      11.17539733       0.01253533      -0.00383355       0.00447321
O        7.71579633      13.11340274      13.06712413       0.00783205       0.04449111      -0.00952011
O        5.72894974      12.04908220      13.08478601       0.01649773       0.03276128       0.01252294
C        6.76926352      12.58189535      12.53310641       0.00997221       0.02732767       0.00042623
O       14.85838744      11.65025205      12.49067270       0.00539643      -0.01257601       0.03177029
O       14.89711907      13.16937107      14.10564229      -0.00854629      -0.00471586       0.02635655
O       13.07878821      11.90305446      13.86564511      -0.00274283      -0.01268951       0.01991364
C       14.23495771      12.20272258      13.43726866      -0.00061312      -0.00904059       0.02638374
C       11.33015079       9.54868104       9.63567053      -0.00930928       0.00594115      -0.00089138
C       11.57790825       8.74533533       8.52977041      -0.00538115       0.00503197      -0.00031355
C       10.68781139       9.01892580      10.74834621      -0.00476888       0.00269899      -0.00001833
C       11.17846175       7.41351515       8.52943465       0.00240742       0.00303398       0.00233896
C       10.28960374       7.68922524      10.74616933       0.00325673       0.00066657       0.00273904
C       10.52732952       6.88374566       9.63696211       0.00688250       0.00050239       0.00311378
H       11.59701783      10.59755824       9.62876294      -0.01579038       0.00740573      -0.00193630
H       12.07191596       9.15735659       7.65971192      -0.00837107       0.00685792      -0.00103436
H       10.45058416       9.66684406      11.57848688      -0.00767900       0.00285357      -0.00053008
H       11.35999198       6.79175104       7.66378750       0.00539134       0.00271838       0.00265495
H        9.76606572       7.28578304      11.60213796       0.00702159      -0.00135122       0.00376347
H       10.19212549       5.85353318       9.62948725       0.01274790      -0.00141683       0.00520416
C        4.40500206      10.40111644       4.82901096      -0.00377926       0.00294412      -0.00718038
C        4.20012841       9.30774753       3.99207951       0.00506081       0.00618300      -0.01347997
C        3.87319609      11.64074152       4.49176510      -0.01735047      -0.00084450       0.00249641
C        3.47531416       9.45038170       2.81556963      -0.00026702       0.00625186      -0.01020863
C        3.12974757      11.78250415       3.32330652      -0.02242788      -0.00049644       0.00760832
C        2.93430933      10.68938045       2.47975696      -0.01470601       0.00229330      -0.00044844
H        4.96849900      10.28481081       5.74671156      -0.00150310       0.00231324      -0.00877750
H        4.60393817       8.34016754       4.26407608       0.01645892       0.00937229      -0.02017315
H        4.03864558      12.49326492       5.13890642      -0.02583427      -0.00362815       0.00816645
H        3.31422404       8.59698137       2.16858429       0.00509380       0.00865549      -0.01470463
H        2.70661170      12.75412277       3.07325283      -0.03523618      -0.00418006       0.01439575
H        2.31625571      10.76508981       1.58952885      -0.02475466      -0.00179451       0.00672191
C       10.91121797       1.05878472       2.80208670      -0.02314657      -0.00719663       0.00891744
C       11.75405941       1.70643923       3.71762343      -0.02077903      -0.00927410       0.00784063
C       11.09645506       1.23303067       1.42159339      -0.01597069      -0.01956330       0.00880969
C       12.80105829       2.51190053       3.25281311      -0.01006107      -0.02379053       0.00602316
C       12.14276374       2.04250636       0.96455865      -0.00529205      -0.03530313       0.00673878
C       12.99218253       2.67793726       1.87567003      -0.00289132      -0.03699818       0.00581533
H       10.12011726       0.41660102       3.16160053      -0.03075135       0.00342590       0.00989147
H       11.58982410       1.58190576       4.77913423      -0.02658748       0.00112257       0.00742249
H       10.42282218       0.76384746       0.71402980      -0.01845825      -0.01695503       0.01005504
H       13.43464072       3.04077367       3.95336165      -0.00704886      -0.02609816       0.00499637
H       12.27761468       2.19931708      -0.09657599       0.00299706      -0.04728585       0.00636311
H       13.76783856       3.34254028       1.51734315       0.00458100      -0.04839431       0.00215864
C        6.71584911       5.17227102       2.85303502      -0.00803713       0.00962707      -0.00437208
C        6.07228421       4.20085278       3.61099077      -0.00875115       0.01388211       0.00037201
C        8.02472523       4.97250141       2.43095254      -0.00886630       0.00531210      -0.00549829
C        6.74180779       3.03361187       3.95379462      -0.01080507       0.01403768       0.00423085
C        8.69515359       3.80445704       2.77451528      -0.01076697       0.00529999      -0.00187536
C        8.05361502       2.83848658       3.54015050      -0.01167663       0.00979444       0.00315360
H        6.19773154       6.08650078       2.58966226      -0.00661673       0.00932465      -0.00778911
H        5.04950564       4.35144434       3.93349567      -0.00829047       0.01693830       0.00082190
H        8.52509484       5.72744313       1.83683009      -0.00851721       0.00160357      -0.00950241
H        6.24661712       2.27557386       4.54827356      -0.01138184       0.01723800       0.00763960
H        9.71875095       3.65491660       2.45226973      -0.01185529       0.00141826      -0.00338676
H        8.57467138       1.93410630       3.82558878      -0.01325161       0.00995765       0.00573474
C        9.64707446      10.97387416       1.44845019      -0.01214616      -0.00836985      -0.01081793
C        9.79524665       9.61535266       1.70763639      -0.00207308      -0.00596948      -0.00419162
C        8.73314032      11.72075575       2.18533028      -0.01345615      -0.01032701      -0.01011270
C        9.02637928       9.00492778       2.69634951       0.00747839      -0.00556532       0.00320362
C        7.97719168      11.11760167       3.18246366      -0.00442708      -0.00989743      -0.00330660
C        8.11764990       9.75705030       3.43390801       0.00624350      -0.00751900       0.00380440
H       10.20475455      11.43297380       0.64114701      -0.01939648      -0.00855625      -0.01553725
H       10.49559771       9.03123656       1.12241160      -0.00153838      -0.00446732      -0.00511631
H        8.56652980      12.75878301       1.93300561      -0.02025221      -0.01273835      -0.01545415
H        9.12471800       7.94228764       2.88502872       0.01572665      -0.00356984       0.00870804
H        7.25996290      11.69972394       3.74955604      -0.00601506      -0.01188012      -0.00319663
H        7.50802845       9.28603386       4.19618420       0.01396764      -0.00721557       0.00992231
C        5.99482190       2.80770489       0.33040582      -0.00361727       0.00112951      -0.00190522
C        5.62432289       1.60544344       0.91517560       0.00175244       0.01020422       0.01891285
C        5.03544255       3.77626697       0.06348098      -0.00644273      -0.00396633      -0.00986823
C        4.27854939       1.35551772       1.18345143       0.00404456       0.01149821       0.03114285
C        3.69230124       3.52972898       0.32732694      -0.00389124      -0.00127175       0.00453068
C        3.30631184       2.31975641       0.88831675       0.00129534       0.00641173       0.02457072
H        7.03646684       2.99518512       0.10915754      -0.00557104      -0.00198785      -0.01339207
H        6.37658346       0.85875579       1.12602285       0.00448920       0.01496799       0.02454520
H        5.33936420       4.73066735      -0.34593867      -0.01069953      -0.01050998      -0.02727385
H        4.01589167       0.46574827       1.75916414       0.00752768       0.01860729       0.04336142
H        2.94919848       4.28594576       0.10233546      -0.00598637      -0.00478138      -0.00060529
H        2.26255784       2.11434955       1.08276022       0.00376897       0.00857389       0.03540301
C        9.88198098       3.32838845      11.35465041      -0.00251016      -0.00445593       0.01146678
C        8.97464739       2.66050823      10.54077094       0.00106906      -0.00515096       0.00953372
C        9.51340877       4.49504989      12.01600325      -0.00152798       0.00015160       0.00364858
C        7.69892782       3.18577691      10.37160270       0.00422567      -0.00316821      -0.00112228
C        8.24021119       5.02321609      11.83072240       0.00088673       0.00361639      -0.00768849
C        7.33998880       4.37621812      10.99167940       0.00408721       0.00143443      -0.00976459
H       10.88588953       2.93565819      11.46296252      -0.00403036      -0.00696015       0.02069252
H        9.24792540       1.72650457      10.06143840       0.00169036      -0.00791103       0.01361501
H       10.22479378       5.00836052      12.65236607      -0.00283483      -0.00109359       0.00572784
H        6.98206752       2.64723661       9.76433038       0.00626157      -0.00383692      -0.00352630
H        7.95298058       5.93903583      12.33317700       0.00031744       0.00703609      -0.01534812
H        6.35144147       4.79157363      10.83834633       0.00660391       0.00434082      -0.01879276
C       10.28803919       4.70995985       6.07659845       0.00505903      -0.00433433      -0.00217221
C        9.40317846       3.99003755       6.87083849       0.00432581      -0.00316648      -0.00170127
C        9.88858563       5.90984500       5.49736147       0.00716260      -0.00320369      -0.00058717
C        8.11330181       4.46774300       7.07361767       0.00548758      -0.00028540      -0.00004718
C        8.60435884       6.39109058       5.71424849       0.00878037      -0.00034152       0.00096798
C        7.71478010       5.66623611       6.49726778       0.00762405       0.00109518       0.00122776
H       11.29655678       4.34458844       5.92072721       0.00406816      -0.00677611      -0.00352684
H        9.71232675       3.06314686       7.33873141       0.00246813      -0.00406636      -0.00273441
H       10.58082212       6.47716456       4.88691489       0.00800108      -0.00412206      -0.00089093
H        7.42512867       3.90747380       7.69121047       0.00501887       0.00087908       0.00012236
H        8.29697167       7.33367029       5.28004380       0.01059675       0.00093888       0.00250683
H        6.71364081       6.04347844       6.66424031       0.00884548       0.00322269       0.00261179
C        7.16957479       8.43028515       8.65255640       0.00315320      -0.00031804      -0.00392049
C        5.78230997       8.43456380       8.73572651       0.00311736       0.00039910       0.00082155
C        7.85253606       9.61098429       8.38307382       0.00216888      -0.00047840      -0.00818207
C        5.07695757       9.62033471       8.56098314       0.00319585       0.00004773       0.00108732
C        7.14885029      10.79523871       8.19747396       0.00208585      -0.00052664      -0.00606875
C        5.76243494      10.79974990       8.29219957       0.00230438      -0.00027694      -0.00123052
H        7.72573210       7.51540637       8.81251776       0.00332779      -0.00006509      -0.00540272
H        5.24261395       7.51958685       8.95091859       0.00393455       0.00064281       0.00387738
H        8.93446421       9.60967709       8.35987335       0.00215887      -0.00131948      -0.01360187
H        3.99937010       9.62181803       8.64244085       0.00318447       0.00064141       0.00619003
H        7.68188547      11.72226114       8.02922291       0.00204878      -0.00089331      -0.00857550
H        5.21661569      11.73030966       8.18507382       0.00238942       0.00001507       0.00054663
C        2.11173334       7.43602248       9.65358799      -0.00101633       0.00229653      -0.00549150
C        2.11374133       7.36120164       8.26479965       0.00218319       0.00345664      -0.00559834
C        1.77481468       8.62754302      10.28496870      -0.00249533       0.00167226      -0.00551564
C        1.78613291       8.48076780       7.50821081       0.00074811       0.00317758      -0.00448918
C        1.43897877       9.74461833       9.52912847      -0.00000307       0.00276883      -0.00440297
C        1.44840869       9.67186467       8.14112931      -0.00107547       0.00305153      -0.00480811
H        2.36605174       6.56346749      10.24329859      -0.00006331       0.00297368      -0.00543007
H        2.36963247       6.43044312       7.77334480       0.00587145       0.00477068      -0.00548348
H        1.75716023       8.68799433      11.36596978      -0.00411274       0.00125250      -0.00529021
H        1.78951338       8.42481884       6.42633380       0.00330312       0.00389968      -0.00452636
H        1.14402329      10.65630026      10.03164884       0.00653347       0.00366256      -0.00170647
H        1.17468804      10.53915488       7.55194630      -0.00140848       0.00209147      -0.00594730
C       12.67972581      11.70465238       4.83257003       0.02717234      -0.00381554      -0.01101196
C       12.96854030      12.54749936       5.91132516       0.02803825      -0.00198415      -0.01221938
C       11.45390757      11.03638271       4.77096836       0.01923814       0.01018925      -0.01838808
C       12.03323573      12.70745803       6.92841441       0.02283615       0.00913793      -0.01838605
C       10.53532156      11.19243534       5.80502020       0.01510422       0.02265628      -0.02474128
C       10.82501902      12.01625907       6.88799128       0.01732871       0.01992279      -0.02403852
H       13.47581321      11.42796652       4.13136440       0.03067117      -0.01780745      -0.00006429
H       13.92885037      13.04965062       5.97316102       0.03219017      -0.01164251      -0.00674689
H       11.22221054      10.37855440       3.94154800       0.01842473       0.01021098      -0.01842941
H       12.24188779      13.34037384       7.78213063       0.02517313       0.00802277      -0.01815914
H        9.60167175      10.64442124       5.77796772       0.00984946       0.03098129      -0.02948178
H       10.14224763      12.12581918       7.72672459       0.01393296       0.02456433      -0.02618623
