148
Lattice="11.239574664577566 0.0 0.0 0.0 11.239574664577566 0.0 0.0 0.0 11.239574664577566" Properties=species:S:1:pos:R:3:forces:R:3 energy=-591222.125 stress="0.003942736424505711 -0.0009116489673033357 -0.000709862943040207 -0.0009116489673033357 0.0014685650821775198 0.001032677828334272 -0.000709862943040207 0.001032677828334272 0.0021576080471277237" pbc="T T T"
Cd       2.70610284       9.23627845       6.38792699      -0.00628000      -0.00397053       0.00121780
Cd      10.52812445       4.38063706       7.09132924       0.00044745      -0.00153399      -0.00191653
Cd       4.90812788       1.64948242       6.93558631       0.00238724      -0.00404583       0.00146940
P        4.17639057       0.70934634       9.66803505       0.01384966      -0.00015551       0.02233910
O        4.82134459       0.99380934      11.03384465      -0.00407571      -0.00940268      -0.01142383
O        2.85462049      -0.06107458       9.84165294      -0.00194824      -0.01335183       0.00276208
O        3.89361092       2.04774605       8.92607487      -0.00022233      -0.00759065       0.00087655
O        5.15758616      -0.05984572       8.72392511       0.00303161      -0.00807980      -0.00098658
P       10.11069829       0.83118167      11.54978404       0.01179182       0.00837342       0.03181930
O       11.10450807      -0.25416779      11.92446775      -0.00192001       0.01457876       0.00838575
O        9.42194530       1.41183954      12.78885570       0.00797534       0.00892055      -0.00653940
O       10.98376742       2.00692491      10.86752936       0.00362426       0.00717169      -0.00130577
O        9.07152873       0.39874999      10.50476294      -0.00318766       0.00106472      -0.00017068
O        2.06076142       1.04108301       4.00204651       0.00037894      -0.01005396      -0.00101461
H        2.27174222       0.57050553       3.16024316       0.00168353       0.00197926       0.00877858
H        2.17503124       1.98441683       3.78811339       0.00455192       0.00498310       0.00225991
O        9.55293146       0.91249646       7.97678638       0.01356722       0.00486654       0.01597556
H        9.65217912       1.89087705       8.22790027       0.00821156       0.00618549       0.01217563
H        9.35459755       0.54521017       8.88160179       0.01584318       0.00418537       0.00560132
O        6.60405787       7.57641166       1.01645492      -0.00599374      -0.00518510      -0.01640645
H        5.82125463       7.00217969       1.22701631      -0.00523665      -0.00470632      -0.01200215
H        6.24553815       8.48619205       1.05171705      -0.00804862      -0.00232101      -0.01128456
O        4.13291703       4.03216345       6.84244117      -0.00131726      -0.01169883      -0.00075650
H        4.60108343       4.36250508       7.63927814       0.00295627      -0.00642525       0.00469135
H        3.20332324       3.89876480       7.12203291       0.00568919      -0.00392348      -0.00397916
O        7.52252770       9.93680183       9.13408446       0.00971224       0.00624105       0.00225558
H        6.67386530      10.43750876       9.08378097       0.00469291       0.00238570      -0.00251770
H        8.04764189      10.42079296       9.81424878       0.00226458       0.00224710      -0.00343267
O        8.16665995       5.24514301       7.34178955      -0.00487590      -0.00838864      -0.01831257
H        7.55436885       4.56792104       7.68570619       0.00008512      -0.03456239      -0.02210781
H        8.02065074       6.01367290       7.91881124      -0.01987864      -0.02663246      -0.02880147
O       10.57825711       5.88066223       1.34422604       0.02880827       0.01346764       0.00421152
H       11.28108613       6.46769920       1.65556717      -0.00002107      -0.00791563      -0.00048079
H        9.77366375       6.14986056       1.83943522       0.00051892       0.00772272      -0.00258989
O        9.90023808       3.29780910       8.86029301       0.00673643       0.00920850       0.00555422
H       10.50704251       2.52962121      10.15289210       0.00368238       0.00775795       0.00637182
H        9.04718417       3.61123203       9.17506358      -0.00413349       0.01291894       0.00897139
O       10.70914185       7.10566552      10.07502174       0.02046466       0.00538245      -0.00147361
H       10.44663417       6.50195607      10.79455938       0.02411873      -0.00234995       0.00491908
H       11.33703683       7.74330134      10.51769660       0.01875775       0.00208589      -0.00340961
O       10.37078939       0.21552743       5.53895049       0.00874914       0.00021518       0.00965315
H        9.85196635       0.30278878       6.36703536       0.00794156       0.00192752       0.00944942
H        9.75095885       0.04918731       4.76634704       0.00881276       0.00499087       0.00798635
O       10.14467499       3.56448128       2.89566423       0.01169546       0.03559777      -0.00822672
H        9.93759365       2.75232858       2.35406800      -0.00269885       0.00837256       0.00253890
H       10.53183341       4.20049116       2.27237306      -0.00772289      -0.00335953       0.02244044
O        0.24284791       6.34745652       7.72539263      -0.00275037       0.00236332      -0.00702091
H        0.01968596       6.57345067       8.67773466       0.00742463       0.00022939      -0.00633195
H       -0.16874753       7.04171034       7.20115862      -0.01126155       0.00156924      -0.00214117
O        3.12836205       6.93111484       6.06044124      -0.00665846      -0.00117898       0.00264269
H        2.58636625       6.52156189       5.32090478      -0.00298661      -0.00387423       0.00624105
H        3.04627540       6.31250532       6.79510114      -0.02197134       0.00192937       0.01492950
O        1.11524897       1.02255200       8.00171415       0.01481156      -0.00170518       0.00496006
H        0.15299541       0.83581260       8.06670657      -0.00110927       0.00402965      -0.00027052
H        1.56164141       0.74133571       8.83460005       0.00014226       0.00289287      -0.00744039
O        3.02216826       0.37205007       6.22546172       0.00143518      -0.00485289       0.00247805
H        2.28398750       0.64088906       6.82736091       0.00350089      -0.00393546       0.00098234
H        2.68609863       0.62543163       5.27316235       0.00141743      -0.00340255       0.00187381
O        8.91438593      10.91093031       3.45181749       0.01569015      -0.00150958       0.00979064
H        9.28053686      10.01372070       3.34098654       0.00076114       0.02367708       0.00428458
H        9.21446379      11.45461872       2.66987517       0.01450744       0.01938337       0.00468349
O        1.36765603       8.00167401       2.52589800      -0.01049618      -0.00748168      -0.00101873
H        0.48910720       8.27775088       2.87662386      -0.00791438      -0.00412412       0.00048085
H        1.37990752       8.33583426       1.59206380      -0.00575878       0.00104985      -0.00004903
O        7.09934158       2.28195493      10.17456893       0.01438910      -0.00761744       0.00339556
H        6.29651779       1.85040605      10.55036573      -0.00602038      -0.00866882       0.00600065
H        7.82783188       1.64424885      10.37707913      -0.00577429       0.00512359       0.00406546
O       10.18290650       8.46728924       3.64429940      -0.00239000       0.00801167       0.00182182
H       10.50441031       8.45800248       4.56059421      -0.00809544       0.00032894      -0.00208656
H        9.52896187       7.74443664       3.54107209      -0.00794192       0.00442481      -0.00748041
O        1.76050069       5.87038911       4.10376571      -0.00038948      -0.00127785       0.00151953
H        1.75115739       6.52336194       3.36906009       0.00044576      -0.00790033       0.00290112
H        2.21061985       5.04121514       3.78871652       0.00360014      -0.00659218       0.00322239
O        3.96178359       3.49367095       0.90188835      -0.00491036       0.00055935      -0.00036696
H        3.21535923       3.62436577       0.26839004       0.00452034      -0.00500380       0.00058058
H        4.35112297       2.63747714       0.61982886       0.00448181      -0.00965955      -0.00046148
O       10.16622305       9.02139530       8.24885774      -0.00503930      -0.02847600       0.01032744
H       10.08277140       8.36850389       8.97417925      -0.00046043       0.00050738      -0.00661053
H        9.35429710       9.55059175       8.29038917      -0.02703084      -0.01116399       0.00440086
O        3.09358291       9.34580301       4.19977054      -0.02065043      -0.00670148      -0.00156190
H        2.57292338       8.88396388       3.50688485      -0.01148284      -0.00657310       0.00539235
H        4.05504805       9.34052425       3.99618493      -0.01173072      -0.00166664      -0.00074510
O        2.96596560       3.60647507       3.40526084       0.00432837      -0.00343467       0.00204003
H        3.73112826       3.31735123       3.93855425       0.00680270      -0.00495302      -0.00022211
H        3.27477342       3.51244009       2.46983780       0.00196646      -0.00343056       0.00096618
O        6.96284225       2.54384685       7.60404968       0.00524619      -0.00509258       0.00469837
H        7.67031223       1.94873717       7.31170180       0.00249171      -0.00131707       0.00456391
H        6.97618440       2.43233863       8.61790855       0.00258661      -0.00508421       0.00704454
O        8.38273993       6.62194609       2.82008074      -0.00012660       0.01125944      -0.01754722
H        7.96932115       5.91162371       3.33924199       0.00222895       0.00593522      -0.00931958
H        7.70088158       7.00473113       2.21327186       0.00052264       0.00131832      -0.01424618
O        1.46265157       3.66172241       7.61655264       0.00102140      -0.00025584      -0.00164017
H        1.57472385       3.86559319       8.57889128       0.00221085      -0.00097486      -0.00022027
H        1.36585347       2.67617903       7.66593100       0.00332477      -0.00007764      -0.00240303
O        6.48809012      11.32859890       6.01132108      -0.00742018      -0.00524843      -0.01312782
H        6.24152746      10.63339657       5.36219754      -0.00826318       0.00475033      -0.01015852
H        6.79702955      10.84196062       6.78625002      -0.01025641      -0.01956895      -0.00518738
O        0.39742596       9.23096347       5.94941731      -0.00765741      -0.00802519       0.00442141
H       -0.09367584       9.09416731       6.78789527      -0.00911841      -0.00611556       0.00494352
H        0.04764170      10.13891808       5.68401169      -0.00349042      -0.00436841       0.00699575
O        4.78417718       9.10434116       7.33981881      -0.00173580      -0.01084602       0.00222948
H        4.93612894       8.33441166       7.89689806      -0.00037035      -0.00108160      -0.00857218
H        4.88775706       9.91525977       7.95415045      -0.00102802      -0.00552746       0.00111772
O       10.49813233       5.69549008       5.10752524       0.00029050      -0.00224176      -0.00306639
H        9.98658320       5.23146684       4.43016790      -0.00130570      -0.01616207      -0.00962532
H       11.41417343       5.72492416       4.73043565      -0.00619362      -0.00325598      -0.00068270
O        2.43344835      -0.08107304       1.57997734      -0.01905571      -0.00773536       0.01128563
H        1.49482305      -0.08584657       1.27016992       0.01896958       0.00369869       0.01023194
H        2.91848515       0.31755571       0.84305739       0.01416646       0.01189377      -0.01221620
O        4.56573906       6.09078774       1.82373802      -0.00213534      -0.00288308      -0.00760402
H        4.74918231       6.09488714       2.77874115      -0.00449377       0.00209202      -0.00353170
H        4.48271843       5.16337234       1.53945134      -0.00227497      -0.00310451      -0.00243021
O        5.31328141      10.06830200       1.39150505      -0.02972746      -0.01019236       0.00801375
H        5.32876565      10.86025520       0.79968053      -0.00514412       0.00908243       0.00281900
H        4.36423422       9.97190514       1.55762415      -0.00158903       0.00782011      -0.00533623
O        7.39038068       1.96546979       3.44280042       0.00355028      -0.00414282       0.01735775
H        7.80189234       1.95726056       2.55731241       0.00247505       0.00950103       0.00056006
H        7.70455895       1.12398360       3.81566662       0.00291122       0.00778815      -0.00246711
O        5.78426213       9.43840602       4.08402454      -0.01978868       0.01539576      -0.01900423
H        5.97987402       8.48868584       4.17721883      -0.01241726       0.00359176      -0.01701517
H        5.98478816       9.69919182       3.16563998      -0.03130770       0.00902739      -0.00813210
O        5.17751615       2.59675477       4.76394122       0.00517660      -0.00061271       0.00245666
H        5.86082194       2.22338111       4.15359811       0.01394683       0.00800431       0.00526477
H        5.56850945       3.44112117       5.03334808      -0.00528589       0.00421971       0.00813195
O        5.66114692       4.94731109       8.91599230       0.01077077       0.03742488       0.00378776
H        5.63300322       4.41059282       9.71500920       0.00209732      -0.00977591       0.01431203
H        6.01155437       5.82554146       9.16627003      -0.01553163      -0.03641731      -0.01508630
O        0.99958525       8.84777763       0.03478068      -0.00367591       0.00759377       0.01076251
H        0.47348762       9.71234415       0.21096324       0.00279216       0.00856526       0.00681361
H        1.78384084       9.12157831      -0.45461569       0.02435992       0.02890570       0.01390295
O        7.05122390       7.26663622       9.46973174      -0.00196883      -0.00451825      -0.01354462
H        7.20228361       8.22211210       9.27888513       0.00297199       0.00169061      -0.01514897
H        7.00420366       7.26753331      10.44852975      -0.00383345      -0.00077436      -0.01715349
O        1.97658413       9.25243236       8.51705269      -0.00029558      -0.00465763      -0.00026941
H        1.01954865       9.37624211       8.59663407      -0.00619212      -0.00447941       0.00451354
H        2.39874744      10.04568200       9.03462886      -0.00222568      -0.00837736       0.00101818
O        2.07377207       3.44898808      -1.01992373      -0.00289690      -0.00620043       0.00170349
H        2.72913203       2.85775707      -1.48997731       0.00480036      -0.00856933      -0.00458730
H        1.35724175       2.86877741      -0.69245950       0.01007570       0.00820079      -0.00287003
O       10.38401307       2.87760867       5.43101739       0.00524048      -0.00604311       0.00604648
H       10.42488611       3.13555374       4.47458423       0.00486197      -0.00161358       0.00021141
H       10.51964676       1.90123776       5.46184797       0.00836566      -0.00174025       0.00311426
O        7.42806344       4.57286853       4.61789934       0.00292856       0.02915585       0.00680959
H        7.69107762       3.69470344       4.27427568       0.00679167       0.01407471       0.00446302
H        7.82405549       4.68469753       5.49719314      -0.01383747       0.03032275      -0.01250386
O        5.44717765       6.64027787       4.46409874      -0.00957775       0.00032794      -0.00690132
H        6.04540407       5.91325950       4.69307965      -0.00663048       0.00130594      -0.01660042
H        4.75144219       6.66660119       5.14768107      -0.00319625      -0.00393824      -0.00113437
