143
Lattice="13.363646715498556 0.0 0.0 0.0 13.363646715498556 0.0 0.0 0.0 13.363646715498556" Properties=species:S:1:pos:R:3:forces:R:3 energy=-2152529.75 stress="-0.0016609512967988849 0.0006587873212993145 -0.0002204545817221515 0.0006587873212993145 -0.0012868752237409353 0.00026171460922341794 -0.0002204545817221515 0.00026171460922341794 -0.0007354618865065277" pbc="T T T"
Fr       1.50969461      14.45129040       7.15058326      -0.00160533       0.04709566      -0.01484841
Fr      14.40941399      15.24091441      13.81002041       0.00599793      -0.00253551       0.01127452
Fr      13.29813640       6.88075560       8.41180746       0.00228302      -0.00944445      -0.00951468
P        2.04533170      13.77922101       3.90994968      -0.00037147       0.00189963       0.00654001
O        0.68639258      14.21072159       4.49038001      -0.00754476      -0.00091267      -0.00688076
O        2.37035769      14.44467667       2.57306688       0.00650984       0.00387642       0.00842083
O        3.16116699      13.86664517       4.92959646      -0.00839019       0.00831347       0.01098371
O        1.88612470      12.15329500       3.60232632       0.00927877       0.00111002       0.00903583
C        7.25655139      10.75088790       9.36586952       0.00112320       0.00075677      -0.00496717
C        7.44576701      10.45071321       8.01446460      -0.00532515       0.00101273      -0.00483346
C        6.83216495       9.73133345      10.21584431       0.00634621       0.00315321      -0.00114718
C        7.47901676      12.14129202       9.88866645       0.00339619       0.00174728      -0.00742972
C        7.18733064       9.17709942       7.52395554      -0.00687313      -0.00202277      -0.00254706
C        6.58889609       8.45176931       9.73168792       0.00474701       0.00045606       0.00066482
C        6.75432338       8.17352208       8.38292985      -0.00092935       0.00093403       0.00144174
H        7.79948209      11.22675056       7.34202132      -0.01003648      -0.00071727      -0.00782013
H        6.69856262       9.94318449      11.26965093       0.01137231       0.00304773      -0.00139473
H        7.54040600      12.14811694      10.97738476       0.01100233       0.00256944      -0.00808173
H        8.39592388      12.58237014       9.49263918       0.00004794       0.00217680      -0.01425453
H        6.65931593      12.80682112       9.60139932       0.00074959       0.00051711      -0.00214995
H        7.32950853       8.95979408       6.47181701      -0.01188670      -0.00183297      -0.00245935
H        6.26338330       7.67295451      10.41113046       0.00919038       0.00230245       0.00374953
H        6.54347014       7.18429208       7.99863279      -0.00180684      -0.00104981       0.00335064
C        3.79806457      10.51879659       7.57142870      -0.00926915      -0.00122726       0.00612183
C        3.54001606       9.98371750       8.83337372      -0.00786089      -0.00488536       0.00569254
C        3.65975720       9.69306733       6.45343960      -0.00039624       0.00227104       0.00530770
C        4.31192643      11.91425806       7.40252967      -0.01678830       0.00251600       0.01279547
C        3.22035930       8.63981433       8.98660460      -0.00128667      -0.00865681      -0.00015643
C        3.36758259       8.34587805       6.60060079       0.00505607      -0.00116542      -0.00015813
C        3.16570412       7.80845552       7.87092660       0.00400303      -0.00353024      -0.00072275
H        3.64076577      10.61529012       9.70856861      -0.01073613      -0.00837658       0.00661809
H        3.81925489      10.10409099       5.46445394       0.00336606       0.00358503       0.00634402
H        3.98192288      12.37431991       6.46877782      -0.01651524       0.00304201       0.01297274
H        4.05338345      12.54823684       8.25159966      -0.02344839      -0.00182945       0.01362643
H        5.40399851      11.88602027       7.36773953      -0.01670352       0.00818629       0.01534270
H        3.07836578       8.23603179       9.98293407       0.00107741      -0.01141280      -0.00062163
H        3.33765870       7.71169657       5.72180881       0.01158338       0.00199566      -0.00068350
H        3.03716938       6.73831615       7.99373227       0.00791833      -0.00524946      -0.00481929
C        0.06430776       9.26899497       4.03340469       0.01124212      -0.00858647       0.00241351
C        0.15763633       8.82221434       2.70164189       0.00140369      -0.00404871      -0.00042567
C        0.23970727      10.59563329       4.30414204       0.02185936      -0.01288405       0.00583935
C       -0.19249199       8.27369617       5.13225940       0.00801192      -0.01295432      -0.00182429
C        0.41525194       9.71958345       1.65429954       0.00355187      -0.00000370       0.00277755
C        0.59512413      11.59581996       3.27162607       0.01487702      -0.00819603       0.00795801
C        0.61777852      11.04532046       1.89778813       0.01214671      -0.00483662       0.00610441
H        0.03679904       7.76577226       2.48868309      -0.00756519      -0.00119358      -0.00400993
H        0.17356031      10.95771006       5.32408364       0.03039769      -0.01312126       0.00699118
H       -0.42664978       8.78384288       6.06881425       0.01702378      -0.01556838       0.00180282
H       -1.02367245       7.61123823       4.87581951       0.00105526      -0.00447729      -0.00039127
H        0.69451659       7.65275375       5.29459225       0.00283210      -0.02199420      -0.00981407
H        0.47337064       9.34349274       0.63646454      -0.00251117       0.00157465       0.00104645
H       -0.11901034      12.43465563       3.33616926       0.00770724      -0.01450151       0.01327445
H        0.85041639      11.72774499       1.08715551       0.01407619      -0.00216104       0.00725500
C       10.49502739       8.75195925       8.53872238       0.00467731       0.00253190      -0.00238368
C       10.28422712       7.97296950       9.68212956       0.00743650       0.00179441      -0.00248337
C       10.40898374       8.12868811       7.29058551       0.00108137       0.00341466      -0.00233969
C       10.79704826      10.21903191       8.66117655       0.00362721       0.00240090      -0.00211526
C       10.00831327       6.61301865       9.57958875       0.00504446       0.00264239      -0.00264196
C       10.15889710       6.76219881       7.18622267      -0.00168705       0.00424511      -0.00258517
C        9.95426773       5.99750198       8.33157686      -0.00010435       0.00384629      -0.00284524
H       10.29951957       8.44205428      10.66034834       0.01112327       0.00103572      -0.00226782
H       10.52519522       8.72478488       6.39190306       0.00014918       0.00390361      -0.00210626
H       10.80768650      10.70463605       7.68602672       0.00753895       0.00174304      -0.00224026
H       10.04843938      10.71247536       9.28104604       0.00030208       0.00209724      -0.00610918
H       11.76745015      10.38629906       9.13778223       0.00103036       0.00353636       0.00227195
H        9.81675620       6.03858498      10.47821749       0.00695600       0.00225414      -0.00256291
H       10.10226215       6.29539111       6.20971726      -0.00538444       0.00504237      -0.00263038
H        9.73501446       4.93886644       8.24945492      -0.00261669       0.00452900      -0.00302503
C        4.80557272      10.53484543       1.65696155      -0.00250363       0.00581993      -0.00604667
C        5.86593557      10.73416170       2.54129887       0.00258178       0.00350980       0.00109952
C        4.00865201       9.40372575       1.82556952       0.00421819       0.00262262       0.00162563
C        4.53632796      11.51109461       0.54852308      -0.00123449       0.00584650      -0.00207803
C        6.12421176       9.83030840       3.56304072      -0.00059575       0.01063231      -0.00902201
C        4.26019888       8.50010947       2.85046982      -0.00182249       0.00780576      -0.00930707
C        5.32162416       8.70840585       3.72146152       0.00565549       0.00388731       0.00197811
H        6.49636763      11.60916159       2.43257579      -0.00070657       0.00740804      -0.00449375
H        3.17040944       9.24028474       1.15983980       0.00028482       0.00384782      -0.00386785
H        3.52019128      11.39755156       0.16998216       0.00019684       0.00099682      -0.00584267
H        4.65757670      12.53977663       0.89130875      -0.00818078       0.00566214      -0.00014582
H        5.22027115      11.36000445      -0.29318312       0.00170715       0.01126135      -0.00032088
H        6.95483842      10.00423882       4.23688372       0.00232019       0.00757472      -0.00380506
H        3.62492540       7.62943924       2.96752502       0.00351214       0.00484300      -0.00246442
H        5.52336678       8.00186544       4.51555598       0.00265389       0.00815460      -0.00546104
C        9.58362430       9.63474843       0.43779765       0.00369865      -0.00082269       0.00181788
C       10.43922938       8.57200239       0.13822060       0.00245136       0.00317797       0.00004166
C        8.21078374       9.43171079       0.31067019       0.00190285       0.00065248       0.00358928
C       10.12893076      10.94735049       0.91544668       0.00151072      -0.00011122       0.00351124
C        9.93388751       7.34803657      -0.27950713       0.00426027       0.00052086      -0.00215091
C        7.69935375       8.20441880      -0.09372303       0.00436665      -0.00212334       0.00108171
C        8.55976922       7.15736674      -0.39798603       0.00284231       0.00267875      -0.00038410
H       11.50925629       8.70956761       0.24248015       0.00291166       0.00229577      -0.00158745
H        7.53172250      10.24171405       0.54530328       0.00264607      -0.00226627       0.00512080
H        9.38949920      11.74197283       0.81828645       0.00186738      -0.00047380       0.00311381
H       10.41692203      10.88665857       1.96873828       0.00040427      -0.00072265       0.00369349
H       11.02359114      11.23374231       0.35990091       0.00220530       0.00017595       0.00469834
H       10.61669188       6.53886704      -0.51246107       0.00372147       0.00314352      -0.00290369
H        6.62569064       8.07098452      -0.16355790       0.00342016      -0.00096517       0.00251627
H        8.16363863       6.20059372      -0.71898609       0.00443360       0.00105355      -0.00209172
C       11.06453994       2.29918805       2.43627384      -0.00445685       0.00401145      -0.01187689
C       12.29014314       2.79647963       2.89960074      -0.00042018       0.00246748      -0.00739557
C       10.20580996       3.17203000       1.77274201      -0.00210443      -0.00591815      -0.00479743
C       10.66072986       0.87674716       2.70180517       0.00747171      -0.00251231      -0.01346496
C       12.60207981       4.14790553       2.75459864      -0.01068448       0.01192956      -0.00923813
C       10.51187574       4.51962793       1.63935004      -0.01181613       0.00514588      -0.00750799
C       11.70502931       5.02220476       2.14218474      -0.00631260      -0.00071061      -0.00406149
H       12.95737673       2.13411772       3.45388461      -0.00138986       0.00857596      -0.01145966
H        9.26342336       2.79694935       1.39382358      -0.00406319      -0.00211461      -0.00772008
H        9.66199006       0.67292990       2.31859854       0.00655878      -0.00389163      -0.01144154
H       11.35620892       0.16008388       2.25870000       0.00869270       0.00488679      -0.02261919
H       10.64271388       0.68224663       3.77572838       0.01526797      -0.01127589      -0.01561770
H       13.53698280       4.52453366       3.15972749      -0.00963753       0.01078326      -0.00431148
H        9.80426886       5.18515671       1.16534258      -0.01134352      -0.00156038      -0.00032392
H       11.93227690       6.07727468       2.04835641      -0.01660425       0.00668934      -0.00191350
C        6.90541104       1.91254107       3.16379863      -0.00988925      -0.00993827       0.00664660
C        6.36221520       0.73290267       3.67119361      -0.00610822      -0.00067161       0.01201144
C        7.82065357       2.61204125       3.94908432       0.00068271      -0.00553852       0.00651389
C        6.50429814       2.39576252       1.79864835      -0.00781184      -0.00610658       0.00869435
C        6.76248228       0.23445788       4.90264280      -0.01043753      -0.00619438       0.00759738
C        8.21530975       2.12421482       5.18933727      -0.00325020      -0.01065934       0.00254124
C        7.69984855       0.92434477       5.66460992       0.00057661      -0.00191998       0.00822306
H        5.58752288       0.21872647       3.11677834      -0.01321441      -0.00220227       0.01301994
H        8.21833448       3.55383668       3.59517193      -0.00089279      -0.01065536       0.00232457
H        6.94272082       3.36746749       1.57601860      -0.01038218      -0.00630574       0.00827779
H        6.82519849       1.69156086       1.02444293      -0.00767407      -0.00607422       0.00828424
H        5.41792658       2.48085185       1.71543698      -0.00854999      -0.00883857       0.00979056
H        6.31925324      -0.68328929       5.26709368      -0.00822797      -0.00063534       0.01208948
H        8.92480906       2.68873885       5.78312742       0.00301079      -0.00850009       0.00217071
H        8.01038811       0.54248124       6.63045049      -0.00166015      -0.00539885       0.00541667
C        5.36056701       5.04004829       4.14543530      -0.00303538       0.00461027      -0.00001181
C        6.00168144       5.51811319       3.00247486      -0.00558160      -0.00059640      -0.00151640
C        5.99108878       5.22099594       5.37707988      -0.00358020       0.00258487      -0.00133139
C        4.04467452       4.32614726       4.05258061      -0.00734699       0.00334239       0.00818253
C        7.24043895       6.14103259       3.07918425       0.00289506      -0.00015005      -0.00143217
C        7.23036871       5.84391393       5.46144264      -0.00033193       0.00089886      -0.00437097
C        7.86077208       6.30490646       4.31127521      -0.00228739      -0.00277683       0.00054180
H        5.51394272       5.41027922       2.04003756       0.00038067       0.00182354      -0.00181720
H        5.51052689       4.85665125       6.27913303      -0.00653666       0.00359017      -0.00379155
H        3.44173462       4.50197923       4.94609559      -0.01984644      -0.00724059      -0.00305638
H        3.47323519       4.65386525       3.18220223       0.00499238       0.00008051      -0.00571895
H        4.17721088       3.24288224       3.96334620      -0.00469033       0.00209427       0.01313717
H        7.71024439       6.52459207       2.18202964       0.00087883      -0.00080201       0.00149062
H        7.70290160       5.97030791       6.42704010      -0.00430531       0.00116551      -0.00054435
H        8.82158466       6.80228140       4.36802605      -0.00022261      -0.00135862       0.00074513
