140
Lattice="12.421949821987754 0.0 0.0 0.0 12.421949821987754 0.0 0.0 0.0 12.421949821987754" Properties=species:S:1:pos:R:3:forces:R:3 energy=-76366.8125 stress="-0.0002607415081001818 -0.00023330855037784204 0.00016660363326082006 -0.00023330855037784204 0.00018377431842964143 -6.891856901347637e-05 0.00016660363326082006 -6.891856901347637e-05 0.0009884105529636145" pbc="T T T"
Li       2.39012249      12.75990686       4.47815443      -0.00453554      -0.00092597      -0.00183107
Li       1.68071442       9.61309834       5.59065933      -0.00046334       0.01286817       0.04430810
Li      -0.14021402       0.13272766       2.42129112      -0.02724777      -0.01557502       0.02812202
P        0.72622984      11.14659613       4.12662751      -0.00887640      -0.00399119       0.03881608
O        2.26189425      10.92378286       4.44234117      -0.00851727      -0.00154352       0.02246997
O        0.34031995      10.78805223       2.69461494      -0.02125426      -0.01484025       0.03446972
O        0.00982257      10.32885706       5.21882839      -0.00103986       0.00918162       0.04077196
O        0.55805809      12.70638068       4.21429040      -0.00858578      -0.00140512       0.01971439
O        6.55780363      11.77712551       8.77785082       0.00706953      -0.00661849       0.00010037
C        6.01666440      10.78688621       9.66480786      -0.00170740      -0.00171167       0.00043909
C        4.49737461      10.78934486       9.60689094      -0.00175297      -0.00049693      -0.00734466
C        6.60844777       9.42451450       9.36557620      -0.00192201      -0.00335908       0.00896269
H        6.32433012      11.11176045      10.66365986      -0.00745632       0.00188237       0.00112629
H        4.08480883      10.10186723      10.34850126      -0.00590286       0.00235560      -0.00693326
H        4.10748675      11.78810559       9.80312245      -0.00287140       0.00018641      -0.01312591
H        4.15553465      10.47337681       8.61784822       0.00262021      -0.00461179      -0.00775589
H        6.23374892       8.66769253      10.05636775      -0.00623069      -0.00038307       0.00995824
H        7.69643787       9.44172714       9.42445590      -0.00224778      -0.00377857       0.01390963
H        6.34588153       9.10550638       8.35276799       0.00277528      -0.00660450       0.00862367
H        6.69011579      11.35095592       7.92490379       0.01096817      -0.01006499       0.00226985
O        5.35733612       4.54462485      10.19008198       0.00247729       0.00004321       0.00268745
C        6.22881841       3.67827324      10.92538084       0.00185996       0.00108072       0.00278527
C        6.16051469       2.25787358      10.39200102      -0.00381992      -0.00134826       0.01051357
C        7.65293405       4.20975649      10.91931614       0.00328529      -0.00342095      -0.00169803
H        5.83783957       3.70211802      11.94534602       0.00354961       0.00728040       0.00423950
H        6.76082811       1.57913208      11.00133798      -0.00391296       0.00004827       0.01222125
H        5.13293921       1.89396653      10.37712542      -0.00506364       0.00170701       0.01544155
H        6.55566518       2.20983188       9.37407736      -0.00694954      -0.00756044       0.00958247
H        8.28372340       3.63774314      11.60341670       0.00302340      -0.00229406      -0.00040460
H        7.67420856       5.25796612      11.21692994       0.00701898      -0.00210431      -0.00617867
H        8.08135591       4.12960448       9.91751888       0.00125554      -0.00870070      -0.00218330
H        5.63946663       4.52507390       9.27000290       0.00160861      -0.00510085      -0.00103384
O       10.57027548      10.12101636       7.61998282       0.01326267       0.00477325      -0.03637809
C       11.02210345      10.37784461       8.95554308       0.00315136       0.00524536      -0.03475553
C       11.91108725       9.25510191       9.47451924      -0.00204194       0.00603396      -0.02278998
C       11.70185668      11.73077253       9.05806278       0.00123978       0.00622779      -0.02610788
H       10.10760700      10.39564426       9.55821274      -0.00216186       0.00520633      -0.04326618
H       12.24598308       9.47080159      10.49187126      -0.01503314       0.00714319      -0.01845826
H       11.37406186       8.30652199       9.48355404      -0.00166379       0.00589754      -0.02790180
H       12.79788179       9.14766776       8.84517258       0.00682996       0.00462138      -0.01008137
H       11.99013024      11.93626902      10.09106710      -0.01201213       0.00396657      -0.02213134
H       11.03635512      12.52273526       8.71726718       0.00415550       0.00626917      -0.03194051
H       12.60466168      11.74955598       8.44304700       0.00846680       0.01005649      -0.01536646
H       11.26184277      10.32491958       6.96176281       0.01684113       0.00240052      -0.03597120
O        8.80871245       7.92680827       7.41144692       0.01819985       0.00831676       0.00676307
C        9.36683839       6.82220559       6.71764137       0.00351527       0.00628167      -0.00031419
C       10.87594146       6.93063600       6.61570542       0.00399160      -0.00729059      -0.00840003
C        8.93493908       5.55742215       7.43591341      -0.00449848       0.00757831      -0.00285566
H        8.95639850       6.80106741       5.69250574      -0.00221401       0.01396386       0.00174403
H       11.29393159       6.09124676       6.05620511      -0.00661474      -0.00732855      -0.01607054
H       11.16192010       7.85851348       6.11756266       0.00909765      -0.00672859      -0.00373635
H       11.31384636       6.93024780       7.61520104       0.00936031      -0.01736692      -0.01077493
H        9.30884001       4.66929721       6.92287046      -0.01393757       0.00647276      -0.00806323
H        7.84618826       5.49920154       7.49508228      -0.00454465       0.01623591       0.00177639
H        9.33002304       5.56501998       8.45292891       0.00017972      -0.00011703      -0.00483350
H        9.41946658       8.68536570       7.35338283       0.01685549       0.00890277      -0.01000839
O        2.46165640       5.33476428       5.44223608      -0.01633048      -0.00062671      -0.01125836
C        2.96140654       6.60886038       5.84200507       0.00056188      -0.00639421       0.00090769
C        3.56977608       7.34580530       4.66329219      -0.00363559      -0.00019574       0.00166070
C        1.86038269       7.41724091       6.51776069       0.00946975      -0.00463182       0.01400831
H        3.73975635       6.38801340       6.57686758       0.00158530      -0.02364448      -0.00844958
H        3.93501967       8.33679730       4.94593688       0.00691747      -0.00755551       0.01179554
H        4.40198192       6.77094215       4.26414838      -0.00921148      -0.00288562      -0.00753911
H        2.82080214       7.48339156       3.87607680      -0.00497551       0.01349312       0.01046398
H        2.27641110       8.31591488       6.99631305       0.02367134      -0.01335216       0.02017651
H        1.38045513       6.83969180       7.30616025       0.01149146      -0.00840627       0.01369761
H        1.07668522       7.67509407       5.79350735       0.00883134       0.00765919       0.02374624
H        1.93389707       5.46838469       4.64691629      -0.01860361       0.01406266      -0.00626490
O       12.52568187       6.87699429       2.13958267       0.00377482       0.00795329       0.02080599
C       11.10913429       7.10093081       2.06382882       0.00310284      -0.00310549       0.00850335
C       10.74547193       8.40855801       2.73280642      -0.01278952      -0.00669724       0.00614870
C       10.62851672       7.04376289       0.62079560       0.01529545      -0.00489591       0.00459319
H       10.67050692       6.26064791       2.61474389       0.00532886      -0.00740936       0.00410968
H        9.67430691       8.59436549       2.66081825      -0.01324974      -0.01355649      -0.00468419
H       11.03802209       8.42040426       3.78263706      -0.02297286      -0.00582484       0.00864249
H       11.27816017       9.24026341       2.26640030      -0.01399854      -0.00319725       0.01181468
H        9.54368616       7.16185480       0.57573961       0.01479459      -0.01248619      -0.00388538
H       10.89295399       6.09477481       0.15234085       0.02569257      -0.00223371       0.00555504
H       11.07758390       7.85375991       0.04150157       0.01392887      -0.00082868       0.00914074
H       12.94695937       7.72202582       1.94216360      -0.00164327       0.01410347       0.03116010
O       11.03116047       1.22927618       1.49079239      -0.01109701      -0.00766674       0.01545665
C       10.88981440       2.60768187       1.92107574      -0.00030228      -0.00381330       0.00379422
C       10.03799955       2.66711385       3.17176609       0.00908136       0.01297566       0.00907695
C       12.28034857       3.15326608       2.16373968       0.00519264      -0.01007983      -0.01219103
H       10.41278144       3.16692887       1.10641457      -0.00250646      -0.00816751       0.00256151
H       10.01275953       3.67980933       3.57716062       0.01364186       0.01789647      -0.00325385
H        9.00867374       2.36649820       2.97453690       0.00713238       0.01270126       0.01890058
H       10.47015159       2.00396761       3.92323872       0.01214071       0.02119444       0.01446833
H       12.23443801       4.21960433       2.39062760       0.01168049      -0.00813787      -0.01760475
H       12.91246040       3.02847170       1.28310541      -0.00380503      -0.01788798      -0.01700044
H       12.73193485       2.63534040       3.01419244       0.01089642      -0.00629039      -0.01321316
H       10.15261604       0.80461772       1.50860542      -0.02075574       0.00522167       0.00466900
O        6.93538189       0.97856923       4.16911300      -0.01354212      -0.00050443       0.00016475
C        7.06240128       1.02382744       5.60019115      -0.01229681      -0.00380632       0.00025910
C        8.10595300       2.03527073       6.03700315      -0.01039070      -0.00631648       0.00123292
C        5.68773237       1.35874805       6.13716069      -0.01166546      -0.00274612       0.00153844
H        7.36120294       0.02707589       5.95053168      -0.01232065      -0.00503743      -0.00278082
H        8.12483288       2.11070969       7.12595980      -0.00668351      -0.01212351       0.00135526
H        9.10315072       1.74618333       5.70571659      -0.01214175      -0.00691023      -0.00312898
H        7.86202416       3.01308694       5.61821883      -0.00985248      -0.00383040       0.00660001
H        5.69692749       1.36617521       7.22644082      -0.01275569      -0.00773080       0.00155491
H        4.96262026       0.60859493       5.80938019      -0.01411230       0.00117320      -0.00215920
H        5.37979734       2.34192300       5.77529835      -0.00770360      -0.00019686       0.00526616
H        7.74433204       0.63810939       3.76068637      -0.01212302       0.00541547      -0.00257369
O        8.44483844      12.46481786       1.84565331      -0.02132940       0.02258950      -0.00836271
C        7.94398793      11.10440241       1.68531689       0.00106090       0.01462470      -0.00581750
C        6.43040742      11.13580312       1.68710079       0.00124466      -0.01184422      -0.00603549
C        8.52194594      10.46875078       0.43660426       0.01260772       0.02181958      -0.00433999
H        8.31063278      10.57209442       2.56646789       0.00715391       0.02126840      -0.00430560
H        6.01602530      10.13426814       1.57014364       0.01942793      -0.01943876      -0.00066272
H        6.05545249      11.56630961       2.61411759      -0.00658276      -0.01440310      -0.00798374
H        6.07030457      11.75018177       0.85684576      -0.00874357      -0.02321126      -0.00949670
H        8.11908971       9.46095480       0.31080063       0.03128952       0.01459874      -0.00054695
H        9.60750511      10.39411738       0.49814832       0.01348236       0.04120716      -0.00480454
H        8.25369000      11.04822100      -0.44920118       0.00234393       0.01377203      -0.00647140
H        7.81176867      13.04782266       1.40427547      -0.03436503       0.01454636       0.00058332
O        5.70316758       2.20226422       1.90461430       0.00854504      -0.01520279      -0.00026137
C        4.27642471       2.29977176       1.96718689       0.00918692      -0.00823176      -0.00190181
C        3.66929029       0.95936325       2.35849114       0.00175622      -0.00355059       0.00331253
C        3.82988174       3.40746359       2.90773740       0.01316573      -0.00251251      -0.00727373
H        3.96386561       2.54993737       0.94906206       0.01163457      -0.01116897      -0.00368583
H        2.58011515       1.03504774       2.44972175       0.00162992       0.00296752      -0.00024103
H        3.88185351       0.18194105       1.62641767      -0.00028820      -0.00821149       0.00790723
H        4.11531692       0.62542954       3.30492188      -0.00193963      -0.00021584       0.00619109
H        2.73935098       3.45596042       2.95488917       0.01341131       0.00723351      -0.01418402
H        4.19815921       4.37687969       2.57660616       0.02395544      -0.00658354      -0.00671493
H        4.20434315       3.24260576       3.92019867       0.00506952      -0.00355776      -0.00435749
H        6.02169022       1.95581040       2.79105158       0.00585395      -0.00942112       0.00407429
O        6.58753862       5.26106894       4.30777022       0.00394908       0.00434186       0.00135112
C        6.66448412       5.96970051       3.06260422       0.00084549       0.00279602       0.00092813
C        7.14459673       7.39118238       3.28575785      -0.00221923       0.00404608      -0.00207677
C        7.51698661       5.22218866       2.05446108       0.00000709       0.00283137       0.00002310
H        5.63547399       5.99118051       2.69627552      -0.00017464       0.00040461       0.00256823
H        7.15604364       7.94663182       2.34586374      -0.00101014       0.00156141      -0.00348483
H        6.50829458       7.91704478       3.99753753      -0.00467506       0.00492106      -0.00474179
H        8.16451036       7.38481203       3.67729963      -0.00317113       0.00651146       0.00023961
H        7.49613872       5.73243253       1.09000993      -0.00420264      -0.00011021      -0.00134535
H        7.14121490       4.20806156       1.91873633       0.00311054       0.00106502       0.00399531
H        8.55643121       5.18032733       2.38880666       0.00130522       0.00666703      -0.00274440
H        7.40627714       5.43468342       4.78559583       0.00633726       0.00625724      -0.00029710
