148
Lattice="11.308560449201144 0.0 0.0 0.0 11.308560449201144 0.0 0.0 0.0 11.308560449201144" Properties=species:S:1:pos:R:3:forces:R:3 energy=-485672.8125 stress="-0.0007577207288704813 0.0017844235990196466 0.00149264105129987 0.0017844235990196466 -4.757940405397676e-05 -0.000633901683613658 0.00149264105129987 -0.000633901683613658 0.0017367411637678742" pbc="T T T"
Nb       1.66663722       6.79575153       2.70666543       0.00080852      -0.00212462      -0.00311653
Nb       3.02917893       3.48888531       2.90422387       0.00124660      -0.00683018      -0.00113641
Nb      10.69524676       6.95809581       0.51312918       0.00282276       0.01154305      -0.00689316
P        1.23958712       4.33323497       7.34386121       0.00440374       0.00590149      -0.01241779
O        1.87207099       2.97546058       7.19584728       0.00496514       0.00557995      -0.00490485
O        0.81840128       4.69520254       8.72826090       0.01573137       0.01064507       0.00177065
O        2.13215162       5.43572151       6.66655792       0.00828032       0.00642893      -0.00828455
O       -0.01756124       4.45133277       6.29669322       0.00571045       0.00999518       0.00501800
P        8.89990284       4.97048736       6.71414844       0.01002848      -0.02494147      -0.03930214
O        7.62021302       4.22323638       6.59160330      -0.00293799      -0.01660309      -0.00108458
O        9.04124325       5.94853037       7.83277940      -0.01006920       0.02144812       0.01772536
O       10.06489516       3.81168972       6.76068185       0.00256652       0.00807542       0.00767249
O        9.22446862       5.76674648       5.35276746      -0.00476331      -0.01111552       0.00331110
P        1.80678466       9.57102173       8.52973610       0.00130466       0.01186626      -0.00595388
O        3.26786693       9.76978474       9.32384170       0.00869375      -0.00249884      -0.01387727
O        1.94112564      10.47999236       7.33915193       0.00332524       0.00488693      -0.00796169
O        1.73466371       8.07797465       8.24834197      -0.01366656       0.00905973      -0.00294307
O        0.73429568       9.99609348       9.54019890       0.01398519       0.02222727       0.00042343
P        4.69790137       6.31761617       3.29466359       0.00160272      -0.00724863      -0.00078943
O        5.14219509       6.65494237       1.90321557       0.00101619      -0.00650249      -0.00120484
O        2.27784625       5.13799897       2.10970767       0.00027309      -0.00336596       0.00175215
O        4.42162823       4.81249535       3.53497284       0.00194733      -0.00779571      -0.00342765
O        3.43186795       7.12232308       3.68202094       0.00149735      -0.00747300      -0.00061081
P        1.01256419       1.62502706       2.97844280      -0.00465757      -0.00098342       0.01137754
O        1.07140967       3.20197914       3.19982027       0.00333128       0.00022002       0.00260727
O        0.13406682       1.35259486       1.71643334      -0.00559470      -0.00142780       0.01022350
O        2.51193297       1.47108454       2.55166304      -0.00453499      -0.00946195       0.00931394
O        0.63743099       0.81484294       4.15619503      -0.00871254       0.00945225       0.01261550
O        9.17440229       1.27406026       7.77432047       0.00263491       0.00624908      -0.00281747
H        9.32078485       1.54892423       6.85025913      -0.00274749       0.01359754      -0.00182386
H       10.05884615       1.16564077       8.17268387       0.00670120       0.02221218      -0.00348962
O        6.89399568       8.57382041       1.46401775      -0.01244217       0.00076124      -0.00232816
H        6.16415677       7.91113891       1.58638231      -0.00633658      -0.00646685       0.00054114
H        6.92244524       9.04989835       2.30544792      -0.01221273      -0.00051431      -0.00137010
O        4.53735197       2.79656656       7.83221922       0.00155491      -0.01616582       0.01079623
H        3.58234185       2.97931351       7.74091993      -0.00417206      -0.01203606       0.00252355
H        4.97930774       3.57288931       8.22300311      -0.00018977      -0.01785004      -0.00101454
O        7.52451381       8.79705287      10.01427777      -0.00991249      -0.00074494       0.00674023
H        8.01407150       9.46209879       9.50053304      -0.01193814       0.00815031       0.01567721
H        7.33322657       9.18505317      10.88089170      -0.01370374      -0.00964014       0.01120974
O        7.61289668       8.39831292       6.45844544       0.00833106       0.00216970       0.01339038
H        8.25041338       8.73667798       7.11755740       0.00521381       0.01572745       0.00990310
H        7.84692007       7.46863849       6.35382782       0.00287553      -0.00022045       0.03890871
O       10.86718437       5.04547509       0.45090002      -0.00705206       0.01036900      -0.01128165
H        9.99317830       3.79715486       1.07562084      -0.00456878       0.00423887      -0.00810912
H       11.53840983       4.39464743       0.13353242      -0.00831853       0.00801061      -0.00979750
O        8.42285178       2.72858429      10.07311051      -0.02446430      -0.01292109       0.00553942
H        8.73046972       2.34224989       9.22964462      -0.01993175      -0.00884717       0.00469066
H        7.70366700       3.34064628       9.82561856      -0.02044332      -0.01023174       0.00529848
O        9.57844270       7.13710786      10.00653575       0.00089451       0.00890087      -0.01966908
H        8.74435860       7.68947609      10.05222300      -0.00261667       0.00743807      -0.00408694
H        9.45401677       6.48376589       9.26633628      -0.00170005       0.01340863       0.00031671
O        9.37298470       1.44701947       4.89737607      -0.00901796       0.03422641      -0.01036614
H        8.91341812       1.05410358       4.13781892      -0.00249892      -0.00176852       0.00504878
H       10.31503530       1.22939352       4.74691751      -0.00747044       0.03369090       0.00143331
O        9.49984700       2.96046557       1.26125511      -0.00196093       0.00415140      -0.00383094
H       10.63709751       1.96387072       1.56344823      -0.00205027       0.00116126       0.00650012
H        9.09556069       2.78589783       0.38113501      -0.00656615      -0.00083268       0.00077744
O        0.94566405       6.71947207      10.32386890       0.00214122       0.01097618      -0.00645322
H        0.85243772       5.91105612       9.75402820       0.00691512       0.00837804      -0.00339092
H        1.20641999       7.39465155       9.62295276      -0.00235830       0.01019945      -0.00906500
O        4.60700290       6.78023438       7.07994290       0.01030648      -0.00374761       0.00349665
H        3.66989300       6.50368558       7.09298563       0.01198906      -0.00279613      -0.00186419
H        4.81851445       8.11592019       7.28116414       0.01373659       0.00298297      -0.00126407
O       10.99816891       7.47647071       6.61360053      -0.01692711       0.01016583       0.00089148
H       11.85913911       7.54914750       7.10042232      -0.01616012       0.01111661      -0.00415257
H       10.36304550       7.22404253       7.30719184      -0.01073661       0.00156928      -0.00575735
O        0.38288086       1.28720832       9.22216966      -0.00140013       0.01659560      -0.01664013
H        0.50004986       0.30847650       9.35747270       0.00556014       0.01979411      -0.01485167
H        0.95719867       1.52183971       8.47554564       0.00440177       0.02180400      -0.01547519
O        3.90103737       0.59703100       5.90852021       0.00518249      -0.00511698      -0.00085574
H        3.18223218       0.12045628       6.38733104       0.00435527      -0.00340363      -0.00185873
H        4.37160464       1.09393197       6.59402656       0.00321207      -0.00178723       0.00051185
O       10.25013151       9.64484283       3.44632342       0.01726368       0.00638634       0.00719644
H       10.12710177      10.38440528       2.83887440       0.01624615       0.01111636       0.01208967
H       10.35513634      10.03393496       4.35896305       0.01269179       0.00134894       0.01109070
O        5.48702357       0.83034838       9.30809154      -0.00040596      -0.01499982       0.00976531
H        5.13562262       1.62352635       8.83021371      -0.00361979      -0.01595942       0.01011675
H        6.00159499       0.36401308       8.62080204       0.00201541      -0.01123984       0.00958071
O        1.34015194       8.83918978       3.38940860       0.01177399       0.00051332      -0.00264192
H        1.82081055       9.27046439       4.10340974       0.01788297      -0.00933531      -0.00089389
H        0.38199222       9.22380488       3.35438300       0.01252952       0.00554745       0.00358213
O        7.26972316       0.63477240      11.51299694       0.00603314      -0.02739841       0.00503179
H        7.77336049       1.32932471      11.04466247      -0.00985940      -0.01563311       0.00600695
H        6.47001800       0.61513245      10.96517801       0.00161758      -0.03317777       0.01272723
O       10.97083602       6.94403995       2.55473163       0.00172766       0.01117741      -0.00868887
H       10.32388727       7.32041966       3.16276682       0.00756305       0.02326742      -0.01243198
H       10.00598813       6.34386697       5.53231129      -0.01177365      -0.00094703      -0.00837888
O        1.16920188       5.95033024       4.44062462      -0.00781631       0.00952754      -0.00373369
H        0.44289788       5.31390902       4.42245669      -0.00776929       0.01073499      -0.00037979
H        1.79878468       5.72607591       5.72099936      -0.00106823       0.00718236      -0.01036590
O        3.47829877       3.26597155       0.85813196      -0.01254550      -0.01412624      -0.00165087
H        2.64004758       3.41567671       0.29238425      -0.01472425      -0.01234196      -0.00192955
H        3.72823052       2.34814335       0.56148854      -0.01359022      -0.01435015      -0.00087225
O        9.38752754       9.64944360       8.24502049      -0.00898397       0.01439953       0.01815831
H        9.75035942      10.14977648       7.48780311      -0.00817743       0.02658191       0.02619306
H       10.17803002       9.47444503       8.78453428      -0.00881617      -0.00080067       0.01311032
O        3.56292593      10.28206734       1.71370143       0.01967040      -0.00320801       0.02187999
H        3.67055182      10.86903476       0.93194773       0.01609464      -0.00826578       0.01768791
H        2.97692358      10.81864558       2.26609616       0.01435576      -0.00313680       0.01636501
O        3.11575837       2.83183630       4.91310434       0.00915539      -0.00549329      -0.00239111
H        3.43470416       1.89164270       5.14395855       0.00614760      -0.00577378      -0.00168130
H        2.48300644       2.99505255       5.67774144       0.00862265      -0.00155845      -0.00110784
O        6.44108260       2.28461239       5.03097979       0.00322938      -0.00716452      -0.00889081
H        7.22178080       1.96687708       4.55527430       0.00399458      -0.00880848       0.00137448
H        6.76833358       3.03975497       5.56758786       0.00008798      -0.00738534      -0.00809877
O        8.74363226       6.83553226       1.29245828       0.00129025       0.01566835      -0.01090745
H        8.49655664       6.06039283       1.91575619       0.00109087       0.01220137      -0.01122551
H        8.03621040       7.56070225       1.34014470      -0.00140877       0.01042227      -0.00995880
O        1.32081825       3.30942208      10.80406025      -0.00389779       0.00422370      -0.00307068
H        1.26685084       3.80834961       9.93817184       0.00728839       0.00933630      -0.00089182
H        0.93363151       2.44246578      10.54717649      -0.00204274       0.00662357      -0.01421388
O        6.90416553      11.18729436       7.14203546       0.00652722      -0.00106514       0.00640962
H        6.63926400      11.84003992       6.47495773       0.00233831      -0.00333290       0.00505434
H        7.79069070      11.49941306       7.43377752       0.00493106       0.00466865       0.00573768
O       -0.46955040      10.07220199       5.95976510      -0.01886871       0.01517474       0.01048470
H        0.38784046      10.43961745       6.25678007      -0.01274534       0.01289825      -0.00199635
H       -0.41344823       9.11194603       6.18469682      -0.02084139       0.01639272       0.01083136
O        4.92119489       9.18799488       7.42075932       0.01080066       0.00009032      -0.00456864
H        5.83757364       9.52920000       7.41529327       0.01118070      -0.00049940      -0.00002412
H        4.38658323       9.49515520       8.22267180       0.00511308       0.00006482      -0.00644758
O        8.15513253       4.87436596       2.82024056      -0.00388739       0.01582149      -0.01398200
H        8.52080814       4.97401128       3.71164927      -0.00991426       0.01458652      -0.01023081
H        8.50041364       4.03856020       2.45607563      -0.00318354       0.01234989      -0.00926391
O        3.60454499       0.85726117      -0.24035344      -0.00254494      -0.01773323       0.00649673
H        4.25158572       0.68383259      -0.97692266      -0.00186493      -0.01617153       0.00688320
H        2.73128312       0.74128515      -0.63500085      -0.00219977      -0.03395316       0.00994173
O        5.78006909       6.68841162       4.39558511       0.00132719      -0.00914848      -0.00081640
H        4.96725869       6.50983286       6.21832876       0.01318204      -0.00703600       0.00084874
H        6.02278009       7.64647743       4.32423160       0.00043712      -0.00876445       0.00234193
O        2.85885159       7.83910999       1.13805071       0.00696465       0.00127013      -0.00017250
H        3.04244016       8.80075591       1.38221593       0.01128749      -0.00227733       0.00838776
H        3.74873481       7.40323587       1.19015048       0.00497389      -0.00373090      -0.00115115
O        7.52713851       0.60447217       2.94618907       0.00015873      -0.03673056       0.00566889
H        7.22297345      -0.27009702       3.21621635       0.00057594      -0.03390951       0.01403210
H        7.42400942       0.65292568       1.96781471       0.00374773      -0.04305781       0.00509711
O        6.44937136       9.38336034       4.27450495      -0.00118208      -0.01688594       0.00945371
H        7.01473490       9.24073094       5.07541134       0.00047754      -0.01570660       0.00767368
H        5.68440331       9.88482644       4.58545572       0.00023532      -0.01332146       0.00950533
O        4.88934866       2.37768747       2.98482985       0.00324799      -0.00801909      -0.00842622
H        4.78426981       1.42900882       2.84815478       0.00643145      -0.00783575      -0.01284280
H        5.49514608       2.48543108       3.80523251       0.00383641      -0.00951465      -0.00970542
O        6.40770419       4.42102404       9.00625050      -0.00602660       0.00008631      -0.01195437
H        6.37405839       5.33226157       9.31433733      -0.00984474      -0.00124225      -0.02434087
H        6.85093401       4.45717790       8.12675961      -0.00211763      -0.01213187      -0.01083520
O       -0.18352753       8.76651813       0.34624384       0.00465446       0.01054081      -0.00882098
H        3.31253468       9.16462401      -1.23144640       0.00865313      -0.00397602      -0.01459634
H        0.20125721       9.31369743      -0.40208456       0.00755389       0.01503363      -0.00470686
