148
Lattice="14.365080876124024 0.0 0.0 0.0 14.365080876124024 0.0 0.0 0.0 14.365080876124024" Properties=species:S:1:pos:R:3:forces:R:3 energy=-441079.1875 stress="0.0001825652434490621 5.30049110238906e-05 -0.00019931746646761894 5.30049110238906e-05 0.0004540669615380466 -0.0002892835909733549 -0.00019931746646761894 -0.0002892835909733549 0.00020796888566110283" pbc="T T T"
Nb      13.81781229      12.04127128       8.26383847       0.02035879      -0.01839028       0.01235872
Nb       6.48892499       4.26843524      10.00850395      -0.00328415       0.00419641      -0.00236119
Nb       2.37262480      12.02707175       5.03587436      -0.00958662      -0.00394175       0.00502187
P        1.85715479      10.13091143       6.86838323      -0.00965707      -0.01669675      -0.01600489
O        2.76773125      11.43691509       6.91205011      -0.00555480      -0.02128323      -0.00293220
O        1.70271218      10.14694808       5.28782626      -0.00129184      -0.01143293      -0.01512861
O        2.37487266       8.91980361       7.49503899       0.01276062      -0.01728374      -0.03865457
O        0.43860114      10.59264765       7.40356136      -0.00487101      -0.02276593       0.00402251
P        3.20441386       0.73193816       3.26342532       0.02818499      -0.00613987       0.02405450
O        2.51899296      -0.89096429       3.33858809      -0.01125193      -0.00707406       0.00598653
O        2.42971457       1.64721630       2.44398287       0.00379151      -0.01067877      -0.03152800
O        3.98771745       1.00615145       4.47688517      -0.01882052      -0.00711238      -0.04041147
O        3.73943486      -0.62903444       2.47680837      -0.00273722      -0.02150540       0.00260302
P        0.35530146      13.72733051       5.51201998       0.01058012      -0.00445873       0.02931285
O       -0.46563784      13.28031653       6.78489630       0.01757328      -0.00956020       0.02835697
O       -0.15159015      14.90514512       4.83534488       0.00989497       0.00135487       0.03496780
O        1.87828743      13.70397874       5.95893446       0.01229861       0.00610309       0.00824560
O        0.48041901      12.38251220       4.63976432      -0.01406033       0.00807969       0.01350240
P       11.11344280      12.99974824      10.17654853       0.00808497      -0.01891764       0.00284895
O       10.73095262      14.40682819      10.15674704      -0.02701782      -0.02105723      -0.00578599
O       12.03704651      12.55672648       9.02043643       0.03533396      -0.00011407       0.02642909
O       14.88269884      12.65913671       9.41016547       0.03446215      -0.02922674       0.00308385
O       10.74066113      11.92745259      11.09766005       0.02089559       0.00396556       0.01208757
P        6.47156100       2.14751690      11.71151232       0.00315996       0.00090143      -0.00589864
O        6.91105163       2.15771005      10.24949729      -0.00237194       0.00446677      -0.00763988
O        5.88821084       3.54136704      11.95340367      -0.00146538       0.00044292      -0.00739563
O        6.58873804       1.06787369      12.67577688      -0.00263029      -0.00557166      -0.01332402
O        7.92618788       5.12134501      10.17206763      -0.00521594       0.00727618      -0.00073430
C       12.17460343       7.19460225       9.55872149       0.00969344       0.01142727      -0.00161668
C       12.58789450       5.73674244       9.38018703       0.00670469       0.01023236      -0.00011292
C       13.35419241       8.16291055       9.48757142       0.01311404       0.00782843       0.00690570
C       11.45212750       4.73855773       9.58166310       0.00392741       0.01273887      -0.00205873
C       12.92780385       9.62087892       9.64304903       0.01606736       0.00831005       0.00969650
C       11.88763372       3.29714501       9.35466831       0.00260793       0.01138031       0.00150425
H       11.43084527       7.45602635       8.79678120       0.01603304       0.01461295      -0.00687742
H       11.66985525       7.31152663      10.52417902       0.00364631       0.01210836      -0.00479019
H       13.39533688       5.50294516      10.08370138       0.00447579       0.00916658       0.00230995
H       13.01594025       5.60053949       8.38077791       0.00915720       0.00855352       0.00098327
H       14.06713772       7.91208435      10.27787710       0.00833181       0.00188451       0.00987408
H       13.89382580       8.03401691       8.54558375       0.01685391       0.00926255       0.00865835
H       11.05111188       4.84868540      10.59491639       0.00187668       0.01538791      -0.00301149
H       10.62431764       4.98426777       8.90755178       0.00586802       0.01330986      -0.00467241
H       12.35721119       9.94104435       8.76133824       0.02686330       0.01388967       0.00371400
H       13.81644553      10.25381164       9.80557779       0.01517395       0.00460538       0.02747685
H       12.27179617       9.79354927      10.49787349       0.00532693       0.00619537       0.00198427
H       12.24871028       3.15192406       8.33532206       0.00584690       0.00923924       0.00272721
H       12.70169675       3.01949500      10.02854796       0.00069912       0.01227716       0.00444691
H       11.07689042       2.58757036       9.52353382       0.00076413       0.01259233       0.00010113
C        8.06068633      10.27048950       1.14695678      -0.00068867      -0.00211056      -0.00251383
C        9.19742410      11.23511952       0.82818050      -0.00147277      -0.00001460      -0.00257745
C        8.31914163       8.84702679       0.66529740       0.00174278      -0.00143893      -0.00327320
C        8.94386812      12.65040556       1.33659869      -0.00290382      -0.00143713      -0.00461450
C        7.15033478       7.90625477       0.92485652       0.00247490      -0.00121912      -0.00140031
C       10.07584146      13.61306027       1.00045533      -0.00654498       0.00150084      -0.00529638
H        7.88697605      10.25827374       2.23079280       0.00347842      -0.00058958      -0.00223476
H        7.13413759      10.64420602       0.69402368      -0.00154594      -0.00287343      -0.00124647
H        9.36228787      11.26200827      -0.25470783      -0.00256231      -0.00073523      -0.00080109
H       10.12821088      10.85529337       1.26663482       0.00161678       0.00313277      -0.00490867
H        8.54275578       8.86783658      -0.40578719       0.00083820      -0.00038091      -0.00353923
H        9.21860585       8.46040649       1.15556311       0.00225553      -0.00015675      -0.00348955
H        8.00745229      13.02394327       0.91006983      -0.00626525      -0.00157170       0.00368249
H        8.79341424      12.62151032       2.42177426      -0.00008775       0.00143024      -0.00608632
H        6.91126736       7.85873174       1.98992138       0.00365693      -0.00169839      -0.00106803
H        7.36360676       6.89073676       0.58751074       0.00201533      -0.00069195      -0.00139450
H        6.25296875       8.24730025       0.40363234       0.00165467      -0.00132172      -0.00008585
H       11.02475443      13.26386255       1.41309189      -0.00472519       0.00320202      -0.00607150
H       10.19750629      13.70758797      -0.08053712      -0.00275248       0.00504770      -0.00367931
H        9.88735438      14.60764631       1.40707521      -0.00945374       0.00276229      -0.00750056
C        3.68112110      10.74797627       3.08268720       0.00357731      -0.00373992       0.01003635
C        3.64514286       9.25764009       2.74353259      -0.00429821      -0.00337300       0.00950092
C        4.55211563      10.96995411       4.34059451      -0.00338975      -0.00558496       0.01449475
C        2.47429942       8.82461841       1.87177113       0.00225928       0.00675875      -0.00385509
C        4.96337504      12.38510951       4.79168802      -0.00800934      -0.00540015       0.01613078
C        2.52860971       7.33224772       1.56787133      -0.00621154       0.00719982      -0.00765949
H        4.04389551      11.36781564       2.26155530       0.00994314      -0.00710677       0.01025563
H        2.60456217      11.05007484       3.15949990       0.00462407       0.00062664       0.00074942
H        3.60633526       8.68678085       3.67501780      -0.01882222      -0.00177582       0.00941035
H        4.59273170       9.00642054       2.25506242      -0.00092715      -0.01039178       0.02008343
H        4.17145940      10.36419971       5.17854891      -0.00591877      -0.00633487       0.01208323
H        5.49347961      10.45623746       4.11518012      -0.00261867      -0.00545537       0.01860488
H        1.54415032       9.05984231       2.39865239      -0.00176430       0.01311311      -0.01361753
H        2.46119011       9.39777530       0.93944522       0.01693261       0.01010270      -0.00197384
H        5.44512151      12.92208786       3.97833827      -0.00113708      -0.00199544       0.02260202
H        5.62055054      12.30059827       5.65612980      -0.01258238      -0.00576773       0.02022490
H        4.20669968      13.13991475       5.11650527      -0.01410364      -0.00605128       0.00566670
H        3.41577256       7.08272642       0.98183580      -0.00189960       0.00214531       0.00106831
H        2.57344895       6.75161183       2.49169362      -0.02069330       0.00440718      -0.00881502
H        1.65364427       6.99833181       1.00943640      -0.00324737       0.01686454      -0.01781150
C       11.94133120       9.57348565       4.77562886      -0.00361091      -0.00383966      -0.00818393
C       11.58332743       8.56711904       3.69349261      -0.00171423      -0.00533845      -0.00846708
C       10.74246620      10.41255999       5.19920570      -0.00340301      -0.00271705      -0.00780563
C       12.75286970       7.71504258       3.22167603       0.00245607      -0.00219859      -0.00462033
C       11.07240311      11.34544510       6.34910445      -0.00422817      -0.00080252      -0.00826690
C       12.32323920       6.67206535       2.20047455       0.01153144      -0.00333974      -0.00679153
H       12.33946855       9.04204446       5.64935242      -0.00387744      -0.00285423      -0.00745806
H       12.74832573      10.23018914       4.43071604      -0.00354341      -0.00369236      -0.00836515
H       11.15425489       9.09838725       2.83574272      -0.00167586      -0.00699396      -0.00972626
H       10.78829802       7.91046716       4.06752073      -0.00058842      -0.00709632      -0.00865720
H       10.37912329      10.98885547       4.34272804      -0.00041405      -0.00079003      -0.00746578
H        9.92214728       9.74804525       5.48997805      -0.00537631      -0.00129405      -0.00878248
H       13.52483518       8.36428093       2.79719316       0.00188181       0.00095394      -0.00083555
H       13.21418412       7.22293826       4.08376197       0.00042952      -0.00101541      -0.00284243
H       11.42526094      10.76039822       7.20275867      -0.01490236       0.00024062      -0.00367701
H       10.21613332      11.92520333       6.69655856      -0.00234281       0.00635383      -0.01641095
H       11.85265903      12.05438467       6.06580913       0.00217286      -0.00761577      -0.00675414
H       11.58441098       5.99297629       2.63096059       0.01259080      -0.00719081      -0.01144420
H       11.86288978       7.14434879       1.32934846       0.01474784      -0.00573492      -0.00961721
H       13.16148799       6.06818176       1.85125820       0.01600643       0.00064807      -0.00221189
C       11.39622677       2.15520471       4.01914614      -0.00809383       0.00167093       0.00340678
C       10.50505296       2.91929540       3.04931952      -0.00422621       0.00205891      -0.00004156
C       10.73398527       1.98870311       5.38524802      -0.01150396       0.00581861       0.00255483
C       11.09150195       3.10887574       1.65625361       0.00090057      -0.00188211       0.00242306
C       11.50406308       1.07750139       6.32845713      -0.01639822       0.00626352       0.00882086
C       10.11260969       3.79628199       0.71282939       0.00890434       0.00132698      -0.00310197
H       11.63098955       1.16971822       3.60423381      -0.01068541      -0.00003177       0.00572054
H       12.36136852       2.65885750       4.13085235      -0.00607491      -0.00218351       0.00709847
H       10.25909752       3.90206840       3.47318787      -0.00248241       0.00237396      -0.00036438
H        9.54717852       2.39495144       2.95758194      -0.00423488       0.00347614      -0.00580575
H       10.60222505       2.97577428       5.84381130      -0.01041009       0.00724620       0.00088577
H        9.72547093       1.58631273       5.24119637      -0.01200041       0.00749128       0.00143102
H       12.01791323       3.68648629       1.72301923       0.00008771      -0.00301999       0.00544305
H       11.37321188       2.13359513       1.24774512       0.00416396      -0.00257510       0.00587763
H       11.60940520       0.08659689       5.88501175      -0.02101681       0.00251967       0.01514965
H       11.00569017       0.96884320       7.29378593      -0.01971008       0.01428252       0.00850928
H       12.51441300       1.44504401       6.49967282      -0.01453584       0.00222785       0.00748417
H        9.19818688       3.20670290       0.61733745       0.00624092       0.00605066      -0.00684197
H        9.82789365       4.78018550       1.09337065       0.00558576       0.00141986      -0.00464751
H       10.52792158       3.93382195      -0.28655429       0.01258194      -0.00282543      -0.00265449
C        5.75790045       4.05282592       6.13511900      -0.00195694       0.00203425      -0.00205177
C        5.66682420       4.53073458       7.58388592      -0.00362164       0.00208808      -0.00219962
C        6.78096927       2.94326497       5.92512056      -0.00411671      -0.00025156      -0.00067127
C        4.76695545       5.72658765       7.88291237      -0.00593975       0.00078726      -0.00351250
C        6.89858865       2.56711996       4.45432802      -0.00370685       0.00044679      -0.00086927
C        4.79282337       6.04960411       9.37281976      -0.00921346       0.00002490      -0.00305864
H        4.76915709       3.71239348       5.81186907      -0.00217345       0.00412367      -0.00332885
H        6.01306437       4.91986456       5.51658649       0.00055008       0.00179034      -0.00169274
H        6.72184312       4.77811967       7.85962859      -0.00406156       0.00378083      -0.00152229
H        5.30707283       3.64345025       8.15491164      -0.00240570       0.00114876      -0.00255802
H        7.75630413       3.25952824       6.31510957      -0.00365931      -0.00297414       0.00069644
H        6.48144883       2.06366224       6.50538904      -0.00670649      -0.00006944      -0.00171492
H        5.11977029       6.59483554       7.32371452      -0.00668958       0.00161821      -0.00317723
H        3.74637634       5.52241727       7.55596083      -0.00504276      -0.00080565      -0.00536203
H        5.92997152       2.24331949       4.07393881      -0.00487199       0.00536955      -0.00276137
H        7.60815151       1.75267632       4.30899361      -0.00532928      -0.00095017      -0.00106869
H        7.24358853       3.41668915       3.86147633       0.00346897      -0.00262779      -0.00009448
H        4.41188317       5.20766819       9.98983156      -0.00736099      -0.00156561      -0.00414012
H        5.79159946       6.39765992       9.70510862      -0.01094906       0.00322291      -0.00131628
H        4.13419604       6.86397413       9.68373860      -0.01248458      -0.00223830      -0.00396660
