149
Lattice="11.303965499864145 0.0 0.0 0.0 11.303965499864145 0.0 0.0 0.0 11.303965499864145" Properties=species:S:1:pos:R:3:forces:R:3 energy=-1611820.125 stress="0.0038639851845800877 -0.0007803901098668575 -0.0024530614027753472 -0.0007803901098668575 0.0016582026146352291 0.001125637791119516 -0.0024530614027753472 0.001125637791119516 0.004203672520816326" pbc="T T T"
Os      11.17948548       6.93608671       2.15111080      -0.00623187      -0.00531647       0.00420844
Os       1.96283023       4.66648312       7.76635791       0.00445971      -0.00317301      -0.00256130
Os       4.01161460      11.19594647       3.70090311      -0.00032809      -0.00571111      -0.00502792
P        8.94160335       5.54158516       0.44279032       0.00166887       0.00416033      -0.00343332
O        7.28660081       5.50165423       0.55895788      -0.00033273       0.00791976      -0.01053356
O        9.31372023       6.44392524       1.66208290       0.00201064       0.01050019      -0.01158637
O        9.36434024       4.10748118       0.66611005      -0.00199359       0.00694758      -0.00337408
O        9.32313414       6.17157036      -0.86181422       0.00492889       0.00270686      -0.01201862
P        5.55571780       1.57786925       1.46439948       0.00117517      -0.00445354      -0.00567485
O        5.35514457       0.30723489       2.46570060       0.00010777      -0.00547686      -0.00630862
O        6.55587234       2.49181765       2.09214835       0.00749195      -0.00584921       0.00431129
O        5.84372859       1.07627898       0.08252125       0.00254161       0.00511426      -0.00149041
O        4.08648051       2.22163438       1.50820284       0.00491017       0.00227312       0.00053488
P        1.01812827       8.64057802       1.13752974       0.02725418       0.03188916      -0.02046321
O        1.68179262       9.72568654       0.37045686       0.00454006      -0.02126864       0.01780066
O        0.60714799       7.32759784       0.31505311       0.00738129      -0.00284290      -0.00188574
O        1.78353484       7.92674848       2.33407779       0.00548717      -0.00371805       0.01061004
O       -0.35879636       8.95110972       1.85552926       0.00112927       0.00599343      -0.00012341
P        5.34742019       7.25677233       0.71402726       0.00464529      -0.00254808       0.00332659
O        5.40654065       7.22539173       2.29382329       0.02240480       0.00828734      -0.01463953
O        4.40687986       6.19259689       0.23246849      -0.00260109       0.00553139       0.00364387
O        5.24293555       8.64667207       0.18016958      -0.00423263       0.01556012      -0.01246467
O        6.86234555       6.88822169       0.21015932      -0.00195479       0.00453231      -0.01783919
O       -0.00211938       3.15558432       4.48456451      -0.01225255       0.00602257       0.00867146
H        0.31886355       3.83028034       3.86277134      -0.01365773       0.00599127       0.00867756
H       -0.30924735       2.45449032       3.87407900      -0.00649036       0.00262259       0.00917651
O        9.53000377       1.26398797       6.68900143      -0.00456724      -0.01025413       0.00847100
H        8.76936895       0.68531318       6.91757723      -0.00211768      -0.00727719       0.01936141
H       10.26476378       1.04458541       7.29312002      -0.00029144      -0.00338415       0.00734996
O        7.43049396      10.07380930       0.71303900       0.00401950      -0.00213468      -0.01109279
H        6.60646275       9.53643805       0.60704433       0.00619040       0.00358684      -0.01357698
H        7.12553375      10.96684160       0.47748516       0.00862052       0.00195857      -0.01174738
O        3.31827006       3.45004221       8.71929500      -0.00541370      -0.01097435       0.00558701
H        3.66406974       2.68652630       8.18304205      -0.00406993      -0.01001173       0.00440811
H        4.11731510       3.96049425       9.04768256      -0.00492959      -0.01220550       0.01050704
O        5.61736342      10.37456064       9.36160777      -0.04426282       0.01360452       0.01141337
H        5.59126227      11.12424507       9.98819507      -0.03850305       0.01568090       0.00987133
H        5.50210831       9.60963804       9.96623813      -0.04306269       0.01698589       0.01125421
O        8.71247696       8.18915998       7.33949621       0.00753228       0.00582095      -0.00321522
H        8.65587990       8.57003802       8.24747357       0.00922887       0.00424707      -0.00342372
H        8.91928023       7.23423628       7.48904206       0.00847271       0.00509910      -0.00582756
O       11.53937932       4.82716746       2.13047175      -0.00537636       0.00260843       0.00244263
H       10.82251826       4.38926388       1.59258229      -0.00497752       0.00316548       0.00084475
H       12.44292577       4.65571474       1.72771121      -0.00470802      -0.00013651       0.00445649
O        8.10794331       3.46397774       7.63566006       0.00728218       0.00765263      -0.01478643
H        7.94927022       3.13788743       8.55675466       0.00233044       0.01232229      -0.01470647
H        8.68874649       2.77876717       7.24194541       0.00440334       0.00196384      -0.01014546
O        9.58074219       5.71089112       7.90644381       0.01271686       0.00929476      -0.01056466
H        9.03218601       4.91397685       7.68443892       0.01344640       0.00896644      -0.01620433
H        9.52816331       5.80968527       8.90004963       0.00848460       0.00425451      -0.01137240
O       10.82447419       0.01890087       4.67566523       0.00004865      -0.00252791       0.00507607
H       10.30977128       0.56246742       5.32435544      -0.00430489      -0.00728972       0.00576368
H       10.45444468       0.25730638       3.80967563       0.00013721      -0.00285990       0.00477134
O       10.48412374       1.63220816       2.30158409       0.00059524       0.00019057       0.00401455
H        9.80642669       2.13751671       1.83406017      -0.00165391      -0.00312213       0.00489636
H       11.20652661       1.47098278       1.66971704       0.00118267       0.00151965       0.00174847
O        1.79531450       6.18927766       9.18851490       0.00493670      -0.00125054      -0.00323926
H        1.32224827       6.25814625      10.03885009       0.00775392      -0.00198451      -0.00395337
H        1.73426533       7.08246373       8.73391718       0.00489935       0.00009719      -0.00350835
O        3.60483759       5.87396852       7.29892653       0.01241097      -0.01392141       0.00080446
H        4.29115478       5.79881717       8.00213570       0.01090418      -0.01533008       0.00233731
H        4.10175097       5.96035534       6.44102100       0.01306260      -0.01031010       0.00037834
O       11.84100593       5.67468666       6.71905128       0.01805085       0.00575081      -0.01034589
H       12.11647953       6.42668256       6.16915474       0.03148532       0.01718563       0.00868379
H       10.92123192       5.76155916       7.16242250       0.02064167       0.01314860      -0.01122557
O        0.57638309       0.82892373       8.05748882       0.00049496       0.00612886       0.00521836
H        1.24900538       0.39795682       7.52116059       0.00144519       0.00997719       0.00460466
H        0.28110537       0.16716292       8.78281316       0.00482684       0.00289570       0.00755057
O        3.22058583      -0.24471358       5.69071304      -0.00051253      -0.00253551      -0.00541661
H        3.62229384       0.51173926       6.20622469      -0.00327972      -0.00233768      -0.00455423
H        3.66423438      -1.03429358       6.13006190       0.00004253      -0.00210017      -0.00343988
O        8.20091708       9.91377863       3.32509982       0.00248313      -0.00565307      -0.00520927
H        7.83038532       9.97437440       2.41009077       0.00349817      -0.00534072      -0.00560452
H        9.10188191       9.60535600       3.15637870       0.00195878      -0.00531445      -0.00310606
O        4.46031144       1.46077006       7.31516325      -0.00338188      -0.00846690       0.00349012
H        4.94645862       0.84193017       7.87521510      -0.00811781      -0.01289801       0.00439487
H        5.17796818       1.89195198       6.72482158      -0.00064579      -0.01072958       0.00659247
O        2.27265350       7.19931772       4.93687820       0.00180340      -0.00474739       0.00493675
H        3.20940693       7.44063625       5.01260348       0.00410075      -0.00551591       0.00509161
H        1.99845015       7.57866282       4.07973732       0.00205608      -0.00517274       0.00656042
O        7.81515064       2.63302726      10.15574435      -0.01403085       0.02397788      -0.00907027
H        8.32465183       3.06868755      10.86503320      -0.00600448       0.01381063      -0.00755126
H        7.11300458       2.11915281      10.59759053      -0.00548045       0.01258858      -0.00991442
O       10.65681909       6.78193302       4.09568207      -0.00865416       0.00598848      -0.00510406
H       10.03387780       6.00972035       4.45818518      -0.01379889       0.00727080      -0.00664749
H       10.71184859       7.56932252       4.71307322       0.00039275       0.00026500       0.00176284
O        3.08855115       4.67458515       4.24983696       0.00395840      -0.00731357       0.00378546
H        2.76546107       5.58547385       4.42039817       0.00428044      -0.00822123       0.00562066
H        3.02568836       4.55155450       3.28422146       0.00169098      -0.00532342       0.00249247
O        2.71981332       4.58394064       1.44316606      -0.00116062       0.00348200       0.00463453
H        3.25374971       5.31780150       1.03970648      -0.00314423       0.00272682       0.00707129
H        3.19880925       3.77884271       1.18606757       0.00066427       0.00207560       0.00214480
O       10.86991602       8.76934523       5.82085785       0.01318581      -0.00053599       0.00576591
H       10.83303272       9.64452963       5.37543909       0.01165431      -0.00082771       0.00453319
H       10.07706932       8.70796660       6.40662093       0.01086530       0.00012372       0.00492861
O        1.95873847      11.01238200       3.49100446      -0.00103062       0.00051624      -0.00185108
H        1.35107043      11.31541651       4.20300971       0.00127587       0.00049151      -0.00230917
H        1.76329594      11.53814777       2.64657011      -0.00119565       0.00310066      -0.00419278
O        2.08848885       3.34871498       6.18219132      -0.00115904      -0.00765982       0.00041263
H        2.56876437       3.76335951       5.38813672       0.00083166      -0.00958793       0.00055960
H        1.21776783       3.12230180       5.77105483      -0.00396767       0.00019076       0.00142138
O        6.13417712       2.64097929       5.79582693       0.00071782      -0.01350991      -0.00007373
H        6.72530962       3.12704183       6.40517367       0.00050908      -0.00547547      -0.00636828
H        6.75622697       2.07847889       5.26695116       0.00140573      -0.01547356       0.00280121
O        6.97089904       4.85480820       3.54357320      -0.02903017      -0.00515492      -0.00720254
H        7.13827366       5.49198465       2.83677481      -0.04813661      -0.00708820      -0.01234443
H        6.75353871       4.03107661       3.06021102      -0.01909580      -0.01227959       0.00105038
O        0.41052405       3.38392586       8.31614357      -0.00266686       0.00653508      -0.00405237
H       -0.13539523       3.59807227       9.08048730      -0.00810462       0.01292205      -0.00878942
H        0.57413111       2.38693812       8.29197066      -0.00466795       0.00551873       0.00240218
O        7.24232272      11.14927581       7.16636126      -0.00438207      -0.00691593       0.02830242
H        7.07866244      10.45298304       6.51091280      -0.00420856      -0.00402948       0.02714528
H        6.95935074      10.77221281       8.01690211      -0.01531325      -0.00405709       0.02740084
O        1.76130052       8.44455943       7.82224161      -0.00029224       0.00075255      -0.00094375
H        1.10916066       8.55759592       7.10967077      -0.00156677       0.01081979      -0.00056708
H        2.62659258       8.42285058       7.38748050      -0.00097588       0.01120125       0.00197780
O        4.49405165       9.19164080       6.97907941      -0.00417405       0.00148417       0.00097372
H        4.80674947       9.59219264       7.81211202      -0.01131251       0.00710144       0.00295648
H        5.29062900       9.02478019       6.43635202      -0.00171897       0.00112173       0.00699215
O        9.24960303       4.93255979       4.98869922      -0.02089453       0.00912493      -0.01273040
H        9.80593017       4.13294243       4.89794491      -0.02239964       0.00652191      -0.00759220
H        8.42346258       4.79208129       4.46303063      -0.02074652       0.00827938      -0.01398511
O        1.61531166       0.87654003       1.21892592       0.00765902       0.01222904      -0.00255722
H        1.65406058      -0.01053541       0.76654465       0.00677115      -0.00286971      -0.00459521
H        2.46365756       1.31484803       1.04099805      -0.00348628       0.00379254      -0.00066628
O        5.10450643       6.50123959       5.22814385       0.00651059      -0.00670596      -0.00138308
H        5.44923011       5.84769105       4.59640304       0.01200170      -0.00627501       0.00085396
H        5.78731565       7.19272644       5.29291812       0.00375002      -0.00314941       0.00131711
O        4.01842512       9.28776381       3.56630608      -0.00069568      -0.00290909      -0.00434503
H        5.04223122       8.02603514       2.73434804       0.00568989       0.00852367      -0.00219144
H        3.20566962       8.97547218       3.11063195      -0.00285884      -0.00623816      -0.00199035
O        7.89054872       1.42540622       4.16491281       0.00156964      -0.01580174       0.00291302
H        7.98618482       0.47741207       3.97499820       0.00291065      -0.01590027      -0.00031296
H        7.48088136       1.79356098       3.35011275       0.00338056      -0.01361016       0.00402310
O        6.84012304       8.74484544       5.51110108      -0.00081992       0.00445504       0.00697128
H        7.26289658       9.06208219       4.68314900      -0.00430463       0.00316327       0.00478816
H        7.56205571       8.47196030       6.12828389       0.00194784       0.00456362       0.00344275
O        3.69214952       1.81563603       3.98885867       0.00455910      -0.00342159      -0.00271100
H        4.34277386       2.27420022       4.54805228       0.00712464      -0.00541751      -0.00289703
H        3.84346293       2.24729705       2.50804893       0.00461223      -0.00051586       0.00063035
O        5.17396436       5.12179603       9.34473830       0.00291902      -0.01800438       0.01188116
H        6.10530745       4.89340982       9.43952057      -0.00534204      -0.02571810       0.02105147
H        4.89425700       5.55368650      10.21477602      -0.00160042      -0.00884423       0.00691874
O       -0.26018871      10.63831557      -1.40464578       0.00126463       0.00030159       0.00113145
H       -0.98420993       9.97317334      -1.42872359       0.01541900       0.00230972       0.00406436
H        0.45385127      10.24308809      -0.87405947       0.01903147      -0.00392673       0.00717681
O        8.94580974       8.88584025       9.96295428       0.01188371       0.00128957      -0.00484970
H        8.39439594       9.30039361      10.66080910       0.00937545      -0.00005979      -0.00508646
H        9.11315559       7.96793238      10.26990378       0.00917634       0.00018704      -0.00757447
