149
Lattice="11.689740208809551 0.0 0.0 0.0 11.689740208809551 0.0 0.0 0.0 11.689740208809551" Properties=species:S:1:pos:R:3:forces:R:3 energy=-1642339.75 stress="0.001103291637264192 -0.0015552695258520544 -0.0001489587375544943 -0.0015552695258520544 0.00425025774165988 0.0004696464748121798 -0.0001489587375544943 0.0004696464748121798 0.002424438949674368" pbc="T T T"
Pt      11.49910434       3.58898897       0.39365698      -0.00012797      -0.00244784      -0.00476506
Pt      10.26204930       5.84981878      11.62290155       0.00465056      -0.00206642      -0.00487953
Pt      11.44611817       9.96147365       3.98993158       0.00176617      -0.00318973       0.00026514
P        5.09379283       1.98525037      11.42428446      -0.00302589       0.02440225       0.00716328
O        5.26349739       0.50342867      11.16292381      -0.00876579       0.02340317       0.00388286
O        3.62633583       2.39717764      11.70077675      -0.00419343       0.01309207       0.02122080
O        6.02824425       2.51793542      12.51367454       0.00014436       0.02468729       0.00432169
O        5.42632174       2.79551656      10.05198898      -0.00738293       0.03145117       0.00968230
P       10.54324594       1.24631861      11.19218282      -0.00557384      -0.03699872       0.01025531
O       10.73716158      -0.08992612      11.85947651      -0.02129935       0.01728678      -0.02042338
O        9.95899870       2.31428403      12.25795065      -0.01170397       0.00105006      -0.00752503
O       11.94766648       2.00803951      10.95593609      -0.00212574      -0.00969261      -0.00800860
O        9.77679870       1.22187960       9.89628810      -0.01521283       0.00299099      -0.01533735
N        7.48565084       7.95369005       7.22107690       0.01431013       0.01486481      -0.00293173
H        6.54426674       8.00021291       7.61402568       0.01544438       0.01717448      -0.00036321
H        7.57494157       7.07557441       6.72657858       0.01272276       0.01065883       0.00391750
H        7.55351430       8.69539629       6.53046036       0.01332785       0.00977850      -0.00869083
N        1.67536189       4.38350048      11.78387844      -0.00352176      -0.00583178      -0.00166466
H        2.29745064       3.61369815      11.44668448       0.01237148      -0.00710860       0.01871701
H        2.14621947       4.68170003      12.64436188      -0.01648003       0.01493479      -0.00248790
H        1.70250622       5.14123325      11.10746444      -0.00161074      -0.01676764      -0.01477662
N        2.63402468       8.65575931       4.98991969       0.00885776       0.00500661       0.00013035
H        3.10203891       8.64858546       4.09118161       0.00838344       0.00168045      -0.00039884
H        1.65156019       8.90595662       4.80964636       0.00834092       0.00442594      -0.00048380
H        2.73445355       7.72464240       5.38863993       0.00757531       0.00597264       0.00272194
N        7.74993746      11.27299824       1.21267889      -0.02520157       0.01806728      -0.01351757
H        7.02591949      11.61167115       0.56780538      -0.02618253       0.01381318      -0.01415117
H        8.62386257      11.21690308       0.69292104      -0.02375564       0.01119233      -0.01492028
H        7.88660586      12.05163265       1.84899040      -0.02104053       0.02433744      -0.02126688
N        0.55813630      10.21968742       2.12141177       0.00051609      -0.00437135       0.00057125
H        1.01490114       9.38634875       1.75658262       0.00039810      -0.00336780      -0.00182629
H       -0.10811904      10.57731079       1.41901403      -0.00210710      -0.00269283      -0.00340976
H        1.27731215      10.96540638       2.13346977      -0.00072420      -0.00307281       0.00043339
N        4.86191402       0.56171252       2.81491694      -0.00444108       0.01531193       0.01352510
H        5.38441226      -0.30864269       2.86114113       0.00653301       0.02226377       0.02130159
H        5.41655119       1.19679126       2.22806926      -0.00889319       0.01896197       0.01384546
H        4.06312658       0.32888961       2.22872226       0.00197315       0.00293686       0.00948042
N       10.88261506       3.23239741       7.78470576      -0.01396993      -0.00943059      -0.00093534
H       10.55350550       2.71875356       8.60608582      -0.00485032      -0.01190704      -0.00295442
H       10.26084696       4.01953463       7.65035159      -0.01312836      -0.00381455       0.01219366
H       11.79299846       3.60764232       8.02950254      -0.00851467      -0.01081313      -0.00895384
N        2.56776707       0.05716232       9.56068520      -0.00114956      -0.00031245       0.02429432
H        2.05333853       0.57997002      10.26527017      -0.00493309       0.00148210       0.02028012
H        3.54899577       0.16413244       9.83192924      -0.00205877      -0.00267257       0.02904092
H        2.33528252      -0.91955601       9.71087453      -0.00559373       0.00044113       0.02050896
N        1.63445849       7.27501484       1.99532065      -0.00550643      -0.00026122       0.00110471
H        0.93481498       6.91444926       1.35572205      -0.00280192      -0.00469391      -0.00002459
H        1.18270875       7.52940252       2.86770220      -0.01134603       0.00639760      -0.00334538
H        2.31829376       6.54890309       2.18018995      -0.00876701      -0.00029156       0.01171744
N        0.85685805       3.54847792       4.19442123       0.01058957      -0.01635367      -0.00647385
H        0.06488854       2.83035614       4.03997370       0.00458738      -0.00614572      -0.01857569
H        0.58958060       4.33485630       4.83835322       0.00740282      -0.01359397      -0.01124641
H        1.70084319       3.00650645       4.52495646      -0.00048447      -0.02510729       0.00933181
N        9.47448467       7.71621708       0.24999645       0.00848950      -0.00416616       0.00684713
H        9.24871185       7.88189607       1.22817144       0.00440415      -0.01377837       0.00815919
H        8.62487337       8.00546854      -0.29544786       0.00896466       0.00118642       0.00528899
H       10.16706066       8.42605508       0.01233204       0.00962070      -0.00014192       0.01713725
N        1.38198571       5.88845591       8.72572923      -0.00531364      -0.00532603      -0.00978795
H        1.99003823       6.67122085       8.93767954       0.00173219      -0.00933433      -0.01441686
H        1.89665921       4.99985139       8.83957950      -0.01156059      -0.00871767      -0.00956604
H        0.61714993       5.92949078       9.39222844      -0.00180490       0.00249993      -0.00607082
N        4.88105351      10.46482808       5.99616291       0.00873441       0.00679171       0.00089611
H        4.00503164      10.01988825       5.71128772       0.01059642       0.00412626      -0.00201175
H        5.61108627       9.83251153       5.69078910       0.01190600       0.00690717       0.00880576
H        4.97928636      11.30139224       5.43189118       0.01029577       0.00518253      -0.00130591
N       11.86604395       5.92980638       5.74555990       0.00580624      -0.01285926      -0.01603422
H       12.39809809       6.70436948       5.36028646       0.01505621      -0.01729995      -0.01299568
H       12.10451341       5.90369019       6.74044192      -0.00162931      -0.01232328      -0.01418209
H       10.88750004       6.19567725       5.63216124       0.00838471      -0.00575530      -0.02301898
N        3.72760571       4.28202010       2.19227475      -0.01669116       0.00309734       0.02957925
H        4.53875532       4.87314506       2.03337580      -0.01910076       0.00705579       0.03113867
H        3.82572982       3.55254111       1.45767040      -0.01575154       0.00691580       0.02533879
H        3.94006505       3.78977106       3.05465533      -0.01193997      -0.00166630       0.02589737
N        1.86700700       1.07304998       1.74014849      -0.00609800      -0.00282128       0.01109940
H        0.98593171       1.14020878       1.24110848      -0.01174554      -0.00051199       0.01869738
H        2.57969405       1.47776069       1.10426407      -0.01018170       0.00349221       0.01178961
H        1.81427792       1.65678228       2.56336780      -0.00136679      -0.01618280       0.01928455
N        8.43028960       1.17132342       6.87533638      -0.00082242       0.00235349      -0.00234121
H        7.82061897       1.90677289       6.53966461      -0.02601228      -0.01189543       0.01017570
H        9.33511274       1.60151795       7.04263604      -0.00826474       0.02379722      -0.01895868
H        8.08474455       0.92524166       7.79855923       0.02265596      -0.00903998       0.00229693
N        6.33902606       8.88036986       2.45562857       0.00814179       0.00557822      -0.00261447
H        6.90485825       8.29834510       3.05823156       0.02527168       0.00340818      -0.02036449
H        6.93335116       9.61010423       2.03543422      -0.00536706       0.01390451      -0.00899358
H        5.98759637       8.30216526       1.70434350      -0.00630928       0.01030333       0.00107676
N        2.84721042       3.29582398       8.69212584      -0.01312388      -0.01083067      -0.00350453
H        3.64922957       3.21286280       9.32450889      -0.01046433      -0.00224693      -0.00549233
H        3.25361673       3.34215011       7.76383219      -0.01511299      -0.01209166      -0.00401917
H        2.38155843       2.39424360       8.76262830      -0.00751090      -0.01369274       0.00096601
N        7.40068331       9.15854575      10.43758193       0.01078844      -0.00966513       0.01004133
H        6.74803576       9.74494404      10.95271984       0.01103964      -0.01679957       0.01871295
H        6.86823835       8.73741394       9.68120290       0.00895130      -0.00517254       0.00818064
H        8.02627396       9.82107659       9.98841309       0.00722027      -0.00412349       0.01446442
N       10.67812757       9.83591592       5.89636055       0.00739943      -0.00227301       0.00405759
H       10.86286074       8.94172864       6.33963947       0.00536148      -0.00408061       0.00241545
H       11.05646095      10.57243410       6.53769921       0.01100828      -0.00479344       0.00445583
H        9.66245056       9.92615254       5.88196352       0.00747630       0.00091456       0.00623976
N       10.78127943       5.04205077       1.69485628      -0.00510902      -0.01220700      -0.00481084
H        9.98936977       4.66779945       2.22407155      -0.01132822      -0.01331075      -0.01231149
H       12.79058802       3.94275623       3.28859303       0.03470683      -0.01882872      -0.00127214
H       11.43903239       5.49553725       2.31949983      -0.00916584      -0.01845878       0.00306368
N        5.92719045       4.29908984       7.45107083      -0.00389208       0.01313845       0.00054269
H        6.19582962       5.07936287       8.04221753      -0.00211377       0.00774513       0.00697912
H        6.77400845       4.02458839       6.96674062      -0.00600171       0.01780568      -0.00436759
H        5.71966886       3.54876951       8.11162971      -0.00345862       0.00669989      -0.00681142
N        9.68487588       6.16037144       9.75977991       0.01055615       0.00887527      -0.00605595
H       10.20916586       5.70947678       9.02190743       0.02436407       0.02090174      -0.00401300
H        8.32082104       4.37833199      10.18286938      -0.01594034       0.00404328      -0.02894378
H        9.35853090       7.06346919       9.43216930       0.03227554       0.01984408       0.00115617
N       10.65596246       1.58429395       3.63648101      -0.01095980       0.00279662      -0.01695257
H       10.36879742       1.66707606       2.65873645      -0.01230349       0.00094784      -0.01739196
H        9.81124623       1.65704467       4.19419565      -0.00880591       0.00867097      -0.01619316
H       10.98844190       0.61350483       3.76638749      -0.01423141       0.00169926      -0.01499127
N        7.59039740       4.50443388       2.57347423       0.00225619      -0.01010179      -0.02550465
H        7.03418771       4.60077052       3.41601183       0.01010261      -0.00872577      -0.01923878
H        7.17248984       3.72865793       2.04370841      -0.01222453      -0.00395526      -0.02440623
H        7.39106042       5.32783968       2.01489222       0.00461664      -0.00503920      -0.01825218
N        0.88141045       8.95418947       8.73485421       0.00677714      -0.00529630       0.00189845
H        1.40571747       9.22750320       7.91034260       0.00226189      -0.00647165      -0.00122230
H        0.23548472       9.71567020       8.91003775       0.00959980      -0.00372047       0.00656518
H        0.33442915       8.13780067       8.49025340       0.00284964      -0.00385411       0.00494735
N        4.67222950       8.67850954       8.43094266       0.00862797       0.00201499       0.00176643
H        4.01379057       8.09953447       7.92074271       0.01848440      -0.00365178      -0.00562647
H        4.73192568       9.55291967       7.90256718       0.00565337       0.00377154       0.00413303
H        4.23656727       8.90236527       9.31812930      -0.00104937      -0.00505575      -0.00171292
N        0.00361725       0.22288341       7.68628877       0.00837354      -0.00360297       0.00468698
H       -0.04056452       1.08813616       7.15466054       0.00819614      -0.00620261      -0.00101309
H        0.94697465       0.18858654       8.08309489       0.00855720       0.00107868       0.01016092
H       -0.62141283       0.40138723       8.47812933       0.00449838      -0.00415135      -0.00164539
N        2.96608038       1.73847678       4.84480759      -0.00498651      -0.02107784       0.02346447
H        2.36856052       0.92418958       4.96122058       0.00099322      -0.02504899       0.02804967
H        3.41627670       1.87171847       5.74436587      -0.00141900      -0.01636563       0.02077270
H        3.70384646       1.42431568       4.18542941      -0.00570872      -0.01525564       0.01866206
N        7.92885304      10.46097489       4.77611542       0.00993745      -0.00436556      -0.00012964
H        8.65137259      10.55941546       4.06499140       0.01222936      -0.00372654       0.00111257
H        7.99370878      11.27767588       5.38898079       0.00319891      -0.00084528      -0.00506061
H        7.04155234      10.50626866       4.28836616       0.01112387      -0.01412934      -0.00401228
N        7.89705926       3.46990080      10.34112818      -0.00413889       0.00052607      -0.01005511
H        7.78031537       3.32571910      11.34224015       0.02129677       0.01271575      -0.00552267
H        6.41042895       3.09606929      10.05906626       0.00267226       0.01667993      -0.00478160
H        8.55068837       2.74405432      10.04669546      -0.01434173       0.00419110      -0.01856139
N        9.37259586       7.25611757       4.36170019       0.00820878       0.00120047      -0.00968632
H        8.57347454       7.81838341       4.63544332       0.00602402      -0.00492175      -0.00299317
H        9.06502036       6.59455974       3.65741215       0.01024494       0.00528675      -0.01439891
H       10.03302630       7.92442337       3.94335968       0.00565099       0.00820518      -0.00454227
N        3.40962143       5.64630169       6.04427077      -0.00503488       0.00646564      -0.00017369
H        4.25510713       5.22447891       6.43552673      -0.00282735       0.00949028      -0.00187605
H        3.23227188       5.19256357       5.15663311      -0.00168346       0.01158278      -0.00377947
H        2.64349713       5.40272481       6.66155062      -0.00416950      -0.00299103      -0.00258545
