143
Lattice="12.675811471411956 0.0 0.0 0.0 12.675811471411956 0.0 0.0 0.0 12.675811471411956" Properties=species:S:1:pos:R:3:forces:R:3 energy=-1653248.75 stress="0.0008807720732875168 3.314792593300808e-05 -0.00013414560817182064 3.314792593300808e-05 -0.00033593198168091476 0.000413516943808645 -0.00013414560817182064 0.000413516943808645 0.001090124947950244" pbc="T T T"
Pt       4.39130463      10.76094388       5.73558263       0.00062752       0.00901842      -0.01001269
Pt       5.04766766       9.50116046       3.88951350       0.01082897      -0.01640919       0.01105756
Pt       1.86398564       2.10580438       0.37628728       0.00371999       0.00956211       0.00320256
P        5.13310393       3.74884232      11.91752442      -0.00342295      -0.00990139      -0.00584025
O        5.32453505       4.36324097      10.52898346      -0.00835031      -0.01235116      -0.00762415
O        3.80104510       4.23157728      12.53025195       0.00592017       0.00191748       0.00500005
O        5.12086638       2.21489809      11.82286452      -0.01597751      -0.00992918      -0.00449853
O        6.26024175       4.16804080      12.87318858       0.00656474      -0.01809305      -0.01367271
P       12.77423291       1.57119252      11.09287952       0.01588291       0.03631659      -0.02641898
O       11.49986998       0.86006998      11.40222550      -0.00953305       0.03026772      -0.01443014
O       13.00863975       1.98717887       9.67206082       0.01407240       0.02463758       0.01192343
O       12.96774061       2.82500841      12.10969864       0.00941414       0.02357507      -0.00104052
O       14.09552809       0.80199721      11.65042700      -0.00315070       0.01395118      -0.00175312
O        2.51335398      10.11697572       6.40900529      -0.00096601       0.01149976       0.00331816
C        1.61780339       7.96931694       5.95585714       0.00897138       0.00462914       0.01078147
C        0.61106649       9.03808585       5.52003186       0.00290704      -0.00244659       0.00789010
C        2.50052129       8.72718290       6.92534241       0.00379893       0.01302394       0.00908417
C        1.50276453      10.25011512       5.34627711      -0.00457113       0.00309101       0.00561592
H        1.15961818       7.10098045       6.42536115       0.01287171       0.00352494       0.01258224
H        2.20364025       7.63784987       5.09552745       0.01272851       0.00588189       0.01285192
H        0.08498708       8.79074929       4.59821268       0.00325483      -0.00751792       0.00894192
H       -0.13090086       9.21207822       6.30297628       0.00106466      -0.00589114       0.00718510
H        2.07666276       8.78225402       7.92735267       0.00016278       0.01179853       0.00779361
H        3.52994815       8.39171897       6.98853916       0.00552434       0.01890057       0.01120637
H        2.04943696      10.22199272       4.39893787      -0.00477704       0.00656638       0.00550267
H        1.02501780      11.21785792       5.48591891      -0.01352374      -0.00109795       0.00393108
O        8.14894048       2.79827759       9.60893505       0.00309497      -0.00712252      -0.01055792
C        8.31623346       0.70380416      10.60879786      -0.00669837       0.00037551       0.00689543
C        7.06024036       0.67514004       9.72449538      -0.00392732      -0.00288332       0.00279606
C        8.49120273       2.19402562      10.85427201      -0.00083275       0.00185490      -0.00503409
C        7.03756988       2.07784929       9.08073161      -0.00046670      -0.00615108      -0.00464101
H        8.19632183       0.14109638      11.53324619      -0.01244215       0.00884714       0.01140651
H        9.20077517       0.31675389      10.10135106      -0.00659624      -0.00755360       0.01326059
H        7.09079906      -0.12023469       8.97785256      -0.00164985      -0.00683635       0.00692689
H        6.16827376       0.54789906      10.33648389      -0.00622141       0.00112224       0.00032482
H        7.80698235       2.55622853      11.63280264      -0.00003219       0.01164547      -0.00880814
H        9.52012159       2.46423825      11.09779072       0.00030667      -0.00140535      -0.00642337
H        7.16611704       2.05599401       7.99266092      -0.00272971      -0.01210167      -0.00473571
H        6.11658026       2.62012466       9.32572326       0.00149912      -0.00226647      -0.00526461
O       11.08241171       8.01468589       2.57202638      -0.00200698      -0.00936966       0.00109223
C        9.24989559       6.93893860       1.57264968      -0.00451052       0.00470901      -0.01036960
C        9.91112132       7.81056700       0.50729487       0.00440434       0.00605540      -0.00392246
C        9.74102442       7.60847018       2.84255935      -0.00496110      -0.00427136      -0.00529945
C       11.26113367       8.13925236       1.14574002       0.00411797      -0.00522338       0.00225735
H        8.16443050       6.89111584       1.50064266      -0.00453165       0.01185679      -0.01385626
H        9.63718686       5.92439853       1.50966682      -0.01091409       0.00243068      -0.01409821
H       10.02029620       7.30126293      -0.44884499       0.00455190       0.01014072      -0.00611110
H        9.32963318       8.71892318       0.34169553       0.01061316       0.01051041      -0.00142096
H        9.12211591       8.48448861       3.07932513      -0.00133401      -0.00229746      -0.00277129
H        9.75408974       6.95405749       3.71823903      -0.01115817      -0.00882250      -0.00859496
H       12.02892706       7.42037545       0.84371245       0.00076512      -0.00885713       0.00216301
H       11.60259570       9.15191125       0.92661804       0.01123498      -0.00653696       0.00698580
O       10.03285166       1.62659060       3.04463447       0.00422408       0.00249004      -0.00698650
C        8.88624852       3.31097269       1.84866047      -0.00005591      -0.00084811      -0.00776780
C       10.39500457       3.51715529       1.70101918      -0.00047907      -0.00031769      -0.01275370
C        8.82542445       2.39201062       3.05760027       0.00370556       0.00211442      -0.00528309
C       10.90674475       2.12462858       2.01462644       0.00101189       0.00067300      -0.01036999
H        8.29564760       4.21452345       1.97532824      -0.00037445      -0.00082025      -0.00808115
H        8.48748410       2.81314180       0.96570286      -0.00270011      -0.00303368      -0.00533056
H       10.71444045       3.84888331       0.71496433      -0.00276546      -0.00299173      -0.01439768
H       10.76205937       4.23098620       2.44716249       0.00128554       0.00202803      -0.01580781
H        8.77593176       2.95657678       3.99834236       0.00604727       0.00425899      -0.00646937
H        7.96675108       1.71383800       3.03588970       0.00384843       0.00159335      -0.00129319
H       10.87213526       1.47819213       1.12976138      -0.00141522      -0.00106877      -0.00913644
H       11.92655278       2.10684081       2.40471200       0.00223035       0.00206957      -0.01356480
O        4.48922958      -0.13001433       7.06151541      -0.00111891       0.00811985      -0.01648276
C        2.46755912       0.94475150       7.57293451      -0.00576711      -0.00903820      -0.00292349
C        3.16825910       1.79366873       6.49890351      -0.00634831       0.01287955       0.01487549
C        3.61962284       0.18981170       8.18943356      -0.00613341      -0.01654814      -0.01336879
C        4.43724970       1.00859084       6.15124310      -0.00295129       0.02400314       0.00335224
H        1.90405082       1.51517325       8.31497071      -0.00844702      -0.02181461       0.00653487
H        1.77230934       0.24162547       7.10934285      -0.00270042      -0.00179026      -0.01797390
H        2.54413582       1.94456565       5.61846914      -0.00483723       0.02904820       0.01646250
H        3.43539292       2.77633179       6.88564370      -0.01034352       0.00620201       0.03371193
H        4.19420510       0.81423565       8.87937154      -0.00979361      -0.02926582       0.00055721
H        3.35887810      -0.74214390       8.68383941      -0.00320499      -0.02734342      -0.03151383
H        4.43528801       0.58367952       5.14670221       0.00419226       0.04514225      -0.00488877
H        5.35188380       1.58631250       6.28155815      -0.00591043       0.02509204       0.01770559
O       10.95445778      11.26287157       1.97524177      -0.00749403      -0.00195636       0.00161868
C        9.07416243      11.36042870       3.45118066      -0.00133669       0.00297240       0.00927043
C       10.35269722      11.01618910       4.23087236       0.00029704      -0.00535196       0.00299215
C        9.53656426      11.43913545       1.98576573      -0.00761312      -0.00046808       0.00710776
C       11.45355998      11.48198531       3.28701705      -0.00252095      -0.00398344       0.00047350
H        8.28353932      10.62133160       3.59391050      -0.00604123       0.00860614       0.01266119
H        8.68440801      12.32300036       3.77129457       0.00744411       0.00610200       0.01123960
H       10.40087453      11.52566835       5.19284233       0.00535395      -0.01031047       0.00537536
H       10.43443292       9.93994424       4.38816682      -0.00199210      -0.00656739      -0.00340623
H        9.11019760      10.64743149       1.36444111      -0.01120244      -0.00150120       0.01087576
H        9.28292821      12.39984113       1.53132896      -0.00869339      -0.00114053       0.00593495
H       11.67300554      12.54191294       3.45068007      -0.00229841      -0.00408024       0.00129105
H       12.37675409      10.90572060       3.37015038      -0.00202209      -0.00410345      -0.00406696
O        3.50525493       6.56006299       8.66867332      -0.00954103      -0.00058174      -0.00341409
C        1.85161533       4.99947404       9.20326842      -0.00599653      -0.00112870       0.00740594
C        2.03793553       5.92235448      10.42588265       0.00090659      -0.00072803       0.00571674
C        3.15422444       5.19740084       8.43386530      -0.01218033      -0.00051641      -0.00160959
C        3.28085030       6.75658407      10.07119185      -0.00118542      -0.00090113      -0.00197113
H        1.66144516       3.96161306       9.47660207      -0.00356326      -0.00229177       0.00879005
H        1.00739903       5.33747930       8.59894727      -0.01119658      -0.00349404       0.01324807
H        1.15625683       6.54604089      10.58236050       0.00175166      -0.00057912       0.01034227
H        2.22434576       5.35024633      11.33305976       0.00576179       0.00023866       0.00535348
H        3.94423835       4.54654927       8.83098233      -0.00920767      -0.00103682      -0.00806212
H        3.06366018       5.06723101       7.35194821      -0.01994342       0.00026891      -0.00122076
H        3.16240493       7.82942748      10.23312125       0.00023739      -0.00075805      -0.00130097
H        4.15186535       6.39596060      10.62615875       0.00209868      -0.00103396      -0.00685170
O        4.52794968       3.03556353       3.40618880       0.00803742      -0.01618020       0.00237715
C        3.26126309       1.62944390       2.02093893      -0.00505516      -0.00465775       0.00176989
C        2.44096450       2.88845874       2.35634319       0.00434196       0.00134139       0.00399256
C        4.70791857       2.03867702       2.40523259      -0.00103903      -0.01439825      -0.00113216
C        3.50290445       3.87898622       2.89985808       0.01251775      -0.00767061       0.00701566
H        2.91139006       0.73652630       2.53433997      -0.00984654      -0.00199583       0.00304773
H        3.35588620       1.36622296       0.85782813      -0.00736907      -0.00586309       0.00270285
H        2.01443406       3.47390896       1.41628241       0.01093781       0.00614774       0.00538344
H        1.61982783       2.69779490       3.04442523       0.00290647       0.00667885       0.00366962
H        5.25623858       1.20898092       2.85145096      -0.00485019      -0.01958305      -0.00568840
H        5.26158967       2.44314769       1.55520883      -0.00184587      -0.01569664      -0.00218028
H        3.88508439       4.51402194       2.09516807       0.01576442      -0.00721812       0.00918615
H        3.11614712       4.47771197       3.72509437       0.01725668      -0.00826700       0.00987855
O        6.75936097       8.10420886       8.22132205      -0.00494152       0.00677657      -0.00143725
C        7.73228420       8.34532743       6.08076082       0.00554359      -0.00857113       0.00082016
C        7.75042597       6.86875095       6.47321972       0.00518996      -0.00514439       0.01337230
C        7.51718869       9.01857892       7.42866770      -0.00621232       0.00358160      -0.00695223
C        6.67492993       6.83727829       7.55213981      -0.00234729       0.00283772       0.00583452
H        8.64166414       8.69036664       5.58987228       0.00824036      -0.01104197       0.00414199
H        6.88275091       8.56537933       5.40771720       0.00925866      -0.01545270      -0.00684734
H        7.53082103       6.19019044       5.64821988       0.01177356      -0.01232176       0.01756537
H        8.72373203       6.59181006       6.88789776       0.00255403      -0.00062847       0.02262489
H        8.47601433       9.21710803       7.92924456      -0.01107532       0.01467132      -0.00243938
H        6.96768841       9.96161197       7.34833060      -0.01159763      -0.00068563      -0.02096054
H        5.67985036       6.74145804       7.10345091       0.00106370       0.00153808      -0.00159892
H        6.79202723       6.04761794       8.29547018      -0.00872405       0.00720352       0.01133358
O       10.99420939       1.51010052       6.20859413       0.00855395      -0.00984401       0.00623551
C       11.83115393       3.52864057       7.05564749       0.00613552      -0.00145909      -0.01067197
C       10.68307574       3.09563833       7.96298774       0.00709635       0.00401592      -0.00645977
C       11.49681150       2.77052864       5.78278703       0.00646678      -0.01245773      -0.00407755
C       10.51776744       1.63314272       7.57392723       0.00933999       0.00051153       0.00593188
H       11.88314914       4.60734800       6.90180940       0.00433087      -0.00265291      -0.01995062
H       12.77108838       3.18196864       7.48790607       0.00670367       0.00359584      -0.00811785
H       10.92528928       3.18874267       9.01770302       0.00756983       0.01318685      -0.00715300
H        9.77373605       3.66251010       7.75679742       0.00592023       0.00063030      -0.01068173
H       10.73233942       3.30709716       5.20204592       0.00556070      -0.01872978      -0.00857607
H       12.35151843       2.59435345       5.12302876       0.00652814      -0.01681596      -0.00334519
H       11.13232335       0.99644139       8.21492290       0.01081115       0.00661188       0.01066199
H        9.47976553       1.29566278       7.61024707       0.00986242      -0.00087738       0.00934811
