146
Lattice="12.843688090091117 0.0 0.0 0.0 12.843688090091117 0.0 0.0 0.0 12.843688090091117" Properties=species:S:1:pos:R:3:forces:R:3 energy=-1578966.125 stress="0.0005555411917157471 0.0002419522643322125 0.00024801696417853236 0.0002419522643322125 0.001229546614922583 -0.00021635377925122157 0.00024801696417853236 -0.00021635377925122157 -0.0007462900248356164" pbc="T T T"
Re       8.29997764      12.02393406      -1.58948724       0.00300483      -0.01191908      -0.03936940
Re       4.99128642       2.78646280      13.52499139       0.00943345       0.01344365       0.05701792
Re       4.99547173       0.76689444       1.60512723       0.02053773       0.00060175       0.04685910
P        7.70683248       2.12485404       1.79198073       0.03776008       0.01029673       0.03150927
O        8.83886836       2.24202832       2.70076982       0.01788440       0.03369337      -0.00020278
O        6.75186092       0.88862708       2.24326644       0.04041088      -0.00399656       0.01193102
O        6.68533116       3.28608925       1.59916384       0.01542091       0.00603632       0.03584334
O        7.52736877      -1.05620835      -0.12405777       0.03199172      -0.00788620      -0.03040141
P       11.48897486       0.53125248      11.25552485      -0.00434473      -0.03444986      -0.01958728
O       12.15921179       0.64734301      12.53608517       0.00528079      -0.06051382       0.01403487
O       10.02123628       0.10641016      11.26862768      -0.01068357       0.01306979      -0.04592225
O       11.73710384       1.57961171      10.06796405       0.02338243      -0.01475656       0.02399194
O       12.18020204       0.06186392       9.88567847      -0.00943583      -0.02039769      -0.00692207
P        7.63150727       2.35215918      11.71865543      -0.01150928      -0.00112692       0.02198693
O        7.72407316       1.11580276      10.83857031      -0.04535938      -0.00663229       0.02855796
O        8.33351558       3.56669956      11.29902992      -0.00475374      -0.01038283       0.01328641
O        6.08958824       2.64122861      11.93835934      -0.00629002       0.02664069       0.04643914
O        8.15957213       1.77709178      13.15189217       0.00246888       0.00180369       0.01623192
P       11.00582652       9.09428053      10.39271049       0.02395860       0.01923207       0.00302259
O       11.73696981      10.36456791      10.65070275       0.00180697       0.03145838       0.00577974
O       10.69772614       8.69488804       9.00259089       0.04095244       0.00392252       0.00515223
O       10.75359213       8.14585189      11.50272274       0.04918072       0.01959705       0.00897825
O        8.97920205      10.44773028      10.79980703       0.00106293      -0.02037817      -0.01933324
P        4.28855281       5.36306121       5.31572184       0.00237095      -0.02278821      -0.01063633
O        4.89530468       6.52570860       5.96949200      -0.01741546      -0.01728165      -0.00559771
O        3.89657110       4.13984178       6.07722193       0.01677794      -0.03344929      -0.01738763
O        3.22413377       5.70794759       4.10529232      -0.00133967      -0.03084254      -0.01169944
O        4.59824402       5.08281778       3.73915843       0.00600106      -0.01177257      -0.01292551
P        6.72351886      10.27134548       9.25227766       0.00289756      -0.01848835      -0.03429258
O        7.79228203       9.41057681      10.06059703      -0.00381321      -0.01665497      -0.02768200
O        7.01450444      10.57871102       7.83313923       0.01569092      -0.04859054      -0.03838098
O        5.38543233       9.72850533       9.63752777      -0.00505722      -0.00255018      -0.03629459
O        6.94346658      11.73790162      10.04319600      -0.00177576      -0.01661634      -0.03601673
P        3.46763320      11.44144722       1.75914583       0.05656624      -0.00815237       0.04903422
O        3.52048054      12.99315506       2.54751238       0.02727613      -0.00564843       0.04477870
O        4.32871927      10.54750911       2.55674383      -0.04860204       0.02278060      -0.04435301
O        2.12353023      11.19404002       1.25387469      -0.02463508       0.04527304      -0.02176285
O        4.47889603      12.18313802       0.55418344       0.00462902       0.03908122       0.02149159
O        4.06803613       9.34717924       6.00826067      -0.01485077      -0.00156987      -0.01840425
C        4.02824384      10.69813054       6.42727973      -0.00578552      -0.00343382      -0.01001167
C        2.62418203      11.08167113       6.86701897      -0.00068730      -0.00368144       0.00772247
H        4.75659582      10.88631589       7.22164737       0.00212866      -0.00903104      -0.01542991
H        4.31139004      11.30837432       5.56095232      -0.01177152       0.00185248      -0.00816423
H        2.54549153      12.15794888       7.03468413       0.00087388      -0.00439161       0.01270185
H        1.90842448      10.80274305       6.09394269      -0.00757028      -0.00321807       0.01407532
H        2.35480215      10.56403445       7.78675343       0.00567406      -0.00435102       0.00854450
H        4.52729041       8.80039444       6.65266097      -0.00643268      -0.00384295      -0.02634883
O       11.04672255       3.73572212      11.30629969       0.01345445      -0.00585604       0.00339365
C       11.54249622       4.94355138      10.74601943       0.00219429       0.00042319       0.00521171
C       11.16109566       5.12308725       9.28785312      -0.00357193       0.00198901       0.00688177
H       11.19936738       5.81499128      11.31669792      -0.00113377      -0.00357890       0.00917929
H       12.63184403       4.89480701      10.85371348       0.00305164       0.00945693       0.00158942
H       11.54834661       6.07126369       8.91048567      -0.00526942       0.00232461       0.00529762
H       11.54113101       4.29851317       8.68079335      -0.00504388       0.00172375       0.00607414
H       10.07528778       5.15237276       9.18920352      -0.00398183       0.00172156       0.01137740
H       10.07254490       3.75830018      11.26402093       0.01281640      -0.01131853       0.01189888
O       10.02074431      11.01155276       0.34016107       0.04437762      -0.00320315       0.02241683
C        9.41688325       9.88106814       0.95953189       0.02511007       0.00200391       0.01170164
C       10.44417540       9.01995426       1.66734397       0.01151294      -0.01257160       0.01764494
H        8.61145284      10.18109707       1.63630793       0.02424926       0.01090762       0.00697637
H        8.96518268       9.29959687       0.15531016       0.02422121       0.01042712       0.00505841
H        9.94318842       8.14861237       2.09524790       0.01082405      -0.01289873       0.01711750
H       11.18984687       8.68819058       0.94584802       0.01123875      -0.01145181       0.01751930
H       10.93331279       9.56833837       2.47397845       0.01552540      -0.01567350       0.01784553
H       10.25502592      11.65639359       1.03609627       0.01657164       0.00353652       0.02469721
O       10.38365169      12.64238477       2.53652090      -0.01454207       0.02724919       0.01003361
C       11.03678770      12.22041579       3.73400083      -0.00232089       0.02696687      -0.00002468
C       12.53100178      12.07531392       3.52696252      -0.00606501       0.01630006      -0.01925576
H       10.81572315      12.92954839       4.53805318       0.01539098       0.03103167       0.00178862
H       10.60357224      11.25830128       4.03024804      -0.00296861       0.03044289       0.00905368
H       12.99201355      11.67322446       4.43217843      -0.00052081      -0.00229245      -0.03065507
H       12.76187302      11.40200376       2.70084464      -0.02556969       0.02279192      -0.02929172
H       12.98860261      13.03803556       3.30342666       0.00454924       0.01258880      -0.01263057
H        9.98465020      13.51598040       2.65482611      -0.00205304       0.03579587       0.01285161
O        5.90327165       1.76156986       5.65089177       0.00326473       0.01361269      -0.01826230
C        6.80134285       0.89628512       6.36584434      -0.01079568       0.00335579      -0.01453221
C        6.86706352       1.19217591       7.84168416      -0.00459142       0.01125266      -0.01677418
H        6.53040784      -0.15119128       6.20863900      -0.02641514       0.00590611      -0.00688183
H        7.77468544       1.05734188       5.89630333      -0.00952911      -0.01505326      -0.01842350
H        7.66406711       0.60231853       8.28956061      -0.01077038       0.00104931      -0.01973377
H        7.06946716       2.24770420       8.03172859       0.00913614       0.00959763      -0.02206822
H        5.94156930       0.91210840       8.34818132      -0.00558369       0.02327339      -0.01249758
H        5.11978795       1.95570759       6.17907201       0.00355104       0.03075805      -0.02369345
O        5.17799387       8.89322060      12.23312830       0.00129521       0.01452792      -0.01931375
C        6.01478537       7.76728249      12.27677527      -0.00728545       0.01020432      -0.00658156
C        5.31573669       6.51415102      11.75485586      -0.00374740       0.00727743      -0.00254586
H        6.92294512       7.93325008      11.68401251       0.00307250       0.00702131       0.00833493
H        6.31602406       7.63047749      13.31824279      -0.02356982       0.00881062      -0.00363874
H        5.98529003       5.64991735      11.80309894       0.00055762       0.01154555       0.01143372
H        4.41595329       6.32049772      12.34563375      -0.00482966       0.00896212      -0.00274563
H        5.01468133       6.65169887      10.71431199       0.00239339      -0.00225854      -0.00510150
H        5.17209997       9.22624415      11.31024471       0.01129804       0.01081395      -0.02018094
O        6.86653922       4.27738839       5.22135408       0.00066924       0.01103125      -0.00835514
C        7.97347559       4.62779785       6.03803874       0.00064486       0.01220506      -0.01037592
C        7.59063865       5.51973918       7.21054411      -0.00339469       0.00544876      -0.00735396
H        8.48533211       3.72434365       6.39770400       0.00904903       0.01150960      -0.02029857
H        8.68646552       5.16019973       5.39891544      -0.00635627       0.02151400      -0.00938654
H        8.48239149       5.93905060       7.67811163      -0.00350867       0.00348866      -0.00944646
H        6.94986626       6.32826977       6.86087763      -0.00378084       0.00959197       0.00024101
H        7.03064761       4.96687211       7.96598611       0.00584473      -0.00192316      -0.00677104
H        6.57172998       3.37024223       5.42416323       0.00576267       0.00809556      -0.01482625
O        2.36997666       5.50475975       9.01967803      -0.01303529       0.00067627      -0.00245361
C        2.54605704       4.09876811       9.10316658      -0.00981086       0.00087941      -0.00506495
C        3.72679166       3.71616143       9.97577509      -0.00368953       0.00091405      -0.01406759
H        1.62869399       3.61286400       9.45569885      -0.00683182      -0.00131026       0.00017056
H        2.73718635       3.77780164       8.07903505      -0.01638651       0.00234845      -0.00682455
H        3.78095006       2.63380368      10.10919950       0.00917059      -0.00043012      -0.03145686
H        4.66483710       4.05602489       9.53984491      -0.00915921       0.01858750      -0.01177894
H        3.63564917       4.18059060      10.96007175      -0.00443078      -0.01760775      -0.00546928
H        2.04313067       5.82564954       9.86430660       0.00285435       0.00162026       0.00327900
O        1.58921225       2.99171526       5.34318971      -0.00712389      -0.00647271      -0.00730777
C        0.46823307       3.60591970       5.93319018      -0.00241727      -0.00409049      -0.00171372
C        0.55279000       5.12226095       6.00203238      -0.00756417      -0.00579870      -0.01203965
H       -0.39396007       3.30833463       5.32671129      -0.00923538      -0.00971413       0.01510513
H        0.28767602       3.21037230       6.94559125       0.01262685       0.00019300       0.00008285
H       -0.40771406       5.52664287       6.32586584      -0.00506309      -0.01022463      -0.00219524
H        1.31143656       5.45124419       6.71371190      -0.00022978      -0.00126603      -0.02464217
H        0.79473731       5.53492441       5.02158622      -0.01265516      -0.01042188      -0.01397105
H        2.41806510       3.43266226       5.64395215      -0.00492308      -0.01293479      -0.00632728
O        9.84306426      12.26787637       8.44970857      -0.02529588      -0.02865350       0.01514846
C        9.95237449      11.28278534       7.41591116      -0.01221269      -0.01553613       0.00314283
C       11.39002502      10.96620391       7.06344406      -0.00746971       0.01404560      -0.00133821
H        9.44470616      10.37511397       7.74402418       0.00491744      -0.02695435      -0.00325614
H        9.40183042      11.67027653       6.55300566      -0.02114263      -0.01461884       0.00973111
H       11.41165260      10.17017708       6.31614118       0.00588004       0.02541743      -0.01270965
H       11.91800726      11.83540248       6.66565421      -0.02353997       0.02915302       0.01092543
H       11.91888975      10.59623912       7.94262794      -0.00100642       0.01085441      -0.00683314
H       10.70921258      12.34645904       8.87648773      -0.02158028      -0.01792339       0.00776336
O        6.58780121       8.92862768       2.53909079      -0.00661501      -0.00318056      -0.00068617
C        6.84930563       8.78694589       3.92829536      -0.01131272       0.00021672      -0.00160539
C        7.31462222      10.08561788       4.56653620      -0.01041731       0.00104249      -0.00375420
H        5.96741500       8.41297924       4.45796431      -0.01254618       0.00245059      -0.00127560
H        7.62687190       8.02173855       4.01485587      -0.01320779      -0.00168526       0.00342731
H        7.47455305       9.95752542       5.63954577      -0.01182081       0.00210980      -0.00380576
H        8.23559678      10.44262435       4.09910576      -0.00920525      -0.00139931      -0.00351067
H        6.54881728      10.85293197       4.43826853      -0.01004632       0.00097811      -0.00562236
H        5.78063551       9.46611876       2.44304196      -0.01266348      -0.00490701      -0.00388756
O        0.79806446       4.57311441       1.51066328       0.00555152      -0.01349974       0.00039923
C        1.85057309       3.78126958       2.01099871      -0.01453739      -0.03039600       0.01387894
C        3.02487659       3.77462410       1.00735465       0.01382676      -0.00652084       0.04841843
H        2.21988404       4.16374855       2.96502080      -0.04461028      -0.06353667       0.03759408
H        1.47683397       2.77275368       2.17088292      -0.02586439      -0.03331637      -0.03009308
H        3.93005999       3.87060470       1.72008379       0.00056674      -0.00672454       0.07498109
H        2.96354077       2.88923545       0.30813647      -0.00182334       0.00409839       0.03432769
H        3.00991931       4.67512980       0.38847064       0.02774669       0.01222840       0.07240583
H        0.94539845       5.48103575       1.79176226       0.00859279      -0.01913381       0.01708990
