148
Lattice="16.393805147005317 0.0 0.0 0.0 16.393805147005317 0.0 0.0 0.0 16.393805147005317" Properties=species:S:1:pos:R:3:forces:R:3 energy=-1344426.25 stress="-0.00022217798687051982 0.0002701512858038768 -1.5497085314564174e-05 0.0002701512858038768 0.00038826902164146304 -0.00010959359497064725 -1.5497085314564174e-05 -0.00010959359497064725 0.0003131583798676729" pbc="T T T"
Sr      13.48594095      14.10624500      12.78888720      -0.00243214      -0.00526708       0.00633907
Sr       7.75766587       9.69279073       7.10865849       0.00683080       0.01310333      -0.01123947
Sr       6.21969086       6.28474963       4.94118320       0.00315717      -0.00045627       0.00723242
P       10.09132807       1.44871254      14.89932779      -0.00341699      -0.00377394      -0.00094413
O       11.70282790       1.84743730      14.89949308       0.00083470      -0.00270101      -0.00322996
O        9.81833092       0.47297600      16.02120461       0.00727358      -0.01060510      -0.00511324
O        9.47038579       2.81165940      14.94731884      -0.00539982      -0.00137460       0.02145851
O        9.81324066       0.77023267      13.53047500      -0.01139785       0.01411861      -0.00141275
P       13.63211521       0.47866309      13.80241819      -0.02868187       0.01732398       0.02352944
O       12.82407475      -0.06850440      12.61258141      -0.01947272      -0.01758373      -0.02902055
O       14.39446332      -0.72766604      14.38855350       0.02200902      -0.03190911       0.01689458
O       14.37959980       1.73902151      13.57750044       0.01606083       0.02599025      -0.01193675
O       12.53546000       0.65461111      15.06670329       0.00107622       0.00170618      -0.00701535
Cl      14.29361944      11.16424131      14.44971390       0.02296244       0.03125494      -0.01798552
Cl      14.45389152       8.47714153      13.31232912       0.00111377       0.01606834       0.01463540
Cl      12.24948429       9.16837266      15.08545139       0.00462899       0.04264975      -0.00008515
C       13.34915192       9.74298160      13.84848566       0.01136266       0.02953346      -0.00239295
H       12.77240373      10.11482462      13.00636481       0.01218651       0.03028670      -0.00246194
Cl       9.43801084       7.19445282       7.13550896      -0.00647715      -0.00368601       0.01254810
Cl       7.67865157       8.68705659       4.51106282       0.00177786       0.00101212      -0.00545948
Cl       6.55530722       7.19028966       7.85912888      -0.01306063       0.02723950      -0.00093457
C        7.94148639       6.19912528       6.92916124      -0.01239327       0.00308836       0.02250041
H        8.10393254       5.40195541       7.65848549      -0.02438929       0.01502981       0.03821088
Cl       2.23191575       9.54354896      10.92759291      -0.00412330      -0.00536805      -0.00400595
Cl       4.53012929      10.31819960       9.31529344       0.00293417      -0.00187436       0.00763512
Cl       2.31449251       8.79807697       8.12326125       0.00916427       0.00026593      -0.00550499
C        2.75770560      10.01298142       9.31542307       0.00347075      -0.00153288      -0.00129062
H        2.28696041      10.95441829       9.04982914       0.00359316      -0.00130299      -0.00095792
Cl       7.36038132       3.62029087       3.98332154       0.01329485       0.00499864      -0.00059456
Cl       9.54555846       2.92145807       5.80011586       0.00721026       0.01834705       0.01258976
Cl       6.78697547       2.66146109       6.69972023       0.00320632       0.01744635       0.00224772
C        7.91530661       2.53879660       5.33727139       0.00980183       0.01347083       0.00762579
H        7.85187286       1.53500760       4.92582237       0.01426214       0.01116413       0.01286575
Cl      10.06334734      14.96707986      13.71708497      -0.00206131      -0.01531214      -0.01432228
Cl      11.58667856      12.21307472      11.96948268       0.00171855      -0.00919092       0.00735839
Cl      11.95804247      14.08012918      15.69725518      -0.02505973       0.00967596       0.01614144
C       10.38698225      14.47282702      15.19194576      -0.01922405       0.01917526       0.00172900
H        9.64466434      14.54695273      15.97109769      -0.03512426      -0.00765711      -0.01515289
Cl      14.90901095      11.60423531       2.85374256      -0.00892714       0.00522526       0.00172395
Cl      11.99545711      11.58692959       2.68194976      -0.00988618       0.00773074       0.01460724
Cl      13.47417399       9.06574205       2.61050638      -0.01229099       0.00606555       0.00427060
C       13.43082931      10.71874606       3.25056461      -0.00776319       0.00546967       0.00710890
H       13.36447326      10.65065116       4.33042113      -0.00305928       0.00400074       0.00711617
Cl       3.02588152       6.29093269       1.47339751      -0.00488964      -0.00617217       0.00865766
Cl       5.90743346       5.71790180       1.73078550      -0.00232530       0.01245093       0.00893020
Cl       3.99522457       3.56431770       1.22709730       0.01212470      -0.00016932      -0.00273506
C        4.33328166       5.25933224       0.93787436       0.00173354       0.00375855       0.00556624
H        4.50616179       5.40993595      -0.12315375       0.00226025       0.00858953       0.00651830
Cl      15.47134794       3.13848186       0.64110834      -0.00958979       0.00683066      -0.01286331
Cl      14.37860391       2.12079129       3.15044149      -0.00685459      -0.01150279      -0.02011484
Cl      12.77947589       3.89573937       1.47886384      -0.00935560       0.00043344      -0.00532326
C       14.00101583       2.62073055       1.48316118      -0.00940064       0.00019211      -0.01647992
H       13.59685997       1.76922827       0.94782008      -0.01009296       0.00439438      -0.02339640
Cl       4.75957577      10.18291573       5.93978987       0.01095264       0.01984048       0.00839877
Cl       4.30810435       8.48256284       3.59179255      -0.01751341      -0.00984426       0.04039016
Cl       3.58376347      11.28952857       3.52069912       0.00178478      -0.00638895      -0.00539315
C        4.72228419      10.13308446       4.14260362      -0.00266197      -0.00296131       0.00924653
H        5.72633995      10.34807379       3.78980775      -0.00401925      -0.01424920      -0.00130376
Cl      11.71834241       5.30285904      12.79711573      -0.00046641      -0.01169407       0.02573990
Cl       8.98283205       6.19523212      13.26887831       0.00172046       0.00060022      -0.00859359
Cl       9.50856997       4.06014698      11.34382838       0.00028710      -0.01087278       0.00472748
C       10.03132687       4.80542100      12.87659139      -0.00681867      -0.00889364       0.00671425
H        9.89755565       4.05925310      13.67581824      -0.01649496      -0.00784349       0.00497442
Cl       6.38570820      11.93845246      -0.47645310      -0.00961987      -0.01884466       0.00314170
Cl       7.04074825      12.47310642       2.31943376      -0.00344784      -0.01378751      -0.00498690
Cl       7.25403147      14.60493113       0.33836643      -0.03129011      -0.01326096       0.00162270
C        6.37530483      13.15401565       0.80099307      -0.01506793      -0.02210216       0.00643030
H        5.34991196      13.43894257       1.00402514      -0.01642984      -0.03212547       0.00906538
Cl       7.79728386      10.93990873      10.01741694       0.00252128      -0.00537327      -0.00320771
Cl       9.56959539       8.80354565      10.91130629       0.01773782      -0.00328656      -0.02242083
Cl      10.28563422      10.44090922       8.56815013       0.00486773       0.02488877      -0.00732669
C        9.50905757      10.38531282      10.20516485       0.00604506       0.00254712      -0.00681025
H       10.05393207      11.12001692      10.81992510      -0.00076072       0.00087032      -0.00167264
Cl       1.98241723       3.99111641      14.71529221       0.00395648      -0.01127011      -0.00187270
Cl       1.43027980       1.31772193      13.69995285      -0.00223821      -0.01353794       0.00602233
Cl       4.20094497       2.19177219      14.08151865      -0.00012237      -0.01604590      -0.00267237
C        2.52068213       2.29086581      14.65873416       0.00240440      -0.01143721       0.00201432
H        2.50568371       1.92469155      15.67736136       0.00371978      -0.00929682       0.00247961
Cl       2.75844573      13.94591701       8.57384447      -0.00340986       0.00476599      -0.00500293
Cl       3.35554705      14.37876704       5.74901538       0.00096694       0.00091792      -0.00491741
Cl       1.55055809      12.22145567       6.55383349      -0.00363318       0.00455235      -0.00518438
C        2.13268044      13.85668349       6.92053082      -0.00174446       0.00416300      -0.00609707
H        1.28921458      14.53042373       6.83605149      -0.00070482       0.00509501      -0.00765114
Cl       9.45518528       9.59105430       0.83952956       0.00743499      -0.00296858      -0.00312649
Cl       7.25861221       8.32863553      -0.62760761       0.00755471      -0.00460014      -0.00331736
Cl       9.22012394       6.67951965       0.78453036      -0.00490113      -0.00431496       0.01326352
C        8.34211804       8.22204970       0.77017457       0.00225161      -0.00017455       0.00064898
H        7.73329860       8.25993301       1.66628528      -0.00003646       0.00820711      -0.00133777
Cl      -0.52269938       3.86875883      11.97777972      -0.00131410      -0.01440394       0.00671032
Cl       0.66526036       6.50965040      12.40362763      -0.01412491      -0.00709239       0.00170243
Cl       2.09214836       4.50370299      10.82544836      -0.00663444       0.00335068      -0.00477749
C        0.47827817       5.10765762      11.28849212      -0.00937246      -0.00774026       0.00146585
H        0.01988231       5.50406512      10.39142866      -0.01592852      -0.01128811       0.00480068
Cl      12.34484513      15.22987655       4.71203287      -0.03589329       0.00295576       0.01849502
Cl       9.87415094      14.41864314       3.36507906      -0.00774384       0.00276834      -0.03973392
Cl      11.08863770      16.98345522       2.72550025      -0.00481541       0.01486117       0.01204048
C       11.39710258      15.32674713       3.20524451      -0.00809364       0.01062495       0.00071742
H       11.97816141      14.84499276       2.42856571       0.00943314       0.01890758       0.00825351
Cl      -0.15311440      14.90711823       4.23113854      -0.00089373       0.01612747      -0.01767477
Cl       1.43363103      13.50092023       2.21188030      -0.00201400       0.00407249      -0.01036305
Cl       0.46592352      16.19967988       1.69159964       0.01981929       0.01185793      -0.01677865
C        1.03310413      15.08642974       2.92499745       0.00698067       0.00674471      -0.01177672
H        1.94573871      15.47606073       3.35915798       0.00763014       0.00021629      -0.00740661
Cl       6.85076591       1.32659403       1.41943204       0.02048671      -0.00436500      -0.01304987
Cl       4.18238833       0.12443470       1.59874001       0.02047709       0.00189029      -0.00622874
Cl       6.09457984      -0.24364899       3.77631853       0.02330639       0.00349686      -0.00589962
C        5.54132948       0.85761735       2.48317875       0.02242386       0.00067095      -0.00807789
H        5.15305276       1.74248335       2.97559325       0.02456185       0.00239639      -0.00970520
Cl      14.88931766       4.22775927       8.10956861      -0.00089541      -0.01303342       0.01993065
Cl      12.80304091       3.64057041       6.16818219       0.01544961       0.00839394      -0.00399591
Cl      12.08182809       4.42685363       8.89853028      -0.00853333      -0.01111385      -0.00419149
C       13.23135104       4.61820083       7.58179891       0.00535527      -0.00366060       0.00776327
H       13.22955070       5.65697228       7.27483826       0.01141085      -0.00115013       0.01651871
Cl       0.81189858       8.49509221       3.12308322      -0.01569645       0.00161116      -0.01716633
Cl      -0.50592795       5.89227413       3.00990587      -0.01323542      -0.00470141       0.00387108
Cl       0.81925035       6.75114884       5.46856943       0.01678780       0.00847779      -0.01479454
C       -0.09466509       7.26671177       4.02657689      -0.00310990      -0.00022755      -0.00562790
H       -1.00891166       7.73165131       4.37351395      -0.00257964      -0.00554945       0.00214286
Cl       1.74627398       3.48970367       6.68558803      -0.00430527      -0.00538683      -0.01427582
Cl       3.57366964       4.08786103       4.47329008       0.01117557      -0.00976043      -0.00258219
Cl       4.02024601       5.29722498       7.07854714      -0.00551133      -0.00605379      -0.00071937
C        3.38623103       3.84498935       6.23282542      -0.00044474      -0.00738934      -0.00345519
H        4.03391473       3.02011891       6.50943994      -0.00322551      -0.00782862       0.00177949
Cl       5.08445416       8.63731037      13.06666306      -0.01528040      -0.00547573       0.01838520
Cl       5.25830822       6.77971187      10.82482913       0.00575384      -0.00281667       0.01682505
Cl       5.13673317       5.75146133      13.53889321       0.00148420      -0.00550947       0.01597966
C        4.60862850       7.03972159      12.45508469      -0.00249447      -0.00805552       0.01406696
H        3.52700987       7.01145058      12.38746480      -0.00207919      -0.01444828       0.01081072
Cl       6.50168852      15.40524512       7.66595236       0.01562404       0.00930844      -0.00196031
Cl       6.92619125      12.66354223       6.81106198      -0.00424463       0.00820768      -0.00269024
Cl       9.21866621      14.48012808       7.15416054       0.00638313      -0.00791329      -0.02140307
C        7.63242596      14.08104549       7.76114344       0.00776187       0.00106364      -0.01083785
H        7.69611007      13.72945493       8.78605420       0.01274105       0.00077885      -0.01163982
Cl      15.28235539      10.50116274       8.29723327       0.01207459      -0.00540001      -0.00203452
Cl      13.23089674       9.44360938      10.07245283       0.01230663      -0.00365432       0.00016462
Cl      15.04352365       7.61571930       8.69422778       0.01319395      -0.00510237       0.00208613
C       14.85879126       9.21026315       9.44528975       0.01298893      -0.00412092      -0.00005586
H       15.55134170       9.26275842      10.27791170       0.01337801      -0.00272308      -0.00061758
Cl       6.66069453       1.64460260      10.64565890       0.00041980      -0.01568474      -0.00655058
Cl       6.36015778      -0.68779131      12.37187989       0.00994876      -0.01390576      -0.00180344
Cl       8.69969469      -0.45870648      10.63066964       0.00624558      -0.01133265      -0.00803906
C        7.51142944       0.43422033      11.62018318       0.00574796      -0.01172283      -0.00618692
H        8.08310688       0.92485910      12.40602915       0.00713390      -0.00973736      -0.00863552
Cl       2.65568887      13.43469660      12.16515314       0.00143754      -0.00308815      -0.00239071
Cl       0.14795513      14.06679704      13.52249423       0.00379063       0.00264573      -0.00046122
Cl       0.08945918      12.55475212      11.04221216       0.00015055      -0.00168493       0.00187802
C        1.02200884      12.88548015      12.53296705       0.00182953      -0.00080886      -0.00092301
H        1.08760157      11.94801327      13.07242446       0.00104667       0.00057483       0.00207022
