148
Lattice="11.26013969161357 0.0 0.0 0.0 11.26013969161357 0.0 0.0 0.0 11.26013969161357" Properties=species:S:1:pos:R:3:forces:R:3 energy=-1482670.75 stress="0.002139365766197443 -0.0007455616141669452 0.0018373883794993162 -0.0007455616141669452 0.0015045463806018233 -0.0012546754442155361 0.0018373883794993162 -0.0012546754442155361 0.0014286311343312263" pbc="T T T"
Ta       1.60668386       6.88767066       3.02719131      -0.00049134      -0.00644958      -0.00227801
Ta       2.86351048       3.36953261       2.72278517      -0.00540410      -0.00881059      -0.00033295
Ta       9.53809840       6.65839464       0.76510614      -0.00527512      -0.00091036       0.01051956
P        2.16564174       4.73734140       7.66059237       0.00827601      -0.02732296      -0.01084074
O        2.33338782       3.25148000       7.79061468      -0.00591147       0.01054513      -0.00121186
O        1.27712499       5.36490352       8.72428635       0.01323092       0.00938463       0.01008919
O        3.58541036       5.38360446       7.71800835       0.00543752      -0.01248002      -0.03256446
O        1.52009481       4.98867831       6.22486678      -0.02089639      -0.00564444       0.00272816
P        8.46294128       5.32552755       6.78349796      -0.00418906      -0.00103752       0.00452355
O        7.20454085       6.09598750       7.09721332       0.00117171       0.01850942       0.00914916
O        9.10931957       4.85491682       8.15049424      -0.01005869       0.00207137       0.00989461
O        8.28678138       4.05408490       5.95780948      -0.01119735       0.00943780       0.00347817
O        9.52246762       6.21391068       6.03352388       0.00435948      -0.00313920       0.00999942
P        1.73564621       9.63371447       7.70693526      -0.00445554      -0.01893581       0.01568460
O        2.89803964       9.97415597       8.75119416       0.00815016      -0.00210336      -0.01810819
O        1.66152821      10.59404524       6.56016222      -0.00165610      -0.00861955      -0.02562332
O        2.14566704       8.19000752       7.20997377      -0.00764937      -0.01256320       0.00040323
O        0.48635363       9.58571376       8.56677666       0.01596522       0.00443187      -0.00356495
P        4.85930688       6.15113028       2.78729596      -0.00297780      -0.00570577       0.00980695
O        5.69734711       6.50371405       1.60042288       0.00775354      -0.00248498       0.01341927
O        1.84548164       5.03570280       2.90968666      -0.00343347       0.00013524      -0.00104105
O        4.36684851       4.68091254       2.78169613      -0.00036902      -0.00058308       0.00387621
O        3.58320172       7.05359121       2.94505198      -0.00229630      -0.00227898       0.00031749
P        1.14424748       1.19631171       2.66390512       0.01143936       0.02715175      -0.03076795
O        0.87727880       2.72316336       2.84996742      -0.00154567      -0.01186490      -0.00301276
O        0.53437740       0.74517734       1.28678947       0.00142372      -0.00339948       0.00050649
O        2.69471992       1.29282534       2.49197479      -0.00951737      -0.00332689       0.00316289
O        0.72843459       0.27892548       3.76778223      -0.01247367      -0.02020821       0.01570034
O        9.66461292       2.15128550       8.22596479       0.00809029       0.01149311       0.01119196
H        9.47619329       2.58712132       7.38623338       0.00191914       0.01596445       0.01443334
H        9.60051378       1.18623413       8.06046439       0.01075345       0.01227774       0.00794002
O        8.17628130       8.24077524       1.47059452      -0.00401676      -0.00850789       0.02358827
H        7.29521613       7.99614659       1.79434674      -0.00590855      -0.00752047       0.02019136
H        8.58185697       8.93747113       2.09501019      -0.00699142      -0.00332570       0.01811616
O        4.87860860       2.80484537       8.10478271       0.00109609      -0.00252873       0.00932835
H        3.88708373       2.96286018       8.00101038      -0.00409007      -0.00443149       0.00579569
H        5.20591197       3.59662035       8.56615314      -0.00339606      -0.00210485       0.00144981
O        7.74989303       9.30096269       9.52253652       0.00903070       0.00626114      -0.00783866
H        8.32602815       9.68045313       8.83225570       0.01110967       0.00345775      -0.00839439
H        7.85709762       9.87326597      10.29777961       0.00624236       0.01331481      -0.01208104
O        7.82954836       8.70630306       6.47772544       0.02437419       0.00658995      -0.02307995
H        8.78084550       8.76619406       6.30428062       0.02376981      -0.00712631      -0.03458951
H        7.66451435       7.77555886       6.74183135       0.01712727       0.01260641      -0.00856560
O       10.60920224       5.29603008       0.23576606      -0.01217306      -0.00103168       0.00129797
H       10.29274402       3.14516372       1.53907730       0.00581487      -0.00102907      -0.00574606
H       11.02925390       4.45620114      -0.24138174      -0.00774139       0.00070515      -0.00391642
O        8.20411289       2.86375774      10.28571345      -0.00983495       0.00199187       0.00009658
H        8.71128638       2.67000460       9.45071666      -0.00400173       0.00397587       0.00261728
H        7.57565930       3.56744204      10.05786130      -0.00861657       0.00121051      -0.00181350
O        8.50047124       6.69355147      10.41164894      -0.01690614       0.00279884       0.01761411
H        8.22135840       7.56518468      10.06072490      -0.01172074       0.00308800       0.01430508
H        9.05496729       5.53599343       8.85077896       0.00225448       0.00761251       0.00442095
O        9.75837137       0.83063359       5.29373537       0.00621350      -0.00954954       0.00167033
H        9.10275331       0.95176528       4.59585767      -0.00236407       0.00729718       0.00187967
H       10.60402309       0.71121752       4.80655071      -0.00604848      -0.00670487       0.00211581
O        9.77713381       2.41763824       1.16908653       0.00004358      -0.00018778      -0.00596984
H       10.96533607       1.26807678       1.08351343       0.00075800      -0.00287641      -0.00618808
H        9.26966093       2.77418111       0.40763802      -0.00178517       0.00219344       0.00000208
O        2.96767717       5.55812459      10.67818476       0.02432987      -0.00418415      -0.00055528
H        2.28194994       5.52095990       9.93563993       0.03460889       0.00023101      -0.00233692
H        3.81819615       5.69427339      10.23868365       0.03547987      -0.00899569       0.01126738
O        4.78378942       7.28538966       6.62018493       0.00591369       0.00842005       0.01035500
H        3.90145028       6.24300170       7.25993968      -0.00119890      -0.00127702      -0.00718253
H        4.93887315       8.05271771       7.19161836       0.00641312       0.00935237       0.01124955
O       10.64684182       7.17900460       8.05623410      -0.00298192      -0.00713582       0.02583051
H       11.35199675       6.54217642       8.31176278       0.00112121       0.00523436       0.01725511
H       11.01461240       8.06905973       8.23163357      -0.00385645       0.00273785       0.02036233
O        0.77397107       0.91349464       9.35111101       0.01512152       0.01008979      -0.01152378
H        0.54584720      -0.03025342       9.18500356       0.01585152       0.00848821      -0.01826137
H        0.87010438       1.33287419       8.48345259       0.02243678       0.01796957      -0.00493707
O        3.52718499       0.89841708       5.63385298      -0.01031733      -0.00625893      -0.00159836
H        2.78360573       0.29536691       5.93192589      -0.00099797      -0.00608595      -0.00673676
H        4.14150289       0.92430205       6.37349072      -0.00666884      -0.00216592       0.00379223
O        9.36037639       9.93433172       2.93278703      -0.00206245       0.00088906       0.00827280
H        8.85844573      10.75126845       3.06344668       0.00248227       0.00694195       0.00423081
H        9.73488154       9.67894557       3.80135056      -0.00074252       0.00480524       0.00598125
O        5.10449941       0.78634808       9.75968696       0.00431304      -0.00462456       0.00679120
H        5.14751491       1.54592291       9.11187534       0.00197018      -0.00156566       0.00916472
H        5.20754662      -0.02386926       9.22923717       0.00449506      -0.00111421       0.00322109
O        1.06197205       9.04880209       2.66790414      -0.00202125      -0.00109732       0.00019552
H        0.97143441       9.85077016       3.24733483      -0.00270139      -0.00912939      -0.00738552
H        0.33465508       9.12138475       2.01644784      -0.00318995      -0.00716060      -0.00648651
O        7.37371370       0.62557833      11.62787282       0.00309522       0.00103398       0.00442545
H        7.69438606       1.39678879      11.10778808      -0.00143681       0.00133371       0.00201751
H        6.46057468       0.55084771      11.31534506       0.00230444      -0.00295693       0.00622817
O       10.81466088       6.69832138       2.63641189      -0.00521923      -0.00212661       0.00519612
H       10.36255295       6.31578019       3.40130222      -0.00397482       0.00449210       0.00930117
H       10.07443075       6.71546091       6.74407673      -0.00116071      -0.00511294       0.00985177
O        1.40067832       7.19513092       4.78524841      -0.00242235      -0.00542428       0.00149159
H        1.47890483       5.89496774       5.81304613      -0.01442655      -0.01122883       0.00071605
H        1.94905524       7.99288660       6.26470005      -0.00263509      -0.01341200       0.00286540
O        2.97423565       3.34917854       0.81631820       0.00165955      -0.00012706       0.00016087
H        2.98866546       4.17203652       0.25087587       0.01027923      -0.00237714       0.00127518
H        2.82774830       2.05167709      -0.01999232       0.00189284      -0.00412440       0.00267421
O        9.49522690      10.77893689       7.66339215       0.00595456       0.01209794       0.01307091
H        9.61908766      11.04462249       6.72532215      -0.00101074       0.00257535       0.01437377
H       10.32095231      10.30288808       7.91146464       0.00962983       0.00697749       0.01173582
O        3.05233067       9.57915885       0.30639705      -0.01912932      -0.00766307      -0.01638005
H        2.89989205       9.77811494      -0.63328665      -0.00629170      -0.01300897      -0.02007810
H        2.82095664      10.38733960       0.77961695      -0.02083297      -0.00165881      -0.02530694
O        2.79248061       3.19927424       4.82467463      -0.00958724      -0.00145007       0.00238463
H        2.99943158       2.32740261       5.30035780      -0.00984623       0.00069179       0.00135410
H        2.18916828       3.78099845       5.35010126      -0.01454858      -0.00437928      -0.00103184
O        6.02947909       2.67873203       5.63687259       0.00385818      -0.00081496       0.00360945
H        6.82467652       3.25511199       5.74024147       0.00236474       0.00339844       0.00622207
H        5.51195576       2.86269265       6.45482380       0.00057651      -0.00235351       0.00196911
O        8.30394219       5.60384158       1.90830413      -0.00408554      -0.00792362       0.01105310
H        8.54497831       4.51760154       2.94885484      -0.00297514       0.00263400      -0.03014772
H        7.35105477       5.86588758       1.88973628      -0.00476823      -0.00944956       0.01469925
O        0.42752988       3.45614907      10.33226589      -0.00315971       0.01348615      -0.00498784
H        0.68291921       3.97401297       9.53391852       0.00990525       0.01539641       0.00855197
H       -0.05465622       2.67942193      10.01636145      -0.01542350       0.01962303      -0.02350809
O        6.56243922      11.30179326       6.24411970       0.00019252      -0.00524500      -0.02089173
H        6.49569179      12.27263661       6.11070702       0.00587558      -0.00171728      -0.00955855
H        7.46961483      11.11097852       6.51067089       0.00125402      -0.01650809      -0.03757679
O       -0.63031610       9.14705892       5.30408119      -0.00148383      -0.00625827       0.00254002
H        0.02553856       9.83292107       5.52579295      -0.00346538      -0.01296079       0.00984271
H       -0.08327519       8.35860628       5.13738755      -0.00241399      -0.00991659       0.00043551
O        5.43660195       9.72231726       8.13015173       0.01273713       0.01199916      -0.00449196
H        6.21805934       9.44773192       8.66682730       0.01355809       0.01121274      -0.00554471
H        5.80903110      10.25024474       7.38327372       0.01039152       0.01047006      -0.00688379
O        8.82561442       3.78411490       3.61123920      -0.00761369      -0.00528044      -0.02081069
H        8.59271892       3.96405520       4.67655954      -0.00164106      -0.00114866      -0.03022882
H        8.50920598       2.90436334       3.30139037      -0.01703717      -0.00599891      -0.01793627
O        2.81935609       1.16971893      -0.51685380       0.00196540      -0.00403690       0.00172507
H        3.72168655       0.98992679      -0.97524385       0.00283340      -0.00431099       0.00604870
H        1.98511558       1.08104314      -1.13756472       0.00333893       0.00108382      -0.00400537
O        5.68072026       6.26184260       4.11239652      -0.00987554      -0.00351197       0.01399922
H        5.63590387       6.80519120       6.59216222       0.00534271       0.00871886       0.01305658
H        6.00683870       7.20913248       4.22550626      -0.00853582      -0.00430900       0.01342401
O        1.85790985       7.37307989       0.89983291      -0.00304760      -0.01244175      -0.00303465
H        2.32927003       8.25586849       0.73134221      -0.01186057      -0.00856066      -0.00931283
H        2.35168934       6.69238763       0.35841053       0.00627728      -0.00868482       0.00245909
O        7.82796342       1.20955827       3.02370474      -0.00103638       0.01617095      -0.00037765
H        6.94254459       1.11797527       3.39267979      -0.00133765       0.01451686       0.00070751
H        7.70760248       1.06343113       2.04826249      -0.00020344       0.01132970      -0.00025560
O        6.47722492       8.74174293       4.18775715      -0.00487019      -0.00536865       0.00104614
H        7.01777900       8.82702829       5.01700972       0.00756594      -0.00343723      -0.00700672
H        5.70086012       9.28572094       4.35143718      -0.00055638      -0.00137275       0.01057859
O        4.72900857       2.28116831       3.34422852      -0.00324278      -0.00221065       0.00969648
H        4.39159252       1.42530670       3.65767356      -0.00460535      -0.00186935       0.01217435
H        5.19771076       2.67071477       4.13206508      -0.00263369      -0.00102443       0.00659242
O        6.19212472       4.95316534       9.54027434      -0.01743333       0.02585909      -0.00212491
H        6.44765588       5.49382287      10.29859214       0.02415594       0.01489761      -0.00675638
H        6.53755291       5.43467131       8.76061662      -0.01422871       0.01385517      -0.00673342
O       -0.71749810       8.28671977       0.45938729      -0.00606483      -0.00194269       0.00500922
H        3.82237045       9.80335885      -2.81557185       0.00881042      -0.00099330      -0.01571488
H        0.11452004       8.19794650      -0.02032570      -0.01790786       0.00677008      -0.01862775
