149
Lattice="12.682625940545982 0.0 0.0 0.0 12.682625940545982 0.0 0.0 0.0 12.682625940545982" Properties=species:S:1:pos:R:3:forces:R:3 energy=-425609.3125 stress="-0.0005827273707836866 -0.0003015081601915881 -0.0013779245782643557 -0.0003015081601915881 -0.0012481545563787222 -0.0005995401297695935 -0.0013779245782643557 -0.0005995401297695935 -0.0008485779399052262" pbc="T T T"
Zr      12.99738267       3.68727102       2.52705213      -0.01538327      -0.01034405       0.05032426
Zr       8.56130250       4.40735444       3.41146528      -0.00349727      -0.00261346      -0.00243118
Zr       7.93630666      14.23440742       1.19657692      -0.01493247       0.00053285      -0.01917401
P        2.67089336       3.67988519       1.19098644      -0.04792905      -0.00067542       0.00320187
O        3.21527967       3.65985544      -0.16600393      -0.08609281       0.00574815      -0.01197072
O        3.92498543       3.61528760       2.19682021      -0.00433695       0.00194693      -0.05574059
O        1.74024223       4.88156619       1.60216991      -0.03499527      -0.01179796       0.03302180
O        1.69241640       2.52017157       1.62876142      -0.01742253      -0.00527443       0.04415865
P        5.20890938       1.35103895       1.42628339      -0.05543276      -0.01882144       0.02114862
O        6.13910293       1.52503032       2.59940857      -0.02622196      -0.00026969      -0.04531514
O        8.15048420      -0.18214338       1.20806147       0.01596326      -0.00108856      -0.02209541
O        3.89240117       0.74360459       1.43324328       0.06570679       0.04133946       0.02412164
O        5.99856798       1.66473353       0.17403359      -0.03575525      -0.00846330       0.02271472
P        6.92283283       5.34494269       1.83405244       0.02130425      -0.00588925      -0.00283337
O        5.98399451       5.94228774       0.90322029       0.00198397       0.00411232      -0.02530104
O        7.67817122       3.95381844       1.49539343       0.01092020       0.00770535      -0.01085296
O        8.27595861       6.08059510       2.28924350       0.00591187       0.00197539      -0.00113416
O        6.51183671       4.91509902       3.31221356       0.00124499       0.00120595      -0.01596016
P       10.47477506       2.54690480       2.17196213      -0.02052055      -0.00241077       0.01222804
O       10.79320549       4.08514729       2.33743636      -0.00904392      -0.00518775       0.04276930
O        9.21879580       2.36454716       3.09883992      -0.02141494      -0.01472369      -0.00337204
O       10.01373645       2.10989324       0.80660908      -0.00218463       0.03991008       0.00279614
O       11.77677779       1.89387602       2.61941736      -0.01918817      -0.01330861       0.01322070
O       10.04025379       2.76455732      10.79209898       0.00081599      -0.00513868      -0.03201485
C        8.79927656       2.11623038      10.62185374      -0.00206968      -0.00909692      -0.00445604
C        8.79158353       1.28861854       9.35259348      -0.01467031      -0.02627528       0.00780880
H        8.56517976       1.44105143      11.47268000       0.01533009       0.00056408       0.00339112
H        8.02620795       2.88985025      10.59811989      -0.00684994      -0.01184064      -0.00504557
H        7.79427369       0.92215936       9.10466864      -0.01820371      -0.02426275       0.02146643
H        9.16410992       1.91037394       8.53871554      -0.01819931      -0.04141721      -0.00426916
H        9.45745650       0.43319937       9.44976842      -0.01673546      -0.02565421       0.01686845
H       10.59233629       2.23877967      11.37795397      -0.01794800       0.04671013       0.02306297
O       10.94894710       6.86453568       5.68559849      -0.02444515       0.05085391      -0.03965855
C        9.82222436       6.07174029       5.44868166      -0.00910406       0.02524525      -0.02368915
C        8.52624475       6.81576157       5.66945879      -0.02302304       0.00354126      -0.03066806
H        9.93808420       5.73391677       4.35751819      -0.00564656       0.01437315      -0.01746853
H        9.90949111       5.18018572       6.08266446       0.00890213       0.03567667      -0.01206388
H        7.64382898       6.24654592       5.36595451      -0.01196635      -0.00749064      -0.03912076
H        8.42052329       7.03886610       6.73341825      -0.03549952       0.00198049      -0.03201336
H        8.53917172       7.73740867       5.08444639      -0.03302345       0.00255567      -0.03171523
H       10.77046285       7.73076336       5.29369195      -0.04109141       0.03783929      -0.06010413
O        0.93527100       3.90072129       4.32490905      -0.01104766       0.01670226       0.06007072
C        0.60105930       5.29038891       4.47037416      -0.00286219       0.02363554       0.03737493
C        1.81355466       6.16375045       4.64060329       0.00318295       0.01825184       0.01002146
H        0.03402604       5.65741429       3.56331829      -0.01504380       0.01159324       0.04115906
H       -0.10718227       5.39554679       5.28729892       0.00910628       0.03546333       0.04503474
H        1.51549711       7.21052179       4.68628199       0.00860474       0.01733215       0.02878470
H        2.32196707       5.91311925       5.56437389       0.02808989       0.00997389      -0.00729290
H        2.50904660       6.04120613       3.81191130      -0.02004202       0.02441554      -0.00900225
H        3.69506681       3.50778026       3.13015728       0.03624684       0.01039669      -0.04664356
O        3.83226873      10.09044079       9.24407107       0.00933540      -0.00487399       0.00118557
C        5.08090756      10.77030964       9.39136521       0.00679532      -0.00125128       0.00586075
C        5.30962578      11.30498596      10.78852536      -0.00061726      -0.00052500       0.00620770
H        5.90603965      10.11069254       9.09489517       0.00961760       0.00102153       0.00995411
H        5.04737868      11.58701664       8.66698754       0.00770180      -0.00142452       0.00578266
H        6.28926953      11.78252347      10.85718713      -0.00277391       0.00212339       0.01081432
H        4.54876075      12.03553329      11.06148608      -0.00412440      -0.00207575       0.00251263
H        5.29600457      10.49873533      11.52495553      -0.00185042      -0.00015907       0.00653030
H        3.75392032       9.47050949       9.97529435       0.00623864      -0.00028659       0.00428976
O        4.44433547       9.56269304       2.26108892      -0.00577033      -0.02217025       0.00064433
C        3.34698958      10.45978069       2.41954458      -0.00658494      -0.02617967       0.00657296
C        2.50841166      10.60463833       1.16468309      -0.00354835      -0.01466749       0.00616843
H        2.72094979      10.15377632       3.26846876      -0.00767955      -0.03590490       0.00159907
H        3.79476205      11.41947653       2.67049016      -0.00959128      -0.02653056       0.01748861
H        1.79024051      11.41828992       1.27877565      -0.01287048      -0.02543226       0.01529809
H        3.14683205      10.84808180       0.31572687      -0.00339460       0.00451209       0.01261953
H        1.96014011       9.68586887       0.94303563       0.00684071      -0.01634763      -0.01000371
H        4.10263281       8.67399128       2.13031287      -0.00470449      -0.02229872      -0.01403222
O        1.75007359       2.25386161      10.72809516      -0.01558912       0.01191127      -0.07285929
C        2.67739478       1.45686362      10.01840699      -0.00803828      -0.00861585      -0.03741667
C        4.07790534       2.05186343      10.02393993      -0.00347501      -0.02309877      -0.02693820
H        2.70984474       0.43923480      10.43221900      -0.02519125      -0.00051033      -0.01480147
H        2.29318138       1.36250789       8.99557764       0.00500196      -0.02105012      -0.04091483
H        4.74382319       1.50058513       9.35357798      -0.01126584      -0.03313515      -0.02575511
H        4.04792045       3.10044430       9.72248018       0.01105907      -0.02457452      -0.03229804
H        4.50910387       2.02968499      11.02217946      -0.00238414      -0.02456320      -0.02643448
H        2.25102704       2.73199884      11.41632884      -0.04257634       0.00069989      -0.04650775
O        4.04037580       7.87796824       5.75307165      -0.00202554       0.02081037       0.02417418
C        5.35239276       8.42978282       5.61793041       0.00084066       0.00968134       0.01030092
C        5.32848728       9.94111061       5.66109558       0.01219317       0.00994223      -0.00167469
H        6.00587458       8.03000704       6.40449307       0.00409028       0.01211593       0.00875086
H        5.72223504       8.07845879       4.65358406      -0.00878444      -0.00188559       0.01127368
H        6.34033723      10.34518399       5.59440686       0.01434800       0.00174961      -0.01112684
H        4.75555042      10.33386873       4.82314491       0.00946462       0.00825888      -0.00047481
H        4.87970553      10.28454162       6.59602252       0.02163079       0.01968399      -0.00117262
H        3.64009464       8.29400914       6.52380526       0.00939874       0.02385632       0.02818406
O       11.26628756       7.07069107      11.71863303       0.01653177      -0.00586551       0.00363255
C       10.60753207       5.98931035      11.05172329       0.01236536       0.00279576      -0.00270194
C       11.29531049       5.61095638       9.75810217       0.00866339      -0.00301725      -0.00231570
H       10.53235805       5.11782582      11.70966206       0.00153040      -0.00319481      -0.00330624
H        9.59499322       6.34383597      10.85634859       0.01332277       0.00739339      -0.00089914
H       10.75691462       4.79536974       9.27409134       0.00277606      -0.00094186       0.00135847
H       11.34227141       6.46632000       9.08238768       0.01167408      -0.00588453      -0.00292908
H       12.31053069       5.25482493       9.94811569       0.00613330      -0.01035665      -0.00312130
H       12.18361845       6.81624175      11.85212932       0.02325279       0.00582684      -0.02915672
O        9.59520496       9.22918909       3.53933983       0.02815503      -0.00469410       0.01516473
C       10.26162720       8.71858349       2.37049146       0.01504944       0.00489478       0.00330782
C        9.83294963       9.42070930       1.10384165      -0.00471494       0.00252256       0.00934172
H       11.35025012       8.80547290       2.50287276       0.01548737       0.01282948      -0.01012829
H       10.00577648       7.66038304       2.32096165       0.02185804       0.00389284       0.00323694
H       10.31207470       8.94390397       0.24756163       0.00188459       0.01650299       0.00576298
H        8.75197934       9.35766957       0.98325788      -0.00291070      -0.01708922       0.01026663
H       10.10000620      10.47806395       1.13105298      -0.02396568       0.00598323       0.01126467
H        9.54768016      10.18955828       3.42589305       0.04958168      -0.00220970       0.03274650
O       10.77076842      11.95924333       3.62175890       0.00903231      -0.04508930       0.01780596
C       11.83219906      11.29505716       4.30503583       0.03045154      -0.00858892       0.01384002
C       12.42638255      12.12641900       5.42324775       0.01451644       0.01054788       0.00669575
H       11.38055091      10.38557757       4.70125572       0.06229472      -0.01856682       0.02281316
H       12.60926183      10.99010833       3.59366212       0.03606153       0.00853581       0.01295441
H       13.15480665      11.53911955       5.98634221       0.02340362       0.02567676       0.00940800
H       12.93425375      13.00982108       5.03248791      -0.00011172       0.01589558       0.00075711
H       11.64044761      12.45281126       6.10726950       0.01061440      -0.00018999       0.00637027
H       11.15663530      12.70704455       3.14974952      -0.01708491      -0.04444347       0.00139025
O        7.76701617       7.48412184       8.97461175       0.01046705       0.02337417      -0.00675833
C        6.81680439       7.27701562      10.02680544       0.01070362       0.01668412      -0.00976992
C        7.12681028       8.09952466      11.25730815       0.01167634       0.00127113       0.00013644
H        5.80426835       7.49838393       9.65887638       0.01056814       0.02300815      -0.00630744
H        6.84528085       6.21009804      10.26035521       0.00779609       0.01403993      -0.02114393
H        6.36287963       7.95393971      12.02134756       0.01368754      -0.01299974      -0.00100164
H        8.08563960       7.81309631      11.68899789       0.01321757      -0.00223284      -0.00615793
H        7.17508667       9.16088154      11.00349625       0.00959208       0.00475857       0.01686362
H        7.91834921       8.43764978       8.89524891       0.01114880       0.02386942      -0.00431888
O        7.50923909       3.64136613       5.18852672       0.01182693       0.00950852       0.00820482
C        7.62586646       3.00794887       6.49575400       0.01150621       0.00645584       0.00540048
C        7.26650674       3.98715085       7.58316822       0.00798785       0.00091308       0.00724515
H        6.96292635       2.14226121       6.48080191       0.01149580       0.00788164      -0.00168995
H        8.65299198       2.65356848       6.54868581       0.01124564       0.00870290       0.00792700
H        7.22451465       3.46821113       8.53990795       0.01109729      -0.00269584       0.00441752
H        7.98608501       4.80106754       7.66579039       0.00577827       0.00196058       0.01093247
H        6.27439909       4.39922378       7.39772458       0.00606313      -0.00178620       0.01184901
H        6.58908338       3.89670676       4.99788359       0.01339817       0.01211014       0.00984428
O        3.95614806       3.62319724       6.95880586       0.01121029       0.00533766      -0.00318950
C        3.54818541       4.80612519       7.66390005       0.01166743       0.00200662       0.00235085
C        2.09764382       4.74925558       8.09856403       0.01079059       0.00188483      -0.00120956
H        4.19470868       4.96805544       8.53608412       0.00991181      -0.00418459       0.00490129
H        3.73182737       5.62770627       6.97034094       0.01476959       0.00536671       0.00745451
H        1.78981382       5.71192239       8.51233792       0.01012960       0.00093520       0.00011303
H        1.45170145       4.51536497       7.25051204       0.01318500       0.00397185      -0.00329047
H        1.93846883       3.99340053       8.87232735       0.00808369      -0.00002746      -0.00373214
H        3.76373209       2.87528564       7.53462440       0.00646548       0.00243010      -0.00881875
O        8.57435354      10.44660615       8.39035542      -0.01508299      -0.03435192       0.01195323
C       10.00324080      10.52466644       8.50127384      -0.01582947      -0.02042153       0.01182009
C       10.68191608       9.40846537       7.74363417      -0.00315437      -0.00320196      -0.00008699
H       10.35246275      11.50048623       8.14556173      -0.02937129      -0.01316431       0.02152073
H       10.21385819      10.46265372       9.56890672      -0.01514874      -0.02901570       0.01086110
H       11.76594447       9.45692986       7.86133618      -0.00414298       0.00893126       0.00158368
H       10.33758939       8.43875329       8.10128476       0.00920419      -0.01112360      -0.01204522
H       10.45458759       9.48932096       6.67725732      -0.00294988       0.00479480       0.00097731
H        8.34882543      10.58849902       7.46549664      -0.01805513      -0.03649881       0.01246050
