148
Lattice="11.463419852581652 0.0 0.0 0.0 11.463419852581652 0.0 0.0 0.0 11.463419852581652" Properties=species:S:1:pos:R:3:forces:R:3 energy=-87979.625 stress="-0.000534796214196831 0.0020825486863031983 0.00036153936525806785 0.0020825486863031983 0.00010672324424376711 -8.287382661364973e-05 0.00036153936525806785 -8.287382661364973e-05 -0.0013460906920954585" pbc="T T T"
N        3.26445451       6.59536778       4.06727351      -0.00241277      -0.00363368       0.00380680
N        4.87232638       7.93139666       3.50345839      -0.00308675      -0.00224832       0.00523005
C        2.43720694       5.39069531       4.20353674      -0.00216988      -0.00411457       0.00158924
C        1.30716357       5.32390698       3.18724319      -0.00126261      -0.00318860       0.00056325
C        1.75335896       5.13455384       1.74202454       0.00007910      -0.00255743       0.00094303
C        4.40211228       6.68883206       3.37691492      -0.00300431      -0.00219566       0.00319636
C        3.00099769       7.81385065       4.64634860      -0.00232917      -0.00501633       0.00625557
C        4.01365462       8.65047019       4.29989922      -0.00285187      -0.00399184       0.00711554
C        0.56552877       5.05268206       0.79126996       0.00116247      -0.00112533      -0.00043982
C        6.10999271       8.43263884       2.92593886      -0.00354940      -0.00107688       0.00512801
H        3.11400969       4.54124096       4.12306902      -0.00180554      -0.00373057       0.00080899
H        2.04705904       5.40655640       5.22170950      -0.00293721      -0.00556597       0.00121537
H        0.68831392       6.22310653       3.27330100      -0.00095245      -0.00300214       0.00046849
H        0.67223691       4.48365330       3.48254169      -0.00194278      -0.00295746      -0.00048544
H        2.40593382       5.96169005       1.44120450       0.00095369      -0.00277182       0.00219847
H        2.34641391       4.21753666       1.66739205      -0.00026229      -0.00278091       0.00094072
H        4.87941642       5.88710357       2.84461283      -0.00246860      -0.00130802       0.00231163
H        2.13493123       7.99713675       5.25216819      -0.00166293      -0.00648937       0.00774750
H        4.18999396       9.68002888       4.54880025      -0.00283549      -0.00448717       0.00902691
H       -0.04803028       5.95512532       0.84634141       0.00157603      -0.00100227      -0.00044966
H       -0.06723841       4.19697865       1.03418603       0.00039084      -0.00093718      -0.00211555
H        0.88920618       4.93678686      -0.24469416       0.00192560      -0.00023055      -0.00015171
H        6.45759940       7.73372349       2.17044209      -0.00509429       0.00025111       0.00319065
H        5.90852535       9.39429749       2.45918299      -0.00378526       0.00007311       0.00770351
H        6.84718383       8.54842175       3.71858619      -0.00249162      -0.00307591       0.00441289
S       10.70958093      12.61023564      -0.03324662       0.00530307       0.01264727      -0.01123589
N       10.63949352       9.97063925       0.92277024       0.00897394       0.00274765      -0.02947146
C       10.68230113      11.07763084       0.50791857       0.00716110       0.02489990      -0.02722047
O        2.39063299       1.41910262       2.73563713      -0.00258982      -0.01491225       0.00570565
C        3.73229267       1.85984438       2.55541074      -0.00244635      -0.01363672       0.01183776
H        3.87791809       2.75399762       3.15818573      -0.00458323      -0.01611149       0.01612324
H        3.92953403       2.09397560       1.50676898       0.00102364      -0.00901528       0.01346532
H        4.46062189       1.11579065       2.89543617      -0.00333200      -0.01505718       0.01109542
H        2.27317462       0.53714212       2.34254501      -0.00044648      -0.01583847       0.00692266
O        7.01460819       3.47133460       2.55690771       0.00289172       0.01209235      -0.01039750
C        8.40343766       3.12446342       2.46049631       0.00008619      -0.00130229       0.00159011
H        8.96411134       3.52326227       3.30883072      -0.00355594      -0.00587666       0.00600624
H        8.83489552       3.48008792       1.52283382       0.01159967      -0.00700399       0.00504971
H        8.46490594       2.03854595       2.46674706      -0.01077668      -0.00179228       0.00335972
H        6.94297594       4.40745255       2.35045323       0.01266645       0.01154789      -0.01558767
O       10.24231694       3.77637065       7.30511231      -0.00086385       0.00108027      -0.01406881
C       10.40651318       2.41042415       7.68835011       0.00058129       0.00215492      -0.01049656
H        9.53868231       1.81153208       7.40283602      -0.00296688       0.00272319      -0.00025108
H       10.55914266       2.32198553       8.76716475       0.00989304       0.00656599      -0.01184508
H       11.28420867       2.02107916       7.17500627      -0.00486046      -0.00141425      -0.01673937
H        9.79986334       4.25048979       8.04244877       0.01439404       0.00517926      -0.00777187
O        6.82167660       3.96590246      10.05150135       0.02510720       0.02249080       0.00110427
C        7.61151504       2.79191571      10.25758333      -0.00435668       0.00409913       0.00270620
H        7.20208478       2.16408949      11.05486829      -0.02641384       0.01226036      -0.00364172
H        8.64368601       3.04250122      10.50806723      -0.00179008      -0.02141397       0.01289701
H        7.61209564       2.23913513       9.31926712      -0.00941335       0.00858901       0.00011736
H        6.82512948       4.49251970      10.86585952       0.01889446       0.01526006       0.00558159
O        8.58408541       4.88597491       5.47631419      -0.00464365      -0.01034278      -0.01278603
C        9.35890377       5.97338730       5.01278684      -0.00865123      -0.00480080      -0.00619647
H        9.95649369       5.70393997       4.13264542      -0.00674145       0.00228056      -0.00685641
H       10.04292723       6.34929528       5.78321511      -0.01103444      -0.00660687      -0.00342271
H        8.68707720       6.78805360       4.73828487      -0.01132527      -0.00575653      -0.00233237
H        9.16291196       4.33649408       6.04638579      -0.00431747      -0.00663310      -0.00891750
O        1.70735888      10.13333900       2.20151416      -0.00763965      -0.00008017      -0.00814304
C        1.99228570       8.90368951       1.54649666      -0.00149967      -0.00255030      -0.00090129
H        1.79665045       8.96843962       0.47471630       0.00856226      -0.00603303      -0.00276768
H        1.38960081       8.09500892       1.96792613      -0.00578183      -0.00061050      -0.00352122
H        3.04483308       8.67428315       1.69918225      -0.00337565      -0.00201356       0.00984661
H        0.76955132      10.29275474       1.98896464      -0.00340131       0.00122926      -0.01968884
O        4.51296519       9.53700248       8.65478073      -0.00278872      -0.01047423      -0.00091916
C        5.84762918      10.00962519       8.65096130      -0.00475770      -0.00538994      -0.00834137
H        5.93538149      10.96206104       9.19034008      -0.00696189      -0.00211495      -0.01404375
H        6.18264986      10.13173320       7.61994778      -0.00902537      -0.01030140      -0.01050097
H        6.52502957       9.29700299       9.13236717       0.00001293       0.00009853      -0.00709234
H        4.04147170       9.96055467       9.41593984      -0.00085794      -0.00815368      -0.00113084
O        3.38653380      10.68671121      -0.75397972       0.00369614      -0.00169286      -0.00225362
C        4.30649271      10.74050741       0.31894257       0.00173104      -0.00564693      -0.00083596
H        3.79832321      10.93606958       1.26337792       0.00115144      -0.00058326      -0.00233808
H        5.08278654      11.49958818       0.16445457       0.00677457      -0.01091748      -0.00051532
H        4.78313314       9.76450603       0.38882277      -0.00477596      -0.00853959       0.00228759
H        2.95291987      11.57511152      -0.80403108       0.00327616      -0.00113072       0.00140283
O        2.51950790       1.66759882      10.88422706      -0.00273442      -0.00540708       0.01302587
C        3.20076127       2.65456208      10.11423821      -0.02265260      -0.00102891       0.00284428
H        3.05998259       3.65469537      10.53025394      -0.03580660      -0.00068194      -0.00346270
H        2.88746133       2.65747620       9.06897054      -0.02865380      -0.01348652       0.00463879
H        4.26453290       2.41908800      10.15722953      -0.01921120       0.01541898      -0.00191472
H        1.55433911       1.78627901      10.88388284      -0.00547373      -0.01799183       0.01753911
O        2.32171254       9.65747449       7.05499951      -0.00875252       0.00102639       0.00426832
C        1.62222655       8.63142672       7.73209736      -0.01759452       0.00956774       0.00641632
H        1.60408711       8.79355370       8.81721370      -0.02565151       0.01706435       0.00430790
H        2.07090396       7.64990582       7.53515626      -0.02151562       0.00757957       0.01487623
H        0.59276169       8.62580416       7.36946709      -0.01397899       0.01235597      -0.00069328
H        3.20940069       9.69265613       7.46248604      -0.00785615      -0.00390588       0.00223354
O        9.14146825       5.21592733       9.27319383       0.03275657      -0.00726148       0.00981472
C        9.42649295       6.59546758       9.07831405      -0.00072190      -0.00256640       0.00506162
H        8.95394677       7.21406410       9.84406512      -0.01196867      -0.01170422       0.00535750
H        9.13017224       6.94718702       8.08538891      -0.01364388      -0.01372249       0.00549376
H       10.50627018       6.71171987       9.17186903      -0.00440466       0.02380608      -0.00063109
H        8.18428980       5.05100533       9.37263976       0.03619745      -0.02387807       0.02089607
O        8.41009030       8.45994893       0.43676273       0.00560868       0.00762308      -0.00029480
C        7.72589782       9.69672214       0.30075832      -0.00307178       0.00293897      -0.00174595
H        7.69235816      10.24438882       1.24793690      -0.00550110       0.00399877      -0.00251028
H        6.71325197       9.47836569      -0.02433200      -0.00196677      -0.00393672       0.00024679
H        8.20207503      10.34444488      -0.43849112      -0.00834070       0.00400564      -0.00383824
H        9.33302666       8.71610689       0.66699655       0.00481002       0.01234195      -0.00933276
O       10.39912248      11.36540327       5.41168875      -0.00670260       0.00521332      -0.01146090
C       10.24801321      10.86949983       4.08902669      -0.00137945       0.00160240      -0.01052254
H       10.81113460       9.94450183       3.93071119       0.00998178       0.00872272      -0.00952263
H       10.57416382      11.60797257       3.35332141      -0.01096246       0.00457928      -0.01190582
H        9.18942102      10.66346108       3.92328850       0.00135040      -0.01158051      -0.00905741
H       11.24229605      11.86591162       5.44373654      -0.00424889       0.00130925      -0.00804447
O        7.08249551       1.23817197       6.98568602       0.00011508      -0.00695702       0.00046545
C        6.74680083       0.73951368       5.69815507       0.01286845       0.00755735      -0.00799394
H        5.66877232       0.80943353       5.50987494       0.01530287       0.01294550      -0.01888232
H        7.06404706      -0.29974824       5.56764915       0.01171644       0.00823626      -0.01537186
H        7.26535577       1.36230175       4.97070084       0.02239390       0.01356556       0.00455870
H        6.62457187       0.69413123       7.63147668       0.00182927      -0.02045077      -0.01019053
O        6.61146336       6.28597332      11.63703293       0.01116800       0.00576466       0.01729956
C        5.71941345       6.70694849      10.60095334       0.01011312       0.00689262       0.01852211
H        5.05613985       5.87304246      10.37496485       0.00261387       0.01115680       0.02590216
H        6.25801108       6.96173523       9.68439851       0.00868203      -0.00276814       0.01520151
H        5.11623335       7.56902764      10.90414462       0.01820089       0.01286989       0.01636143
H        7.32990565       6.94503085      11.70376657       0.01212752       0.00494811       0.01442444
O        5.31413553       4.12949498       4.75093586       0.00362507       0.00767307      -0.00325006
C        5.36727910       4.01231034       6.17312711       0.00437303       0.00287501      -0.00372267
H        4.61851026       4.68637523       6.58791170       0.00269797      -0.00049895      -0.00113407
H        6.35158480       4.28557916       6.55500328       0.00369897       0.00411607      -0.00306189
H        5.13671448       2.99517501       6.50365201       0.00696307       0.00125945      -0.00728675
H        6.11263620       3.74450570       4.36172067       0.00557658       0.01347334      -0.00479054
O        2.83597107       5.34493338       8.22449915      -0.00660840      -0.00169164      -0.00147444
C        1.50354166       4.89234157       7.99863397      -0.00890540       0.00364803       0.00134926
H        0.84968734       5.68554282       7.62650420      -0.00490418       0.00487727      -0.00303857
H        1.05053577       4.46260986       8.89685179      -0.01098792       0.01129572       0.00371143
H        1.54852765       4.11338615       7.24082661      -0.01304140      -0.00061606       0.00574508
H        2.80372155       6.09434186       8.82524035      -0.00233720       0.00070494      -0.00460695
O        9.19713792       9.64534807       7.09823693       0.01367471       0.00284654      -0.00037056
C        9.35510819      10.16419152       8.41219359       0.01174659       0.00141198       0.00040713
H        8.79331914      11.09402658       8.55197327       0.00803941      -0.00124621       0.00216043
H       10.40555044      10.36273501       8.64196127       0.01095313       0.00531294       0.00088795
H        8.98607996       9.41910116       9.11525354       0.01479584      -0.00145742      -0.00092189
H        9.65388659      10.27076232       6.48939090       0.00691744       0.00642163      -0.00173095
O        6.96487076       8.52390393       5.90636765       0.01647666       0.00413102      -0.00004548
C        6.40738967       7.36927653       6.52039868       0.01611307       0.00426516      -0.00010383
H        5.59629945       7.63082137       7.20945229       0.01767856       0.00443166       0.00151914
H        7.16030524       6.78269867       7.05216970       0.01601279       0.00284134      -0.00181961
H        6.00169696       6.72177867       5.74162525       0.01384214       0.00556462       0.00000906
H        7.72124856       8.85438994       6.43013144       0.01668955       0.00419638      -0.00008564
O        1.20178314       1.43849486       5.15988769       0.00020218      -0.00817470       0.00140619
C        2.35146316       1.31276524       5.99463437      -0.00171065       0.00127296       0.00468132
H        2.48535491       2.21767621       6.59492534       0.00300280       0.01090333      -0.01151232
H        3.25131531       1.17745710       5.38847115      -0.00167930      -0.01497974       0.00877550
H        2.23753757       0.45064719       6.65135010      -0.00697520       0.01360127       0.01921710
H        1.53205818       1.47057223       4.23761221       0.00203994      -0.01125702       0.00162894
