150
Lattice="11.713151358486048 0.0 0.0 0.0 11.713151358486048 0.0 0.0 0.0 11.713151358486048" Properties=species:S:1:pos:R:3:forces:R:3 energy=-130646.3828125 stress="-0.0018216560129076242 0.00011788288247771561 -0.0004990748420823365 0.00011788288247771561 -0.0024813066702336073 0.0012869765632785857 -0.0004990748420823365 0.0012869765632785857 -0.003961310256272554" pbc="T T T"
N        3.08519829       7.20469017       4.29723050      -0.00303528      -0.00346744      -0.00373834
N        1.91672137       6.32213736       2.70034888      -0.00348812      -0.01005706       0.00077745
C        4.22723775       7.80740054       5.00182173      -0.00334236      -0.00065029      -0.00610425
C        5.26165083       6.78795302       5.46231314      -0.00027868       0.00201543      -0.00795192
C        5.78978699       5.90448323       4.33600495      -0.00078474       0.00255761      -0.00801852
C        3.10022903       6.84183947       3.01502795      -0.00424230      -0.00697117      -0.00255173
C        1.84531223       6.91584630       4.81278681      -0.00150222      -0.00432479      -0.00108629
C        1.10979976       6.37352444       3.80723806      -0.00174618      -0.00844546       0.00171411
C        6.98048069       5.05098462       4.74332471       0.00204864       0.00611046      -0.01009133
C        1.52562651       5.88177872       1.37633861      -0.00503401      -0.01370721       0.00266331
H        4.67189861       8.53057919       4.32095767      -0.00635287       0.00046015      -0.00658122
H        3.81230759       8.36309938       5.83980645      -0.00304891      -0.00239033      -0.00503346
H        4.86103954       6.15932459       6.25975102       0.00236946       0.00198963      -0.00689155
H        6.07940687       7.37037794       5.90049750      -0.00053322       0.00365950      -0.01037586
H        4.98451425       5.24088207       4.00654694      -0.00020507       0.00105873      -0.00501757
H        6.06205708       6.53204774       3.47726795      -0.00477279       0.00156346      -0.00952530
H        3.92915144       6.95647891       2.34268225      -0.00515759      -0.00841580      -0.00361003
H        1.59779197       7.15820510       5.82868592      -0.00068537      -0.00169204      -0.00172506
H        0.08027672       6.07361519       3.76170086      -0.00102454      -0.01049734       0.00433285
H        6.74837588       4.44643787       5.61821962       0.00594063       0.00655621      -0.00896940
H        7.83595014       5.68097877       5.00136923       0.00043724       0.00913897      -0.01336417
H        7.28153676       4.38204954       3.93426460       0.00203695       0.00627390      -0.00995770
H        2.42732202       5.69491378       0.79792067      -0.00618280      -0.01990796       0.00320065
H        0.96926675       4.95117664       1.45757937      -0.00892799      -0.01068084       0.00664799
H        0.93920284       6.67350530       0.89839604      -0.00121534      -0.01242450       0.00018451
O       12.43929629      10.46480109       1.23566745       0.01692128      -0.00824881       0.00278801
O       12.24438557       8.54337155       0.15617629       0.01201898      -0.01470375       0.01728654
O       11.63225089       8.65305931       2.31655344       0.00180686       0.00511324       0.01295376
C       12.07642740       9.12773702       1.24196034       0.00954148      -0.00573641       0.01271491
H       12.23239005      10.81604154       2.10814970       0.01878046      -0.00035766      -0.00011931
O        3.60628845       7.81831866       8.58774228      -0.00416896      -0.00741492      -0.00656685
O        1.45731415       7.32327768       8.83097782      -0.00435941      -0.00150588       0.00094730
O        2.08326859       8.80619372       7.27169681      -0.00578672      -0.00391233      -0.00066292
C        3.57731689       6.75345660       9.56798887      -0.00318092      -0.00638577      -0.00598828
C        2.11798007       6.73347024       9.97785759      -0.00225404      -0.00611004      -0.00326037
C        2.36191401       8.05443605       8.16918439      -0.00517216      -0.00352797      -0.00266027
H        4.25318591       7.03001746      10.36916826      -0.00233725      -0.00633277      -0.00717166
H        3.93136380       5.84631407       9.08221539      -0.00406274      -0.00656351      -0.00571918
H        1.70648708       5.73711617      10.12574209      -0.00257078      -0.00615138      -0.00583193
H        1.88985762       7.38330128      10.82033107       0.00065693      -0.00951701      -0.00017315
O        2.52333832       2.77087045       7.76767611       0.00360784      -0.00632628      -0.00792306
O        2.24425426       4.83976313       7.00092240      -0.00805962      -0.00283876       0.01000647
O        4.30659494       3.95718338       7.06777418      -0.01167881       0.00294919      -0.00946439
C        1.09706284       2.96439379       7.79861910       0.00366846      -0.01116335       0.00503841
C        0.91409313       4.40599001       7.31490699      -0.00480038      -0.01049221       0.01117599
C        3.13390592       3.84946259       7.26160308      -0.00059456      -0.00139113      -0.00394613
H        0.74943641       2.81946697       8.81746361       0.01212282      -0.01514925       0.00737327
H        0.63881177       2.23649357       7.13206913      -0.00045027      -0.01035291       0.00710374
H        0.31212238       4.47629043       6.40811641      -0.00792655      -0.01001989       0.01326039
H        0.51306014       5.06452778       8.08291017      -0.00725475      -0.01637326       0.01484224
O        2.35698615      12.60365175       5.22215765      -0.00524104       0.01508858       0.00180537
O        2.62461009      10.79778602       3.95419514       0.00378767       0.02798483      -0.01227464
O        3.86498072      12.63838451       3.55517011      -0.01773322       0.04331625      -0.01287639
C        1.58318599      11.56364246       5.87191311       0.01369864       0.00161479       0.00180912
C        1.46927777      10.52070950       4.78335954       0.01672533       0.00779748      -0.00315940
C        3.02211614      12.06221076       4.18320616      -0.01652086       0.02447948      -0.00153944
H        0.61448431      11.96695661       6.14869455       0.01087874      -0.01252517       0.01405455
H        2.13234119      11.21134085       6.74393672       0.02499688       0.00357585      -0.00444505
H        1.53586583       9.50507645       5.15087496       0.03296060       0.00592515      -0.01028383
H        0.56855196      10.64240779       4.18521497       0.00875214      -0.00168428       0.00669429
O        7.42064240       9.59793898       7.64220000       0.00351748      -0.00931826       0.00115947
O        7.60325041      11.33264343       9.02145098       0.01170766      -0.00586739      -0.00455049
O        9.18141896      10.99587338       7.46549146       0.01361990      -0.02148339       0.00027555
C        6.19764335       9.58403500       8.40227868       0.00263306       0.00104952      -0.00024414
C        6.43926834      10.63002637       9.48952293       0.01006490      -0.00069755      -0.00103259
C        8.16178534      10.66762456       7.99443228       0.00908965      -0.01326934      -0.00028807
H        6.05204931       8.58288390       8.79568626      -0.00622277       0.00270981       0.00004238
H        5.37473398       9.83926909       7.73467779       0.00570342       0.00737005      -0.00130919
H        5.63066001      11.34976204       9.58912972       0.01369360       0.00278336       0.00160519
H        6.69497213      10.18134680      10.44568944       0.01079534      -0.00162587      -0.00169259
O       10.17313673      11.16665829      11.06949556       0.00746265       0.00558203       0.01693915
O       10.17846331       9.40207816       9.72794496       0.00606105       0.00285307       0.02104568
O        8.69932396       9.50932196      11.40992716       0.00478673       0.00943148       0.01813954
C       11.16643123      11.47693615      10.06729575       0.00518855       0.00297999       0.01432085
C       11.34492222      10.15723997       9.32866926       0.00920057      -0.00074029       0.02335232
C        9.61498648       9.99410738      10.78803024       0.00475764       0.00555438       0.01918867
H       12.07341017      11.78866948      10.57780271       0.00458616       0.01042864       0.01047662
H       10.75881321      12.26702312       9.43658420       0.00088939      -0.00294158       0.01020661
H       11.31569134      10.26008941       8.24807268       0.01616192      -0.00723039       0.02300680
H       12.21948921       9.61667126       9.67222312       0.00616115       0.00024343       0.03203228
O        7.81121936       5.25752219       7.79213825      -0.01214215       0.01474357      -0.00359060
O        8.55072279       6.95579407       9.01118412      -0.00393412       0.00459252       0.00458282
O        6.42418715       6.27661836       9.24667311       0.00016177       0.00345955       0.01143622
C        9.24033200       5.25257413       7.64315815      -0.01296898       0.01444364      -0.01059186
C        9.60870803       6.66346458       8.07499748      -0.00997835       0.01105464      -0.00400245
C        7.49633496       6.16728483       8.72526397      -0.00773507       0.00776509       0.00622314
H        9.47397063       5.00815449       6.61028033      -0.01808695       0.02037854      -0.01269805
H        9.64421644       4.48158312       8.30642703      -0.01119219       0.01040235      -0.01692241
H       10.55616866       6.76087703       8.59495524      -0.00674671       0.00745596      -0.00968093
H        9.54597961       7.38963722       7.26162215      -0.01553464       0.01638186       0.00162312
O        3.97760692      11.41022937       0.32756472      -0.01111075      -0.00904486      -0.01346886
O        4.17286877       9.26003663      -0.19675491      -0.00272453      -0.00968638      -0.00566587
O        2.75488082      10.56413904      -1.36670276       0.00157130      -0.01698497      -0.01723135
C        5.13844711      10.95878585       1.06125046      -0.01872224      -0.00538272      -0.00074914
C        5.04027009       9.44742528       0.93636682      -0.01295210      -0.00564319       0.00083190
C        3.54821933      10.43528676      -0.48408300      -0.00395638      -0.01282977      -0.01265854
H        5.05726943      11.32075319       2.08251018      -0.02909358      -0.00360698      -0.00256222
H        6.02998085      11.35862924       0.58034176      -0.01496810      -0.00411165       0.00843957
H        5.99399792       8.96989347       0.72657328      -0.01021215      -0.00324327       0.00983316
H        4.57587552       9.00331437       1.81627560      -0.01884434      -0.00533926      -0.00264257
O        6.65905290       3.31482607       1.29010979      -0.00578600      -0.00173610      -0.00435752
O        5.51727159       2.01761959      -0.11031049       0.00111979      -0.01309397       0.00140847
O        7.68186030       1.56708357       0.28936079      -0.00082362      -0.00827396       0.01323226
C        5.27763710       3.67895901       1.46242442      -0.00648671      -0.00157723      -0.01280272
C        4.62693461       3.09232812       0.21815102      -0.00112191      -0.01174306      -0.01056206
C        6.70925511       2.23668570       0.45341875      -0.00151640      -0.00758207       0.00438794
H        5.21825552       4.76390588       1.52659120      -0.00708333      -0.00146598      -0.02105949
H        4.91041947       3.21867891       2.38245699      -0.00996780       0.00541845      -0.01104259
H        3.63995200       2.67180481       0.39405939      -0.00104246      -0.01187693      -0.01138165
H        4.61615789       3.79001865      -0.62229515       0.00141218      -0.01875654      -0.01593676
O       10.86136827       5.92133758      -0.82211879      -0.00236720       0.00260390      -0.00528900
O        9.80344510       4.27002211       0.21299564      -0.00046960       0.00078332      -0.00724301
O       11.68489084       3.83581108      -0.94574633      -0.00072557       0.00261527      -0.00947700
C        9.87139288       6.57428955       0.02093048      -0.00120486       0.00054663      -0.00271094
C        8.93548742       5.42550478       0.33608588      -0.00064391       0.00009514      -0.00451247
C       10.85024384       4.61076174      -0.55864933      -0.00293890       0.00408396      -0.00653833
H        9.41693975       7.37969386      -0.54168024      -0.00151953       0.00185502      -0.00025287
H       10.39606807       6.97858736       0.88822180      -0.00018606      -0.00175948      -0.00253987
H        8.53262668       5.43867239       1.34611935      -0.00027979      -0.00184088      -0.00443760
H        8.12181065       5.31498595      -0.38128777      -0.00091219       0.00135430      -0.00415495
O       11.36447037       1.28750576       3.20015809      -0.00009399      -0.00824893      -0.01185778
O        9.40521082       2.10059062       3.87098288       0.01754522       0.01614699       0.00758222
O       10.37333223       0.44220809       5.03673900       0.01518755       0.01311833       0.00524455
C       11.13506873       2.44782364       2.37422558       0.00232410      -0.00999768      -0.01394993
C        9.65515967       2.71393136       2.58670046       0.00827610       0.00620607       0.00145367
C       10.37344955       1.20931910       4.12314589       0.01155577       0.00742006       0.00089478
H       11.39435755       2.20944716       1.34724829      -0.01144594      -0.01516704      -0.01591730
H       11.77036340       3.25247845       2.75506798       0.01435973      -0.01592895      -0.02312814
H        9.39886970       3.76472920       2.67237955       0.02058213       0.00919017      -0.00207136
H        9.03042109       2.23469110       1.83517431      -0.00482279       0.00850639       0.01131663
O        7.36308156       2.35335191       6.91160451       0.00571525       0.00636765       0.00811976
O        5.58750023       1.39699836       7.85149781       0.00451809       0.00820252       0.00622177
O        6.86760189       2.80237749       9.06309610       0.00278258       0.00734997       0.00442982
C        6.86967160       1.43030172       5.91875172       0.00812256       0.00462798       0.00903615
C        5.49572382       1.06134679       6.45547592       0.00718200       0.00544667       0.00701463
C        6.62514839       2.23973240       8.03869496       0.00481848       0.00825548       0.00804740
H        7.56004507       0.58991432       5.85601765       0.00822011       0.00461036       0.01175568
H        6.82673569       1.94137360       4.95986925       0.01017715       0.00289908       0.00818670
H        4.69947552       1.65640364       6.01531660       0.00791460       0.00446784       0.00435974
H        5.27530121       0.00193167       6.35196321       0.00752073       0.00533712       0.00871574
O        7.24883381       9.04487681       3.00463666      -0.00386757      -0.00337638       0.00335830
O        8.39184301       9.80716787       4.74705306      -0.01140806       0.02775553      -0.00713547
O        6.17407322      10.14545485       4.64265608      -0.01485229       0.01514757      -0.01273155
C        8.60470881       8.58254845       2.78397007      -0.00139374       0.00176704       0.01078126
C        9.40191893       9.36844434       3.81224315      -0.00680614       0.01375818       0.00514522
C        7.19262223       9.70839320       4.18133144      -0.00127691       0.00983703      -0.01003185
H        8.87447623       8.80988301       1.75767161       0.00080115      -0.00543140       0.00952822
H        8.62366267       7.50523683       2.96275388       0.00347947       0.00308463       0.01888192
H       10.14516022       8.78325110       4.34090055      -0.01055288       0.01908424       0.01753809
H        9.88052544      10.24389490       3.38562362      -0.00075077       0.00648639      -0.00341226
