149
Lattice="12.016883488925712 0.0 0.0 0.0 12.016883488925712 0.0 0.0 0.0 12.016883488925712" Properties=species:S:1:pos:R:3:forces:R:3 energy=-211504.890625 stress="-0.003916328772902489 0.0018981851753778756 0.0006399559206329286 0.0018981851753778756 -0.00403473200276494 -0.0020264352206140757 0.0006399559206329286 -0.0020264352206140757 -0.004916459787636995" pbc="T T T"
N        9.21918611       9.93359256       3.84551547      -0.00384831       0.00297768      -0.01196259
N        7.32725038      10.69051625       3.12987961       0.00655907       0.00865695      -0.01496638
C       10.63437979       9.55225129       3.90825823      -0.00351578      -0.00087361      -0.00352874
C       10.85346375       8.13679012       3.38932305      -0.00119531       0.00141245      -0.00512847
C       10.59105907       7.98492815       1.89586512       0.00410874       0.00327912      -0.00558349
C        8.64104928      10.66401786       2.88814432       0.00162995       0.00441140      -0.00599784
C        8.25420237       9.48751021       4.71541803       0.00088641      -0.00540259      -0.00923657
C        7.06215969       9.96101553       4.26446969      -0.01475143       0.00715560      -0.01912749
C       10.88298377       6.57757767       1.39454688       0.00183385       0.00336629      -0.00549431
C        6.34370834      11.39587141       2.31142536       0.00801510       0.01270625      -0.01669964
H       11.19252799      10.27878082       3.32078480       0.00019671       0.00100791      -0.00112951
H       10.93971760       9.64580210       4.95218896      -0.00765085      -0.00153267      -0.00271928
H       10.23756992       7.42752438       3.95561396      -0.00415467       0.00122921      -0.00840162
H       11.89874778       7.89985142       3.59949702      -0.00296888       0.00063235      -0.00103603
H        9.55009986       8.23727740       1.66912830       0.00594953       0.00651395      -0.00944990
H       11.19954658       8.70469712       1.34083216       0.00819114       0.00210097      -0.00236681
H        9.13521659      11.17711800       2.07083955       0.00978053       0.00969837      -0.00642280
H        8.50657771       8.89861969       5.57805268      -0.01350387      -0.00185983      -0.02135675
H        6.06219395       9.84822169       4.64600295      -0.00073877       0.00632273      -0.02476055
H       10.21795240       5.84562290       1.86231015      -0.00061382       0.00504494      -0.00676569
H       11.91014740       6.28445439       1.62797150       0.00046727       0.00108247      -0.00358168
H       10.75420909       6.52500606       0.31197669       0.00372331       0.00368658      -0.00524786
H        6.17056552      10.86062933       1.37787703      -0.00242665       0.00534150      -0.01065603
H        5.41219593      11.43260815       2.87111103       0.01214029       0.03146748      -0.01289307
H        6.69585445      12.40529688       2.11864588       0.02205527       0.00642017      -0.02761695
Cl      11.18466745      11.46778149       0.33035227       0.00578082       0.00829387      -0.00701493
O       11.94846020      12.41037019      -0.52977260       0.01043320       0.01250315       0.00269723
O        9.73015548      11.78293998       0.18272113       0.00738549       0.01073271      -0.01094472
O       11.53746143      11.75871063       1.76234031       0.00025234      -0.00149655      -0.00407887
S        5.48332600       8.12431295       8.97302698       0.00050368       0.00776076      -0.00377393
O        6.02080202       8.50357568      10.30890233       0.01195884      -0.00033408      -0.00685763
C        5.04049050       9.65835435       8.13815462      -0.00483289       0.01240098       0.00916155
C        3.79961941       7.51186135       9.22100911       0.00239658       0.00756100       0.00629593
H        5.96179758      10.22655469       8.02543568      -0.00636826       0.01409627       0.00914937
H        4.32377415      10.23946171       8.71378466      -0.00305174       0.00641502       0.01683797
H        4.65156890       9.42789546       7.14550892      -0.00844658       0.01954455       0.00945002
H        3.39052355       7.20836146       8.25795054      -0.00497913       0.01282398       0.00835421
H        3.19260614       8.27023380       9.71664138       0.00739987       0.00540709       0.01467527
H        3.88804498       6.62080761       9.83782206       0.00705843       0.00488385       0.00100579
S        2.70984403       9.03430613       4.94340470      -0.00116181       0.00410503       0.00485945
O        1.76775718       9.48598467       3.87140763       0.00057852       0.00059637       0.00235963
C        2.50055053       7.25530180       5.10300648       0.00117233       0.00469410       0.00791931
C        1.92455243       9.52882284       6.49302218      -0.00481218       0.00527953       0.00205332
H        2.91008856       6.82041321       4.19520538       0.00262924       0.00362017       0.00962943
H        1.44328796       7.02198478       5.21976034       0.00161977       0.00386088       0.00700765
H        3.08826591       6.88302926       5.94186091       0.00027727       0.00744540       0.00929774
H        2.34395576       8.98080996       7.33342715      -0.00391181       0.00908194       0.00367251
H        0.85879077       9.32413008       6.39873991      -0.00382921       0.00193265       0.00182707
H        2.10482864      10.59522005       6.62248467      -0.00779833       0.00573739      -0.00094874
S        4.28125937       1.17397793       9.29552413      -0.00177903      -0.00138129      -0.02281547
O        4.16235988       0.65627777       7.89718207       0.01907837       0.01434642      -0.02985394
C        3.72417517       2.88773679       9.26918659      -0.00388394      -0.00212145      -0.00965862
C        6.02883532       1.53817122       9.56580059      -0.00680518      -0.00194803       0.00724673
H        2.63805303       2.87022941       9.20704479      -0.00247161      -0.00287315      -0.02486509
H        4.16517873       3.40231394       8.41580827       0.00730447       0.00848597       0.00318152
H        4.03864477       3.37213079      10.19297834      -0.01743125      -0.01403234       0.00059099
H        6.14522795       2.06220325      10.51383131      -0.02114390      -0.01599462       0.01632327
H        6.38591518       2.13675219       8.72575075       0.00285899       0.01025434       0.02085206
H        6.55212325       0.58517675       9.61495298      -0.00591453      -0.00126323       0.00017521
S       10.15674778       9.52356711       8.96996065       0.01620638       0.00734036      -0.01227522
O       11.02315905       8.97744355      10.05720397       0.02069163       0.00250220      -0.01884162
C       10.89349021      11.10158581       8.49199554       0.00357360       0.01657921       0.00128641
C        8.65571478      10.19302666       9.68826035       0.01287007      -0.01162234      -0.00327048
H       11.87843421      10.87507656       8.08896981       0.00365493       0.02733593      -0.00363316
H       10.99378660      11.73823736       9.37155314       0.00086059       0.00956598       0.00598288
H       10.27669275      11.56528854       7.72272821      -0.00193726       0.01859161       0.00749817
H        8.11708694      10.70455442       8.88732011       0.00611932      -0.00917848       0.00339328
H        8.91497504      10.88100218      10.49379116       0.00894487      -0.01628484       0.00132537
H        8.05494333       9.36192051      10.05437209       0.02113044      -0.01961248      -0.00913470
S       12.31745485       5.31805899       7.52248803      -0.00633204      -0.01315618       0.00106788
O       11.54928629       4.38951466       6.64502285      -0.01287282      -0.01302493       0.00736666
C       11.81648291       4.98588825       9.22596343       0.00005263      -0.00731161       0.00351673
C       11.48853600       6.91673391       7.44414817      -0.00065452      -0.01102811       0.00019954
H       12.18992337       4.00043825       9.49810053      -0.00652329      -0.00978166       0.00181389
H       10.72859700       5.01604420       9.26417533       0.00080144       0.00198079       0.00971111
H       12.23038654       5.75523153       9.87846694       0.01030020      -0.01058481       0.00020817
H       11.94608128       7.59467555       8.16485575       0.00201346      -0.01194442      -0.00121301
H       10.43673266       6.77962281       7.69373335      -0.00052884      -0.00722311       0.00176220
H       11.59448778       7.29225942       6.42786934      -0.00083204      -0.01229603       0.00011311
S        3.41936059       9.39283746       1.36128087       0.00085926      -0.00164045       0.00066423
O        4.44922523       9.51644896       0.28741923      -0.00241220      -0.01145539      -0.00321472
C        2.74125866       7.71305574       1.26757747       0.00144628      -0.00195682       0.01702285
C        1.95141396      10.20257034       0.75143851      -0.00014156      -0.00601694      -0.00214535
H        3.46699734       7.02403205       1.69613731       0.00217301       0.00268284       0.02248655
H        2.55715219       7.49202483       0.21491984       0.00094830      -0.01113642       0.01940742
H        1.81780100       7.68197665       1.84129482       0.00246465       0.00297372       0.01819783
H        1.18187934      10.14695579       1.51549778       0.00281745       0.00372602       0.00102544
H        1.63248562       9.74598854      -0.18724556      -0.00445320      -0.01569121       0.00448015
H        2.19855520      11.24662101       0.57794955       0.00156096      -0.00889950      -0.01458757
S        9.71268856       2.88856349       2.56570714      -0.00594753      -0.00227022       0.00716507
O        8.92967637       1.61480191       2.64615491      -0.00611955      -0.00229931       0.00178511
C       10.85906482       2.69761340       1.18884457      -0.00341636       0.00087374       0.00977999
C       10.98977663       2.85756703       3.83794383      -0.00875425      -0.00717276       0.00890082
H       10.29019232       2.35993837       0.32969716      -0.00114819       0.00222734       0.00822882
H       11.57393644       1.91756035       1.43050699      -0.00406677       0.00087994       0.01024874
H       11.33164315       3.66276908       0.99730168      -0.00322174       0.00098034       0.01274225
H       11.71730193       3.64128354       3.62290878      -0.00789422      -0.00757160       0.01235214
H       11.46084976       1.87399069       3.80953195      -0.00981847      -0.00723492       0.00640273
H       10.52674723       3.06139663       4.79667725      -0.00985745      -0.00961998       0.00840674
S        7.42527691       2.36189314       5.84940935      -0.00706732      -0.00712240       0.00262856
O        8.18093520       3.36026807       5.02951439      -0.00901246      -0.00515497       0.00394595
C        8.27988990       0.80356575       5.62215114       0.00007787      -0.00344443       0.00581080
C        5.89618854       1.99874723       4.99061481      -0.00238806      -0.01392181      -0.00141782
H        9.23303806       0.90798773       6.13868974      -0.00173397       0.00173503       0.00737043
H        8.45056405       0.67997041       4.55255310       0.00238109      -0.00403190       0.00677767
H        7.69493167      -0.00027142       6.06531169       0.00327399      -0.00558853       0.00553596
H        5.35700584       1.23991979       5.55932567      -0.00058105      -0.01534609      -0.00237915
H        6.09615096       1.71247548       3.95906381       0.00251155      -0.01275446      -0.00034317
H        5.32912201       2.93030700       5.00866876      -0.00635581      -0.01674448      -0.00308826
S        3.51487786       2.59656371       2.23921432      -0.00623488      -0.00059921      -0.00802505
O        4.90003802       2.25533897       1.78031498      -0.00500071       0.00416291      -0.00597352
C        2.83731670       1.12089361       3.02787240      -0.00221255      -0.00130033      -0.00736442
C        2.48712890       2.54814286       0.76490602      -0.00468901      -0.00558034      -0.00822800
H        3.27156532       1.05173841       4.02340213       0.00007683      -0.00132206      -0.00872742
H        3.10967621       0.25115373       2.43174209      -0.00328769      -0.00070858      -0.00807878
H        1.75352605       1.19890014       3.10077343      -0.00174317      -0.00200349      -0.00478915
H        1.44205355       2.66437529       1.03677430      -0.00571975      -0.01631934      -0.00920861
H        2.63862201       1.60323879       0.24370665       0.00426783      -0.00292879      -0.00951958
H        2.80267480       3.38380863       0.14350282      -0.01227506      -0.00160293      -0.00601167
S        6.49615717       6.49053943       3.23938660       0.00361204       0.01209661       0.00004460
O        5.12425682       6.42768738       3.85111081       0.00455308       0.02417587       0.00241524
C        6.33774816       7.51978456       1.78213422       0.00721918       0.00395575      -0.00527847
C        6.79980337       4.91172267       2.46138953      -0.00663664       0.00622690       0.00876245
H        5.95322076       8.47445894       2.12740114       0.01283695       0.00771159      -0.01077265
H        5.63081646       7.09732057       1.07293958       0.00388801       0.00363930      -0.00114416
H        7.30791371       7.66094358       1.31056572       0.00716288      -0.00444868      -0.00711435
H        7.68010148       5.01255832       1.82752697      -0.00712828      -0.00230599       0.00724947
H        5.92273399       4.59816456       1.89789494      -0.00842166       0.00824418       0.01100386
H        7.02244167       4.19940271       3.25460575      -0.00984241       0.00923572       0.01190150
S        8.08405293       5.90031243      11.27127737       0.00326794      -0.00586540       0.00297332
O        8.61971523       6.64295393      10.09222116       0.00758219      -0.00812185       0.00371063
C        8.74234744       4.22321084      11.17556710      -0.00237460      -0.00719541       0.00391977
C        6.36800928       5.42860858      10.96256860       0.00240546       0.00114247       0.00215615
H        9.82061933       4.30209545      11.27310291      -0.00241600      -0.00966195       0.00371715
H        8.47877409       3.78056526      10.21707284      -0.00338428      -0.00685482       0.00457247
H        8.33903334       3.63047512      11.99641566      -0.00369966      -0.00532322       0.00404328
H        6.09927179       4.64964119      11.67550913      -0.00161939       0.00529459       0.00472686
H        6.25901762       5.09277340       9.92945295       0.00141243      -0.00201064       0.00379586
H        5.77865625       6.32715993      11.12224803       0.00669947       0.00434378      -0.00191355
S        6.62498505       5.17111410       6.84687811      -0.00239921      -0.00038207       0.00375021
O        5.58233920       5.22680421       7.92716460      -0.00192833       0.00745939       0.00325048
C        8.20121599       4.79601458       7.63799090      -0.00598049      -0.00904325       0.00530940
C        7.12268154       6.85069725       6.41363026       0.00805926      -0.00396413       0.00340685
H        8.12263136       3.79314333       8.05094725      -0.01202536      -0.00812558       0.00550121
H        8.37761592       5.53419654       8.42135085      -0.00304019      -0.00992173       0.00497341
H        8.98331523       4.79330561       6.88014331      -0.00484274      -0.01335802       0.00704800
H        7.89744327       6.73556261       5.65716319       0.00927700      -0.00857109       0.00570016
H        7.49529423       7.36351624       7.29896796       0.00871934      -0.00581417       0.00375888
H        6.26192626       7.35167747       5.97512633       0.01196486       0.00052914       0.00171081
