144
Lattice="11.496301462689638 0.0 0.0 0.0 11.496301462689638 0.0 0.0 0.0 11.496301462689638" Properties=species:S:1:pos:R:3:forces:R:3 energy=-71020.3671875 stress="-0.001262194593437016 -0.0007475114252883941 -0.0005972233193460852 -0.0007475114252883941 -0.002131447894498706 -0.00045910086191724986 -0.0005972233193460852 -0.00045910086191724986 -0.00162596651352942" pbc="T T T"
N        4.95089605       5.16851254       3.16406922       0.00332355      -0.00157338      -0.00052080
N        5.94792543       3.51822958       2.17223298      -0.00150725      -0.00542122       0.00196859
C        4.15353404       5.92268673       4.14301188       0.00361755       0.00148699      -0.00308758
C        2.69655910       6.12688295       3.76663593       0.00311121      -0.00117475      -0.00237401
C        1.81714765       4.90091336       3.94064786       0.00250036       0.00075322       0.00736931
C        4.97551482       3.84071091       3.02383513      -0.00217652      -0.00140828      -0.00072014
C        5.94013431       5.70774230       2.36880638       0.00790811      -0.00584370       0.00243983
C        6.56492393       4.67143194       1.74536569       0.00495738      -0.00832427       0.00391853
C        0.35698184       5.19904134       3.62307100       0.00209895       0.00085165       0.01019279
C        6.32674786       2.16718196       1.77184568      -0.00768752      -0.00670165       0.00159265
H        4.24288314       5.39721703       5.09658799       0.00474956       0.00557119      -0.00107321
H        4.65515438       6.88306796       4.23696638       0.00277634       0.00217721      -0.00730788
H        2.63671037       6.48951385       2.73874182       0.00160922      -0.00799832      -0.00462380
H        2.32369330       6.94666071       4.38749921       0.00417324       0.00288881      -0.00747679
H        2.17785236       4.10697745       3.28495177      -0.00089023      -0.00376260       0.01116544
H        1.90940852       4.52704473       4.96671377       0.00518498       0.00694307       0.00919247
H        4.34186622       3.14784155       3.54265796      -0.00722431       0.00127254      -0.00369908
H        6.12398990       6.76757920       2.33905808       0.01290066      -0.00683082       0.00350595
H        7.40220637       4.63303855       1.06978251       0.00695484      -0.01264176       0.00667858
H        0.24524772       5.56320383       2.59944537      -0.00059800      -0.00417542       0.00887270
H       -0.03727447       5.97281626       4.28733805       0.00499974       0.00438745       0.00753443
H       -0.27166423       4.31328952       3.72151724       0.00147884       0.00222394       0.01646191
H        6.07604935       1.48181791       2.57852346      -0.00235062      -0.00474696       0.00483692
H        5.79170925       1.87858373       0.86885583      -0.01525949      -0.00718064       0.00646076
H        7.39939296       2.14285019       1.57186112      -0.00970721      -0.00819241      -0.00662904
N        9.31904552      13.56982064       0.66729043      -0.00934351       0.04280531      -0.01327407
C        9.56172519      12.42866320       0.78001113      -0.01062383       0.03350365      -0.00938596
O        5.31282096       3.40213552       5.91398288       0.00449830      -0.00061654      -0.00293444
C        7.53040118       2.64036570       5.62964192       0.00454825      -0.00096239       0.00025341
C        6.76452479       1.60390359       6.44798186       0.00327638      -0.00056261      -0.00069311
C        6.66509567       3.87485857       5.83319289       0.00456643      -0.00091872      -0.00123465
C        5.32065851       1.97554414       6.14679815       0.00399765      -0.00052957      -0.00330311
H        8.55948500       2.78562132       5.95781072       0.00403410      -0.00111895       0.00158526
H        7.55266668       2.35629796       4.57359186       0.00572667      -0.00096355       0.00040138
H        6.97496207       0.57344340       6.17313784       0.00396786      -0.00055733       0.00018041
H        6.98644279       1.72240922       7.51119269       0.00141466      -0.00022738      -0.00046724
H        6.91713499       4.38803298       6.76711046       0.00325900      -0.00089951      -0.00093418
H        6.74042299       4.60041556       5.01835216       0.00575390      -0.00125334      -0.00117096
H        4.96955596       1.45934763       5.24494276       0.00565660      -0.00014219      -0.00405037
H        4.62327046       1.74733548       6.95324164       0.00258377      -0.00066578      -0.00472879
O        8.22323487       9.26703512       3.69885288      -0.00428191      -0.00964453      -0.00033981
C       10.10935928      10.66263680       4.10681753      -0.00810343       0.00009084      -0.01196457
C       10.34105646       9.28252817       4.72003391      -0.00079617       0.00268550      -0.00913805
C        8.60825415      10.65267144       3.84450982      -0.00827724      -0.00694284      -0.01144959
C        9.36531914       8.43765974       3.91612703       0.00060835      -0.00309298      -0.00415397
H       10.41368233      11.48281349       4.75733895      -0.01154427       0.00290526      -0.01410332
H       10.64824243      10.76658006       3.16372406      -0.00912078       0.00064224      -0.01228794
H       11.37327439       8.94195785       4.63412179       0.00027823       0.00694539      -0.01146946
H       10.06007609       9.28025315       5.77833203       0.00262864       0.00373732      -0.00842085
H        8.04946179      11.06081620       4.69373436      -0.01012509      -0.00218545      -0.01519215
H        8.34963651      11.19839509       2.93506277      -0.00986055      -0.01384425      -0.01497066
H        9.80539717       8.15082619       2.95116423      -0.00155671      -0.00232624      -0.00531894
H        9.03504653       7.52992792       4.42852458       0.00700144      -0.00386855      -0.00187963
O        2.54585967       9.09487236       8.92666509      -0.00330660      -0.00187981      -0.00331339
C        1.01408083       7.96009083       7.58544980       0.00274473      -0.00224638      -0.00974965
C        2.22098185       7.04174625       7.76123721       0.00299796      -0.00093544      -0.00615016
C        1.64722596       9.31644873       7.83798630       0.00009596      -0.00188994      -0.00588813
C        2.96625825       7.71759341       8.90854337      -0.00165287      -0.00117710      -0.00327939
H        0.53904405       7.88156729       6.60864415       0.00692365      -0.00162661      -0.01177008
H        0.26738259       7.74296182       8.35408151      -0.00008279      -0.00410362      -0.01318839
H        1.95850100       6.01660470       8.00849897       0.00333868      -0.00131983      -0.00763173
H        2.82289224       7.04357008       6.84807831       0.00612645       0.00025791      -0.00394540
H        2.20243618       9.66032368       6.95307154       0.00244713       0.00002952      -0.00341201
H        0.94577269      10.09701363       8.13639849      -0.00198540      -0.00336349      -0.00728288
H        2.70647495       7.25979281       9.86134335      -0.00407143      -0.00235647      -0.00459808
H        4.05410175       7.67039400       8.80012330      -0.00139087       0.00015084       0.00018296
O        7.39179389       9.95405047      10.11205292      -0.00235415       0.00223163       0.00609567
C        9.73186318       9.80653810       9.73556941      -0.00206107       0.00502355       0.01086602
C        9.37768915       9.06768393      11.02557717      -0.00279993       0.00994701       0.01325768
C        8.49833864      10.67793642       9.53510338      -0.00248516       0.00316742       0.00707892
C        7.88940420       8.82362292      10.82932196      -0.00161165       0.00566684       0.01060575
H       10.63828399      10.40389505       9.82572756      -0.00243513       0.00565775       0.00826217
H        9.85197424       9.10373699       8.90382071      -0.00156273       0.00119133       0.01420501
H        9.93599977       8.14141302      11.17061227      -0.00096861       0.01218069       0.01855789
H        9.54324212       9.73710813      11.87287511      -0.00628138       0.01352429       0.01095864
H        8.60590258      11.62723410      10.06236073      -0.00434104       0.00425422       0.00555769
H        8.27771100      10.86961024       8.48063412      -0.00094892       0.00128568       0.00662851
H        7.71872917       7.90812642      10.23806603       0.00256930       0.00357834       0.01293966
H        7.33500768       8.73670460      11.76729981      -0.00386342       0.00647522       0.00925317
O       11.28963404       4.85026782       8.50184034       0.00434107      -0.00494356       0.00565793
C        9.62804855       5.54810324       6.97351971       0.00373974       0.00098434       0.00885299
C        8.96299986       5.15944530       8.29350042       0.00369447      -0.00057435       0.00612823
C       10.97066433       4.84173669       7.10780303       0.00133881      -0.00423570       0.00674790
C       10.13731069       5.25618358       9.25568940       0.00356936      -0.01183919       0.00843510
H        9.07834676       5.23713359       6.08532258       0.00125197       0.00239686       0.01015940
H        9.76496401       6.63245850       6.92623485       0.00554638      -0.00068146       0.01154875
H        8.12925096       5.80477472       8.57194741       0.00489745      -0.00216238       0.01220079
H        8.60129750       4.12902442       8.24935928      -0.00290027      -0.00130105      -0.00663153
H       10.90034172       3.80251703       6.75908491      -0.00233339      -0.00406349       0.00662702
H       11.77844917       5.33041313       6.56047685       0.00086543      -0.00643879       0.00486462
H       10.27386448       6.29498593       9.58851092       0.00426638      -0.01433277       0.01597183
H       10.04712283       4.61014907      10.12976754       0.00376467      -0.01683715       0.00448927
O        3.82513982       4.99142820       9.75093728       0.00113931       0.00027147      -0.00087801
C        5.75138198       3.58837745       9.59234401      -0.00020427      -0.00196892       0.00269119
C        4.50125252       2.77862315       9.94562963      -0.00237975      -0.00047487      -0.00163448
C        5.24997819       5.04258097       9.64184721       0.00101265      -0.00138858      -0.00054144
C        3.39983275       3.67104073       9.40411132       0.00032571       0.00147557      -0.00356278
H        6.59257848       3.40269117      10.26207021      -0.00306724      -0.00230188       0.00612292
H        6.07867457       3.34647321       8.58208107       0.00362102      -0.00309798       0.00436914
H        4.50410842       1.77433042       9.51996037      -0.00260358       0.00018691      -0.00289595
H        4.36909574       2.70136166      11.02473754      -0.00522528      -0.00168773      -0.00216818
H        5.62264041       5.59470811      10.50905893       0.00118747       0.00028276      -0.00180632
H        5.53342281       5.59566677       8.73601825       0.00170392      -0.00387773      -0.00167680
H        3.30955536       3.57860823       8.31147747       0.00342028       0.00285681      -0.00379819
H        2.42269294       3.51061074       9.85784934      -0.00123262       0.00245177      -0.00683850
O        4.95574298      10.39899618       6.31691463      -0.00165775       0.00144327       0.00241352
C        6.43930078       8.88328096       7.35953980       0.00674587       0.00581136      -0.00561029
C        5.75549907       8.16979330       6.19855835       0.00444514       0.00366706      -0.00273415
C        5.49811146      10.05149016       7.60621676       0.00188762       0.00019848       0.00022783
C        5.20878419       9.34067359       5.38468435      -0.00600903       0.00152045       0.00139255
H        6.55930897       8.26321406       8.24606266       0.01500482       0.00562556      -0.00692761
H        7.42892155       9.23534504       7.05436727       0.00287777       0.01161085      -0.01069677
H        6.43631171       7.54449220       5.61939208       0.00468184       0.00826924      -0.00717174
H        4.94420862       7.54087221       6.57358830       0.00991735      -0.00113402       0.00069933
H        4.67814329       9.77744110       8.27533414       0.00471908      -0.00605746       0.00094011
H        5.99634588      10.92682708       8.02224016      -0.00205228       0.00142831       0.00187205
H        5.95331701       9.66846465       4.65032154      -0.01335648       0.00397518      -0.00463048
H        4.27451666       9.11404909       4.86107311      -0.00914139      -0.00203454       0.00876039
O        2.24629041       9.06760582       2.79674731       0.00164971      -0.00095061      -0.00257313
C        3.03117363       9.14789983       0.56194259       0.00236607       0.00081840      -0.00181907
C        1.81382863       8.22548809       0.62659142       0.00331544      -0.00022554      -0.00304312
C        3.44263032       9.22167792       2.02423017       0.00199798      -0.00096726      -0.00188315
C        1.17119523       8.66171948       1.93344120       0.00266889      -0.00244902      -0.00283980
H        3.83061609       8.78064246      -0.07884068       0.00257504       0.00226593      -0.00218692
H        2.73143936      10.12503655       0.18345905       0.00163209       0.00104868      -0.00038557
H        1.14840851       8.34606774      -0.22699021       0.00354744       0.00000288      -0.00304654
H        2.12361021       7.17738260       0.67123870       0.00437185       0.00023058      -0.00419883
H        4.13481480       8.40470936       2.27334704       0.00134659      -0.00154176      -0.00269593
H        3.92420417      10.16177861       2.30457128       0.00214483      -0.00157431      -0.00050637
H        0.49924074       9.51128539       1.77222550       0.00133488      -0.00352621      -0.00204800
H        0.61027284       7.87054425       2.43483543       0.00400631      -0.00376531      -0.00369598
O        2.73154141       2.55267473       1.26660086      -0.00091198      -0.00087640       0.00677517
C        1.61509932       0.62664361       2.12285376      -0.00895748       0.00014842      -0.00273054
C        0.82221335       1.89330380       2.42862788      -0.00738907       0.00100090      -0.00283474
C        2.95961897       1.18831196       1.65912287      -0.00560752      -0.00164831       0.00594299
C        1.30596297       2.77306618       1.29649652      -0.00031540       0.00304833       0.00208008
H        1.72048345      -0.05643800       2.96322344      -0.01432117      -0.00253007      -0.00447959
H        1.11723550       0.09301518       1.31105139      -0.00596750       0.00371857      -0.00681314
H       -0.25292296       1.74226081       2.40842725      -0.00745827       0.00343349      -0.00815934
H        1.12382381       2.30316598       3.39630115      -0.01080793      -0.00235844      -0.00046720
H        3.69291596       1.18594940       2.47357041      -0.01045060      -0.00440092       0.01017371
H        3.39467001       0.63652930       0.81869674      -0.00171024      -0.00092062       0.00772759
H        0.84408848       2.45244369       0.35549667       0.00268026       0.00772020      -0.00075257
H        1.14232787       3.84193933       1.41487070       0.00230566       0.00297832       0.00501612
