148
Lattice="16.67879263764318 0.0 0.0 0.0 16.67879263764318 0.0 0.0 0.0 16.67879263764318" Properties=species:S:1:pos:R:3:forces:R:3 energy=-1261129.875 stress="-0.00031903208582662046 -0.0001857949173427187 0.00010587715223664418 -0.0001857949173427187 0.0002483778225723654 6.943518746993504e-05 0.00010587715223664418 6.943518746993504e-05 -0.0005214936099946499" pbc="T T T"
N        5.99404479       6.48085782       6.10776858       0.00644296       0.00241794      -0.00033626
N        7.81533754       6.60851940       4.93959222      -0.00479460       0.00168975      -0.00592411
C        4.94943258       5.98340071       7.01417353       0.00759875       0.00545545       0.00485873
C        3.66405858       5.57382452       6.30855985       0.00720626       0.00070938       0.00929988
C        3.77152549       4.30548611       5.46672578       0.00717449       0.00226873       0.00782967
C        7.09515704       5.82177012       5.74537998      -0.00452691       0.00509226      -0.01115018
C        6.01164162       7.72618206       5.52144870      -0.00896965       0.01040727       0.01035136
C        7.15696124       7.80602250       4.79354624       0.00705412       0.01209408      -0.01121463
C        2.40403722       3.80208242       5.02097867       0.00806665       0.00071780       0.00976573
C        9.10547511       6.27254383       4.35038574      -0.00182652       0.01062542       0.00021057
H        5.37852466       5.14026088       7.55635222       0.01189788       0.00664449       0.00696585
H        4.76019942       6.78039108       7.73442269       0.00848623       0.00446275       0.00454077
H        3.29024727       6.40493813       5.70131430       0.00556885       0.00086710       0.00958362
H        2.92272923       5.42123560       7.09896268       0.00989221      -0.00000374       0.01061952
H        4.40004359       4.48990541       4.58897764       0.00532405       0.00505745       0.00795266
H        4.27357531       3.52765221       6.05265717       0.00815575       0.00205189       0.00664812
H        7.36904681       4.82998435       6.06496198      -0.00252821       0.00055904      -0.01668338
H        5.21779537       8.43697200       5.67322866       0.00856291       0.00317896       0.01203428
H        7.56368978       8.59689225       4.18911704      -0.00608984       0.00663974       0.00670049
H        1.89744219       4.54487669       4.40217900       0.00858098      -0.00010341       0.00873670
H        1.76242468       3.59565535       5.88017072       0.00880944       0.00184047       0.00999725
H        2.47948961       2.88642075       4.43487019       0.00621715       0.00036040       0.01096021
H        9.84800202       6.11879376       5.13258885      -0.00128159       0.02369050       0.00180182
H        9.01209851       5.37192631       3.74815987       0.01152923       0.00490558       0.00798565
H        9.41398864       7.09985391       3.71745244      -0.00236063       0.00404760      -0.00301829
Cl      16.61970707      15.07256615      -1.29153951       0.00482839       0.01325464      -0.01133275
O       15.21576423      15.52201952      -1.45706875      -0.00489295      -0.01224861      -0.00639448
O       17.26811411      15.37766232       0.01275811      -0.04573965      -0.00983784       0.00243616
Cl       7.74473272       2.51374915      15.79396063      -0.01376900       0.01988839       0.00272831
Cl       7.09919174       0.73993497      13.59885264       0.02895217       0.00346488       0.00588295
Cl       7.18412504       3.62101243      13.17830132      -0.02236804      -0.00003797       0.00385827
Cl       5.03812312       2.42031782      14.72459780       0.00010678      -0.03135768      -0.00466290
C        6.76960785       2.33041446      14.32178807      -0.00267513      -0.00310088      -0.00262826
Cl       6.31197591      13.06623316      10.38051070       0.00200456      -0.01387058      -0.02819511
Cl       6.09474133      13.83730627      13.16147780      -0.02956935      -0.00761980      -0.03487267
Cl       8.48418463      12.48997092      12.20505704      -0.00106409       0.02690621      -0.01821217
Cl       5.98898214      11.03318565      12.42625146       0.02517198      -0.00611854      -0.01420852
C        6.72749360      12.59937390      12.04379500      -0.00495063       0.00035914      -0.01522326
Cl      10.82670413       9.21064530      13.16267684      -0.01431724       0.02800886       0.00973704
Cl      10.12014984       7.52764711      15.41626002       0.00335538       0.01029348       0.00331739
Cl       8.24770603       7.89207222      13.23855898      -0.00175038       0.00434674       0.00614603
Cl       8.82335874      10.09474949      15.04995235      -0.02256966      -0.00241986       0.01441765
C        9.50668374       8.68871651      14.21423641      -0.00832473       0.00483036       0.00827619
Cl       9.67005904       9.64184987       2.00504325      -0.01404363       0.00809398       0.00629529
Cl      11.98831696       9.32654818       3.72579214       0.00238219      -0.00692149      -0.01270890
Cl      11.24385629      11.95865937       2.76567512       0.00595337      -0.00218201      -0.00977874
Cl      12.33922588      10.00822174       0.92532250      -0.02356069      -0.01047264      -0.01454553
C       11.32037634      10.24479717       2.35482150      -0.00720109      -0.00478982      -0.00591349
Cl      15.95107842      14.59027449       8.16609097      -0.01972726      -0.01933333      -0.01909876
Cl      13.83706128      15.21128854       6.29871029      -0.01278841       0.01676324      -0.01868342
Cl      16.38174269      16.59905548       6.10565213       0.00717425      -0.01180047      -0.00740099
Cl      14.60208126      17.15394938       8.31994769       0.01007228      -0.00243440      -0.00965939
C       15.19439271      15.88790930       7.22271268      -0.00234467      -0.00685214      -0.01438876
Cl       7.36999974       7.58191922       9.61128519       0.00438057      -0.01960243      -0.01866763
Cl       9.37412827       8.03131014       7.55940245       0.01120538      -0.02492964      -0.01411781
Cl      10.16189699       7.01153300      10.15068265       0.00450239       0.00479524      -0.00063036
Cl       9.25806961       9.76076452       9.88083476      -0.01068230      -0.00622186      -0.03038409
C        9.05212388       8.10325449       9.31663470       0.00039103      -0.00873890      -0.01472508
Cl       4.36814270       5.13080584      10.62076351       0.00052241      -0.00066969       0.01426981
Cl       4.78189531       7.44192145      12.33020446       0.00564061      -0.00951203       0.00507908
Cl       2.54035230       5.67060272      12.81212837      -0.00125958       0.01176155       0.00288448
Cl       2.55057170       7.39256502      10.47433110       0.01290806       0.00102448       0.00902690
C        3.55426065       6.41027609      11.56400068       0.00674790      -0.00054610       0.01525086
Cl      14.01855802      12.43160624      10.47530178       0.00971100       0.00897527       0.02185287
Cl      12.03099891      12.78844677      12.54507849      -0.01441923       0.00104669       0.00001103
Cl      11.29173122      13.12298356       9.75648570       0.01430997      -0.01198218      -0.00854689
Cl      12.99348413      15.08124148      11.05052331      -0.01042271       0.00566584       0.00822979
C       12.58506282      13.35608854      10.95275805      -0.00191224       0.00103325       0.00286649
Cl       8.11474060      13.27885404       7.42915883       0.00979346       0.00546678       0.00875872
Cl       8.04757439      13.27535282       4.52388963      -0.01877500       0.00296458       0.01109117
Cl       9.59913406      11.28105763       5.95936484      -0.00971596       0.00182897      -0.00207779
Cl      10.46651011      14.05234146       5.92582631      -0.00216898      -0.00421654      -0.00722183
C        9.05343053      12.97502608       5.95551041      -0.00739172       0.00150225       0.00373730
Cl       2.94603452       0.08934909       1.16133541      -0.00388390       0.00180431       0.00178644
Cl       4.24856827       2.54893110       1.96920488       0.01805927       0.00025013      -0.01698187
Cl       5.84039168       0.20800034       1.33517386      -0.00320819      -0.02237584      -0.00310627
Cl       4.23532410       0.25336887       3.75242881       0.00584158       0.01497813       0.00115615
C        4.31297485       0.76494171       2.04512313       0.00150676       0.00247803       0.00215767
Cl       1.97296426      16.63062775       9.46147225       0.00865555       0.02149935       0.00716698
Cl       3.10083562      14.69331376       7.61143367      -0.02211026       0.01038903       0.00231442
Cl       4.84074809      16.29316637       9.29332951       0.00368860      -0.01151707      -0.00302958
Cl       3.39603669      17.53197243       7.10280831       0.00979747       0.00687267       0.00740513
C        3.32699765      16.27992432       8.37465296       0.00021388       0.00901634       0.00305876
Cl      15.64231528       8.89199042       8.22001016      -0.01919031       0.01583996       0.01324487
Cl      14.16708277      10.82185992       6.63626744      -0.01899696      -0.01634040       0.00177804
Cl      12.81735412       9.33916279       8.72663415      -0.01177746      -0.01156594       0.00181776
Cl      13.66423883       7.97105535       6.31346090      -0.00221285      -0.01152551       0.01890430
C       14.07280622       9.26508144       7.47769618      -0.01548558      -0.00776908       0.00524539
Cl      14.15990686       8.82352758      12.00483082       0.01284263      -0.01716489       0.01684558
Cl      14.42014087      10.35840397      14.45640228       0.01560627      -0.01166695       0.01674853
Cl      16.36835659       8.30509981      13.81650777       0.01523852      -0.01293300       0.01471994
Cl      13.68240248       7.55284552      14.57276538       0.01245967      -0.01284462       0.01372242
C       14.65787637       8.75803922      13.71513917       0.01736996      -0.01541588       0.01435114
Cl       1.18505439       6.37218891       2.44897447       0.01149455       0.02216122      -0.00431043
Cl       1.99214716       7.47909129      -0.10748952      -0.00063962       0.02245295      -0.00739054
Cl      -0.45085977       8.39391740       1.16738243       0.00038284       0.01956242      -0.01000426
Cl      -0.30604140       5.71761378       0.05414592       0.00972809       0.01182511       0.00186312
C        0.59422041       6.99426336       0.88185489       0.00861448       0.01770496      -0.00465247
Cl       7.78118600       1.32639805      10.32187729       0.00219069       0.01100196      -0.00483401
Cl      10.02672718       1.85792096       8.58156552      -0.00520501       0.01043564      -0.01605711
Cl       8.17395068       3.98963946       9.24841534      -0.00922789       0.00978011      -0.01564246
Cl       7.32711329       1.83390392       7.50219828      -0.01341940       0.00415246      -0.00796348
C        8.33014670       2.24031655       8.91814896      -0.00432763       0.00767605      -0.01252665
Cl       2.43865017      11.52579007      13.20208528      -0.02944385      -0.00317176       0.01269197
Cl       0.43505974      10.68883825      11.27866246      -0.01994127       0.01861924      -0.02869788
Cl       2.83143600      12.03183246      10.37049113       0.01191923       0.00795452       0.01082394
Cl       0.81478304      13.50792148      11.83920606      -0.00935459       0.02344626      -0.00929991
C        1.63359564      11.93436341      11.67234508      -0.01302069       0.01307905      -0.00451958
Cl      10.01157078       2.80059553       2.17483224      -0.00084050      -0.02413407      -0.00065799
Cl       7.51733715       2.65262400       3.64506466       0.00396012       0.02536826       0.01363823
Cl      10.04887554       2.75548429       5.07471138       0.01319370       0.02134696      -0.00071427
Cl       9.30786053       0.37435115       3.61590042      -0.02233502       0.00570685       0.03529804
C        9.22482410       2.13647648       3.62103734      -0.00111441       0.00519230       0.00952550
Cl      10.21366329      15.70135899      17.39729619       0.03300132      -0.03099337       0.00486404
Cl      11.26959800      15.89100977      14.70539662       0.03356299       0.00568610       0.01308843
Cl       8.77818539      14.49710431      15.19129316       0.02185014       0.01211700      -0.01880741
Cl      11.27291170      13.33533232      16.09246143       0.01840310      -0.00122860      -0.03716300
C       10.38850570      14.85999039      15.84455450       0.02763173      -0.00329950      -0.01184294
Cl      15.07239220      11.43522328       3.30001981       0.00438271       0.00182453      -0.01230612
Cl      16.02683728      14.16580480       3.41143042       0.01620190      -0.00685671      -0.00487402
Cl      14.61422653      13.22556019       1.06062263       0.01805443       0.00053996      -0.01494467
Cl      17.29335090      12.25945952       1.63094591       0.01604033      -0.00575171      -0.00771767
C       15.75495297      12.77628320       2.35011174       0.01394400      -0.00201276      -0.00420079
Cl       5.14745690       5.32184859      -0.25398129       0.01443991       0.00218385      -0.00915578
Cl       5.96508961       8.09065379      -0.43853882       0.00699942       0.01058701       0.01795122
Cl       7.58623868       6.19163837       1.03655256      -0.00775337       0.00843631       0.02804802
Cl       5.02070563       7.03351010       2.08744446      -0.02791835      -0.01359649      -0.00092740
C        5.91873202       6.65960930       0.59675010      -0.00217450      -0.00210930       0.00642741
Cl      15.92155534       3.27006495       3.41518139      -0.00634816      -0.01571298      -0.01703870
Cl      13.57121620       1.58428196       3.60589645       0.00840744      -0.02866843       0.00973660
Cl      15.61557090       1.00749821       1.62519463      -0.01543534      -0.01804894      -0.01089340
Cl      13.91349887       3.33688247       1.31958039      -0.03130144      -0.02108625       0.00764191
C       14.76140286       2.29190085       2.48740608      -0.01233885      -0.01947281      -0.00032401
Cl       1.44334409       9.18746100       4.88540655      -0.00915712      -0.00109828       0.00471365
Cl       1.22792504      11.72219729       6.28680408       0.00736624      -0.00114334       0.00156157
Cl       3.65473784      11.05406778       4.84184196       0.00448045      -0.01838332       0.01237707
Cl       2.99451141       9.65293963       7.29892767      -0.01536781      -0.01576912       0.00783145
C        2.31954470      10.41504044       5.82114079      -0.00916722      -0.00650400       0.00870937
Cl      13.28532929       3.02170727      13.50014604       0.00120860      -0.00765772      -0.00346601
Cl      12.39301639       3.96070714      10.90000989       0.00876454      -0.00081269       0.00390488
Cl      10.87868071       4.62504213      13.28341786       0.01773453       0.01378247       0.00467351
Cl      10.90360971       1.89274213      12.29639165      -0.01981425       0.01514542       0.00190341
C       11.86222082       3.37278264      12.49795827       0.00294256       0.00604072       0.00094947
Cl       4.53877401      13.42395876       1.93996687      -0.00162682      -0.01816982       0.01829013
Cl       6.05199324      10.98439854       2.34606633       0.00610289      -0.01738417      -0.00661063
Cl       6.25095753      12.40432714      -0.16442417      -0.01815003      -0.00334813      -0.01132151
Cl       3.79656737      11.01425524       0.51179112      -0.00783211      -0.02122578       0.01496382
C        5.15275681      11.96674136       1.15239865      -0.00006187      -0.01831326       0.00769173
