140
Lattice="12.141890651720878 0.0 0.0 0.0 12.141890651720878 0.0 0.0 0.0 12.141890651720878" Properties=species:S:1:pos:R:3:forces:R:3 energy=-81115.859375 stress="-3.461037704255432e-05 0.0004354308621259406 -0.0002465904108248651 0.0004354308621259406 -0.0023778306785970926 -0.0003708306176122278 -0.0002465904108248651 -0.0003708306176122278 -0.0027378725353628397" pbc="T T T"
N        6.32613498      11.56043123       1.96434810       0.00419509       0.01524118       0.01152091
N        8.46987315      11.66728818       1.61604030       0.01291257       0.02437413       0.01697968
C        4.89380313      11.25619125       1.75658512       0.01083243      -0.00029356      -0.00889453
C        7.30799487      11.22216027       1.12711574       0.00979233       0.00297523      -0.00646806
C        6.87456505      12.23647780       3.02471740       0.03379416       0.01367974      -0.01752895
C        8.21995029      12.30388029       2.80925348      -0.03733588       0.01669705      -0.00097722
C        4.50005445       9.88597344       2.26100200       0.01219431       0.00365257       0.00187704
C        9.79203841      11.48298245       1.00730074       0.00591481       0.02021106       0.00763358
H        4.33059157      12.03987930       2.25867826       0.00389752       0.00317329      -0.01270454
H        4.69354821      11.35676647       0.69120692       0.01266417      -0.00697858      -0.00627837
H        7.18353500      10.68065308       0.20602373       0.01839527       0.00550138       0.01085958
H        6.26787484      12.60640447       3.83051843      -0.00921452       0.01988420      -0.00654114
H        9.01193484      12.74331879       3.38685909      -0.00194475       0.03236136       0.00123705
H        5.12803424       9.10850792       1.82390951       0.01557628       0.00332981       0.00701062
H        3.46797270       9.71056675       1.96169485       0.01347071      -0.00097835       0.00053623
H        4.56285150       9.81332279       3.34522419       0.01039191       0.01027245       0.00163653
H        9.66146855      11.05094470       0.02050645       0.01490352       0.01825624       0.01136270
H       10.30071194      12.43884981       0.91875309       0.00332509       0.02562082       0.00793575
H       10.39804995      10.81241158       1.61426112       0.01108444       0.02707133       0.01402420
Cl      13.54010716      11.60546174       0.16308751       0.04333113      -0.01782839       0.01107965
C        3.81347950       3.35760013       4.25452322      -0.00355296      -0.00088237      -0.00977219
C        3.24531272       2.32089851       3.51390960      -0.00286276       0.00195643      -0.01418710
C        3.05569524       3.92743122       5.27861078      -0.00395796      -0.00619885      -0.00735381
C        5.19515354       3.85562674       3.93783856      -0.00551939       0.00311615      -0.00953336
C        1.96872765       1.84631430       3.79474861      -0.00261609       0.00100562      -0.01794913
C        1.77678134       3.46505223       5.56188031      -0.00354140      -0.00702153      -0.01067632
C        1.23335534       2.41727191       4.82748457      -0.00326216      -0.00352933      -0.01619030
H        3.79985619       1.90187952       2.68303595      -0.00152094       0.00471171      -0.01440872
H        3.47123071       4.73331068       5.87159570      -0.00424892      -0.00902644      -0.00348403
H        5.74708357       4.11124658       4.84450385      -0.00126550      -0.00694636      -0.00959736
H        5.76503592       3.10901616       3.38400239      -0.00790231       0.01090005      -0.02179684
H        5.15960729       4.75242092       3.31382050      -0.00944105       0.01035759       0.00166270
H        1.55610482       1.04612254       3.19150085      -0.00188988       0.00334133      -0.02173780
H        1.21066089       3.91947974       6.36560636      -0.00442037      -0.01058220      -0.00948739
H        0.24040965       2.05147729       5.05896922      -0.00429363      -0.00155605      -0.02054948
C        9.65428499       8.51512477       4.53586166       0.00093816      -0.00880979      -0.01282137
C        9.90195851       7.26885504       5.10811853       0.00518479      -0.00947686      -0.01626191
C        9.17064591       8.54954972       3.22997028      -0.00220831      -0.00732394      -0.01155277
C        9.88873605       9.77772625       5.31412617       0.00156765      -0.01102048      -0.01122358
C        9.64445761       6.09538103       4.41402890       0.00850073      -0.00745708      -0.01943563
C        8.92536066       7.37986669       2.52058103      -0.00095401      -0.00565460      -0.01342822
C        9.15037019       6.14416792       3.11574381       0.00511219      -0.00625788      -0.01804099
H       10.28511562       7.21201409       6.11605367       0.00738904      -0.01100516      -0.01689617
H        8.95881804       9.50666935       2.77325358      -0.00385163      -0.00667349      -0.00937995
H        9.31981349      10.61097175       4.90002321       0.01826435      -0.00551930      -0.02193256
H        9.59481114       9.65689375       6.35783662      -0.01677816      -0.00578212      -0.01616380
H       10.94331171      10.05918158       5.29585757       0.00458121      -0.02380003       0.00602911
H        9.82701590       5.14279211       4.89664320       0.01296831      -0.00822365      -0.02363093
H        8.54160331       7.43701243       1.50909731      -0.00357861      -0.00496380      -0.01222765
H        8.93958025       5.22913802       2.57655599       0.00775528      -0.00533838      -0.01983094
C       10.39434000       7.18288677       8.55126545      -0.00315157      -0.00082923      -0.00346567
C       11.02437676       5.94201010       8.62389549      -0.00329399      -0.00081719       0.00003165
C        9.00847769       7.20961498       8.40002757      -0.00257082      -0.00131914      -0.00864665
C       11.21060367       8.44272904       8.56387659      -0.00460877      -0.00061291       0.00047555
C       10.29538461       4.76020371       8.57434293      -0.00240610      -0.00022488      -0.00349300
C        8.27115821       6.03345219       8.36090295      -0.00159834      -0.00083686      -0.01320422
C        8.91076746       4.80348958       8.45260828      -0.00186995      -0.00087850      -0.01087343
H       12.10284944       5.91014331       8.70324112      -0.00364551      -0.00099043       0.00660164
H        8.49704319       8.15798485       8.30021887      -0.00244971      -0.00106303      -0.00743431
H       10.64336476       9.29209343       8.94285390      -0.00943746      -0.00022285      -0.00828370
H       12.10557638       8.32798402       9.17529619      -0.01083292       0.00225245       0.00969210
H       11.54001893       8.69989595       7.55344501       0.00495535      -0.00343218       0.00309950
H       10.80789744       3.80710060       8.63330627      -0.00298926      -0.00024022      -0.00017812
H        7.19520604       6.08655759       8.25133335      -0.00098759      -0.00120132      -0.01852535
H        8.33591358       3.88628183       8.42367366      -0.00074532      -0.00074365      -0.01452209
C        3.88359327       3.18642489       8.46956095      -0.00238420      -0.00491248       0.01079273
C        2.58213474       3.24184038       8.96301796      -0.00156683      -0.00688004       0.01349385
C        4.62461775       4.36332439       8.40309813      -0.00532638      -0.00322228       0.00782481
C        4.45363951       1.89945910       7.97592016      -0.00071117      -0.00409976       0.01098497
C        2.02682332       4.45162279       9.35062613      -0.00215998      -0.00834872       0.01527219
C        4.07265925       5.57626062       8.78872039      -0.00603677      -0.00474927       0.00932994
C        2.76242773       5.62757415       9.25078353      -0.00428861      -0.00708596       0.01448332
H        2.01195392       2.32481293       9.06791560      -0.00023024      -0.00776441       0.01316364
H        5.64616621       4.32525005       8.03919144      -0.00689197      -0.00101778       0.00337495
H        5.54321027       1.90181192       8.02603042      -0.00065996      -0.00121072       0.00697348
H        4.07485537       1.05259213       8.54862351       0.00368011      -0.00376986       0.01411194
H        4.17181541       1.74483981       6.93042535      -0.00370771      -0.00694549       0.01247585
H        1.02594158       4.46940041       9.76089701      -0.00152573      -0.00913556       0.01697108
H        4.66911021       6.47772433       8.72597486      -0.00874978      -0.00333017       0.00611433
H        2.32564907       6.57190733       9.55544086      -0.00418411      -0.00839028       0.01693558
C        5.55116381      10.00434594       6.12019304      -0.00018895      -0.00423846       0.00035757
C        6.40278079       9.32212015       5.25640331       0.00285296      -0.01079865       0.00874412
C        4.50059508       9.30429627       6.71312732      -0.00558646       0.00179783      -0.00287290
C        5.72040299      11.46745289       6.38183797       0.00364316      -0.00402662      -0.00471386
C        6.21208108       7.97448036       4.97764171       0.00060338      -0.01127162       0.01436012
C        4.29660908       7.96390256       6.42600069      -0.00788878       0.00141788       0.00272169
C        5.15150960       7.29516185       5.55838888      -0.00469735      -0.00536609       0.01117414
H        7.21638040       9.85569196       4.78295557       0.00643116      -0.01502782       0.01071621
H        3.83395126       9.81950707       7.39603680      -0.00687736       0.00714317      -0.00841790
H        5.45794713      11.70658662       7.40879217       0.00573797      -0.00007099      -0.00515524
H        6.74604184      11.79551055       6.20480782       0.00419857      -0.00771434      -0.00712516
H        5.05493519      12.05999155       5.74546531       0.00469103      -0.00442070      -0.00559494
H        6.88674072       7.46659477       4.30068525       0.00280090      -0.01651384       0.02052426
H        3.46707118       7.43613928       6.87499749      -0.01189043       0.00576511       0.00011934
H        4.98527433       6.25306143       5.32575587      -0.00649526      -0.00573394       0.01553197
C        1.28625496       7.58874958       2.42758150      -0.00546915      -0.00136727      -0.00266241
C        1.07027815       8.95058411       2.63903919       0.00232609      -0.00060660      -0.00138655
C        1.42235222       6.74890617       3.53418023      -0.00882931      -0.00250545      -0.00332718
C        1.43136951       7.05489714       1.03280495      -0.01037700      -0.00076263      -0.00297266
C        1.04031692       9.46554691       3.92890939       0.00400423      -0.00146250      -0.00167435
C        1.36847377       7.26124836       4.82332948      -0.00570042      -0.00335504      -0.00342023
C        1.19351966       8.62520389       5.02476382      -0.00003685      -0.00277995      -0.00211450
H        0.97142605       9.62687134       1.79365411       0.00801008       0.00072566      -0.00079322
H        1.57989147       5.68554672       3.38842983      -0.01352831      -0.00302131      -0.00438887
H        1.03873060       6.04118102       0.94432939      -0.01869687       0.00278892      -0.00348707
H        0.93269965       7.70157293       0.31129967      -0.00573310       0.00357775      -0.00196803
H        2.48746430       7.01770073       0.75158755      -0.01117510      -0.00886194      -0.00396265
H        0.90770024      10.53280742       4.06848713       0.00863075      -0.00088727      -0.00232469
H        1.47438645       6.59304768       5.67005452      -0.00812468      -0.00425349      -0.00386901
H        1.18815496       9.03153607       6.02960657       0.00146696      -0.00376628      -0.00211004
C        5.72657556       9.13516689      10.81402104      -0.00685793       0.00795050       0.00108447
C        5.64091544      10.39343972      10.21054507      -0.00303575       0.00742950      -0.00067741
C        6.99356176       8.58052904      11.00871232      -0.00856122       0.00512062       0.00258326
C        4.48688048       8.40376812      11.22417352      -0.00925282       0.01172003      -0.00105405
C        6.78666079      11.06283027       9.79461354      -0.00130645       0.00431906       0.00088492
C        8.14269343       9.25734275      10.61294879      -0.00677611       0.00095480       0.00216259
C        8.04359052      10.49825672       9.99097480      -0.00293931       0.00106161       0.00206640
H        4.66288939      10.84629161      10.08199986      -0.00199546       0.00857663      -0.00339090
H        7.08012610       7.60593654      11.47573464      -0.01114892       0.00545567       0.00326181
H        4.70142477       7.67396997      12.00484732      -0.01328754       0.00765321      -0.00403933
H        3.71318749       9.08708742      11.57698195      -0.00589290       0.01410362       0.00127380
H        4.07321810       7.85482057      10.37656897      -0.01117959       0.01716335      -0.00344110
H        6.69977485      12.03847543       9.33375110       0.00239273       0.00432651       0.00047634
H        9.11316276       8.80802702      10.78264648      -0.00845028      -0.00235545       0.00142597
H        8.93393113      11.02627045       9.67156703      -0.00144835      -0.00238395       0.00241084
C        6.34658242       2.91462249      11.68793986       0.00486618       0.00146221       0.01033851
C        5.49600389       1.80608824      11.67749577       0.00356308       0.00248578       0.01113090
C        5.77978056       4.17495256      11.86445086       0.00737205       0.00074971       0.02179564
C        7.82625774       2.74189011      11.49907386       0.00258780       0.00038009      -0.00092982
C        4.12536985       1.94007281      11.85315698       0.00583887       0.00248621       0.02019087
C        4.40759404       4.31872596      12.04185827       0.00946735       0.00100508       0.03060722
C        3.58063257       3.20441638      12.04637992       0.00781223       0.00200424       0.02909956
H        5.92313568       0.82198922      11.51862498       0.00142348       0.00261445       0.00495861
H        6.42022696       5.05060710      11.85137117       0.00837700       0.00005942       0.02524528
H        8.38002159       3.60486260      11.86808129       0.00552911       0.00205866      -0.01013668
H        8.18711062       1.85198197      12.01817003       0.00656257       0.00322084       0.00064483
H        8.08715184       2.62073456      10.44453472      -0.00653424      -0.00570346      -0.00219378
H        3.46268348       1.07783287      11.84466734       0.00584918       0.00228667       0.02155856
H        3.97926845       5.30621903      12.15744744       0.01111303       0.00042224       0.04064631
H        2.51141598       3.30674682      12.17811679       0.00940879       0.00242873       0.03608914
