150
Lattice="11.615341059158096 0.0 0.0 0.0 11.615341059158096 0.0 0.0 0.0 11.615341059158096" Properties=species:S:1:pos:R:3:forces:R:3 energy=-273298.5625 stress="0.00016559913638047874 -0.0005327828985173255 0.0005583062884397805 -0.0005327828985173255 -0.0005398882203735411 7.816742072463967e-05 0.0005583062884397805 7.816742072463967e-05 0.00028997211484238505" pbc="T T T"
N        5.88109124       5.73779728       2.16631114      -0.00318640       0.00028241      -0.00123581
N        5.47233756       3.76116480       1.39515792      -0.00459246      -0.00486326      -0.01328051
C        6.62693566       6.91081238       2.62292854       0.00458640      -0.00848824       0.00593400
C        6.41662610       4.53817668       1.92872090       0.01033318      -0.00659314      -0.00460654
C        4.56752584       5.73167703       1.76079978       0.00090927      -0.03773326      -0.01418754
C        4.30769901       4.48391645       1.28083727       0.01530570       0.02995065       0.00546083
C        7.29168870       7.61347604       1.46084400       0.00584716      -0.00284967       0.01048473
C        5.65329143       2.35957390       1.04601457       0.00522970      -0.00093907      -0.01323585
H        5.90614403       7.55828283       3.12247464       0.00032413      -0.00919805       0.00620684
H        7.34469273       6.56635164       3.36947498      -0.00100991      -0.01055567       0.00617453
H        7.43989082       4.23994221       2.10114446      -0.00043211      -0.00449312      -0.00785111
H        3.94686276       6.60802468       1.83670007       0.00028552       0.00128641       0.00261983
H        3.42650342       4.06712474       0.82904656      -0.00027467      -0.00277980      -0.01240473
H        8.00334738       6.95760272       0.96303998       0.00713576      -0.00116420       0.01034118
H        7.83823860       8.48654289       1.81135799       0.00495055      -0.00475347       0.01612238
H        6.54161465       7.94801924       0.74487656       0.00873801       0.00002656       0.00971444
H        6.71692771       2.12799499       1.08178409       0.00163689      -0.00080291      -0.01785173
H        5.12074023       1.73822187       1.76436904       0.00499195      -0.00266941      -0.01377645
H        5.26743267       2.17983862       0.04363182      -0.00085947       0.00101521      -0.01310650
I       10.14429292      10.62255898       1.23865786       0.00593255      -0.00326045       0.00252912
O       11.69432574      10.38000993       2.10687850       0.00370468       0.01274368       0.01127370
O        9.75778687       9.17322945       0.27388287       0.01908467      -0.00671972       0.00250457
O        8.83753189      10.93774861       2.41563290       0.00110471      -0.01351345      -0.00117299
O       10.30686833      12.02572114       0.12769245      -0.00524396      -0.00044508       0.00496571
O        5.43526746       9.81356083       9.41102554      -0.00674841       0.00381017      -0.00240766
C        6.35472315       9.06778629       8.62347911      -0.00216314       0.00463051       0.00175589
C        6.27485573       9.43583688       7.15495195       0.00127887       0.00161025       0.00086284
H        7.37844312       9.19598956       8.99711874      -0.00384146       0.00885229       0.00424132
H        6.08475174       8.01819544       8.76945774       0.00023000       0.00412139       0.00311867
H        6.94723391       8.81296983       6.56001626       0.00554249       0.00292125       0.00437899
H        5.25486029       9.31066900       6.78647256       0.00283661      -0.00236870      -0.00201296
H        6.56676414      10.47504349       6.99820330      -0.00169349       0.00228557      -0.00013416
H        5.68019402      10.75920495       9.40014841      -0.00701374       0.00390835      -0.00112679
O       10.47092354       9.80321656       7.21343258      -0.00885475      -0.02516311       0.00042805
C       10.88304359       8.95909734       8.27557821      -0.00315201      -0.00793003       0.01034576
C       11.68851951       9.67092766       9.33855944       0.01293087       0.00200576      -0.01014692
H       10.01174984       8.47188107       8.73981930      -0.00154948       0.00776039       0.02785537
H       11.48220599       8.17123946       7.80762016      -0.01375255      -0.02106544       0.01966447
H       11.97490453       8.97626623      10.12927518       0.02163743       0.01032440      -0.00660525
H       12.58960016      10.11645609       8.91462057       0.00858696      -0.00699152      -0.02742495
H       11.09494371      10.45678283       9.80670979       0.02181132       0.00929758      -0.01212031
H       10.24967945      10.68645641       7.53910769       0.02639633      -0.00882113      -0.02036634
O        8.61677402       5.36493391       6.05951072      -0.01130539      -0.00173375       0.00412288
C        9.88881809       6.01472584       5.91904293      -0.00699882      -0.01158413      -0.00130981
C        9.75901620       7.39841941       5.32670060       0.00271861      -0.01471817      -0.01021321
H       10.39337142       6.06422211       6.89229948      -0.00569132      -0.00935426      -0.00220376
H       10.47721594       5.35051052       5.28091061      -0.01269403      -0.01966433       0.00234324
H       10.73051203       7.88285308       5.21407369       0.00640284      -0.02246825      -0.01038716
H        9.27710781       7.36188386       4.34834968       0.00511990      -0.01759290      -0.01119682
H        9.18152318       8.05299373       5.98278250       0.00613128      -0.00664157      -0.01561639
H        8.01069537       6.01319196       6.43292897      -0.00466466       0.00262523       0.00689173
O        1.06354759      10.95717904       4.77073483      -0.00201452       0.03419861       0.00909275
C        2.31507235      10.33731057       5.10821994      -0.00776646       0.01956874       0.00653984
C        2.52630290       9.00092906       4.43161621      -0.01995272       0.02245653      -0.00250608
H        3.13450920      11.02215441       4.86199795      -0.00189829       0.01373184       0.01075400
H        2.30778338      10.22018867       6.19494945      -0.00958712       0.01232806       0.00555241
H        3.50570184       8.60308621       4.71505266      -0.02427498       0.01144383      -0.00374272
H        1.76600707       8.27377540       4.71560166      -0.02629744       0.02717778      -0.00799248
H        2.50518598       9.09328885       3.34350256      -0.01664154       0.02982093      -0.00181806
H        0.77468966      10.67980684       3.88302374      -0.00805838       0.03256527       0.01148604
O        5.53984737       1.00447122       9.40102315      -0.00570351       0.00136217      -0.00258100
C        4.55293266       1.22196524       8.37103257      -0.00752568      -0.00056948      -0.00125287
C        3.21454504       0.71018090       8.83983759      -0.00651777      -0.00037126       0.00185323
H        4.50759219       2.28918121       8.13801289      -0.00831726      -0.00109828      -0.00250259
H        4.85272017       0.70045496       7.45724512      -0.00881265      -0.00188348      -0.00091702
H        2.48311538       0.83870676       8.03893818      -0.00842917      -0.00133728       0.00347199
H        3.27721623      -0.35130841       9.08179320      -0.00603589      -0.00009188       0.00280371
H        2.87033919       1.25869370       9.71625451      -0.00479497       0.00064038       0.00196661
H        6.20814763       1.70102548       9.31130965      -0.00596254       0.00145707      -0.00518445
O       12.40674457       6.57033775       2.90328486       0.02115986      -0.03530723       0.00346988
C       11.38292900       6.98911807       1.99209777       0.03383839      -0.00858498       0.00254524
C       10.60376154       5.81468755       1.44952136       0.01537034       0.01231104      -0.01295985
H       10.71278750       7.70646728       2.47618751       0.04546988      -0.00118232       0.00632268
H       11.89208004       7.53049948       1.19680481       0.04740241      -0.01173227       0.00965506
H        9.89568529       6.13632649       0.68725386       0.02892911       0.03478502      -0.01487826
H       11.26754540       5.07205355       1.00674167       0.00327297       0.00354004      -0.01510966
H       10.03943839       5.31784542       2.24312593      -0.00032536       0.01777705      -0.02159818
H       11.97021063       6.10330912       3.62224143       0.00883923      -0.03182972      -0.00184908
O        9.48815024       2.79313120       1.30710302      -0.01048377      -0.00083554       0.00575519
C       10.27601162       2.57461738       2.47908551      -0.00679262       0.00460799       0.00415754
C        9.43262468       2.76576221       3.71208059      -0.00373605       0.00966530       0.00543213
H       10.67210430       1.55681778       2.47676752      -0.00656149       0.00466245       0.00728827
H       11.14012871       3.24996054       2.48187642      -0.00742069       0.00546053      -0.00111033
H       10.00414250       2.53209642       4.61088745      -0.00081433       0.01550965       0.00507507
H        9.05762412       3.78873526       3.80124699      -0.00486902       0.00958915       0.00121323
H        8.58654108       2.08082763       3.66631770      -0.00317845       0.00872755       0.01147578
H        9.68978538       2.04995324       0.71227399      -0.00896562      -0.00131511       0.00668719
O        5.27778619       0.71202368       5.04366043      -0.00078452      -0.00017613       0.00020808
C        6.01361309       1.91914342       5.23809243      -0.00001356      -0.00104350       0.00217739
C        7.27797343       1.71087554       6.04374996      -0.00156170      -0.00226772       0.00455928
H        6.26128344       2.36912622       4.26544315       0.00190480      -0.00057271       0.00290155
H        5.32684074       2.59665685       5.74708413      -0.00030825      -0.00104234       0.00174499
H        7.84283774       2.64572337       6.10167312      -0.00189920      -0.00217727       0.00595811
H        7.04755979       1.36024622       7.05072688      -0.00392350      -0.00230269       0.00391260
H        7.93952058       0.97969941       5.57765381      -0.00090280      -0.00250101       0.00554679
H        5.84229980       0.09863094       4.56264711      -0.00076696      -0.00064413       0.00090498
O        4.72310583       9.39719312       0.47197630       0.00253373      -0.00643706      -0.00278914
C        5.59942930      10.47253454       0.78973656      -0.00198415      -0.00413990       0.00123304
C        5.63570976      10.66466394       2.28515482      -0.00755557      -0.00529271       0.00151134
H        6.61237915      10.26813727       0.41784391      -0.00001448      -0.00047180       0.00474480
H        5.25544088      11.38844172       0.29441164      -0.00323245      -0.00468832       0.00110316
H        6.36945017      11.43436930       2.53006431      -0.00947177      -0.00430314       0.00438426
H        4.65531248      10.94786546       2.67065629      -0.00919622      -0.00671193      -0.00155921
H        5.95409236       9.74785069       2.78268063      -0.00818272      -0.00534374       0.00183059
H        4.75049799       9.33867207      -0.49754063       0.00247496      -0.00209036      -0.00323041
O        2.98499976       3.93053143      10.00465707       0.01140934       0.00995016      -0.02862534
C        1.72729778       4.57144108       9.77934461       0.00652291       0.00573301      -0.00855319
C        1.83312445       6.08220459       9.80798375       0.00072153       0.00592870      -0.00171737
H        1.30684524       4.23372218       8.82627111      -0.00516877       0.00836878      -0.00423121
H        1.06348849       4.22063687      10.57308995       0.01821838      -0.00043710      -0.00181627
H        0.85670738       6.53531006       9.62386723      -0.00313948       0.00260032       0.01210084
H        2.19345170       6.43097939      10.77717456       0.01064029       0.00220289      -0.00422145
H        2.52212647       6.43486859       9.03747932      -0.00959192       0.01373595      -0.00711168
H        3.47614310       3.97615836       9.17660056      -0.00456174       0.00760118      -0.03828883
O        1.65314758       2.08651974       4.72866722       0.01789075       0.03348288      -0.00046813
C        2.39905817       2.39496779       3.55284351       0.01264231       0.02350019      -0.00715882
C        2.24494698       1.36794098       2.44928582       0.00143178       0.01697129       0.00102487
H        2.05042063       3.37504613       3.20914340       0.01467143       0.02276680      -0.01051159
H        3.46194095       2.49116722       3.81664772       0.01424778       0.02054553      -0.01357688
H        2.75226517       1.70006761       1.54115681       0.00176354       0.00613872      -0.00248589
H        2.67738473       0.40822516       2.73625816      -0.00561566       0.01575276       0.00717810
H        1.19968935       1.19653013       2.19949426      -0.00042674       0.02398988       0.00465614
H        1.47172382       1.12435384       4.73867958       0.01383940       0.03444280       0.00503446
O        3.46751175       4.22395018       6.54644792      -0.01034847      -0.02327758       0.00984833
C        3.77517721       5.45358159       5.88173356      -0.01907492      -0.02291845       0.00674452
C        5.27853774       5.63069558       5.79983715      -0.02072263      -0.00976905       0.01053750
H        3.33177430       5.47529522       4.88169870      -0.01547953      -0.03059097       0.00520608
H        3.33687661       6.28361556       6.44852859      -0.02819477      -0.02488062       0.00236908
H        5.52924062       6.63551726       5.45098473      -0.02948134      -0.00863749       0.00791736
H        5.71875764       5.49210850       6.79034623      -0.02153996      -0.00242260       0.01183753
H        5.73489982       4.90386142       5.12643714      -0.01205475      -0.00695968       0.01362111
H        2.84558513       3.70696360       6.01852434      -0.01358305      -0.02553335       0.01497689
O       10.41911810       0.90403282       6.60443393       0.02066939      -0.02413172       0.00963092
C       10.86297391       2.04547114       7.34388151       0.00628834      -0.01094899      -0.00211370
C       11.02467681       1.71605211       8.81286454      -0.00464483       0.00624222       0.00233102
H       11.78776115       2.43892007       6.91038238       0.00755554      -0.01017042       0.00230828
H       10.09401283       2.81557650       7.21544281       0.00411510      -0.01486799      -0.01553437
H       11.27419999       2.60531776       9.39300191      -0.01392050       0.01353045      -0.00500599
H       10.10104048       1.30221978       9.21988997      -0.00536153       0.00469599      -0.00113888
H       11.81678151       0.98411971       8.96793647      -0.00232546       0.01207496       0.01504782
H       11.17168128       0.45770592       6.19529089       0.01922926      -0.00185564      -0.01861709
O        7.04509156       3.43261243       8.89572489       0.00347248      -0.00753236      -0.00222528
C        7.23995553       4.72997294       9.46854636      -0.00026602      -0.00920713       0.00245453
C        8.70192275       5.05107947       9.68913334      -0.00133467      -0.00756691       0.00667876
H        6.77295128       5.48771753       8.82679019      -0.00022115      -0.00794759       0.00384963
H        6.68782951       4.72474471      10.41015188      -0.00246148      -0.01334062       0.00102332
H        8.81398489       6.07116506      10.06381222      -0.00406702      -0.00833398       0.00931527
H        9.14960168       4.36356693      10.40758284      -0.00177064      -0.00838967       0.00614189
H        9.24794604       4.98312254       8.74463987       0.00113156      -0.00422046       0.00799352
H        7.51982493       3.40674908       8.05663220       0.00323448      -0.00289565      -0.00252140
