141
Lattice="11.267180911705923 0.0 0.0 0.0 11.267180911705923 0.0 0.0 0.0 11.267180911705923" Properties=species:S:1:pos:R:3:forces:R:3 energy=-81736.375 stress="-0.004983831662684679 0.0004567801661323756 -8.094079385045916e-05 0.0004567801661323756 -0.0020796218886971474 -0.0009076037385966629 -8.094079385045916e-05 -0.0009076037385966629 -0.004859620239585638" pbc="T T T"
N        4.94513334       9.08639195       2.65397268       0.00909728       0.01043861      -0.00400275
N        2.94570804       9.54428900       1.94690410       0.00584495       0.00711772       0.00508782
C        6.04702971       8.44965759       3.40291888       0.01388729       0.00559661      -0.01578623
C        3.65661635       8.75663978       2.76737295       0.01129565       0.00499958      -0.00251043
C        5.06335003      10.11526627       1.75300784       0.00248402       0.01636994       0.00192654
C        3.80909720      10.40251815       1.30628980      -0.00005373       0.01441580       0.00766742
C        6.03658404       6.94167753       3.32054030      -0.01020239       0.00604856       0.00508611
C        1.52142360       9.42057043       1.69569238       0.00628704       0.00142053       0.00693184
H        6.96451606       8.85947498       2.98536818       0.01023713      -0.01397192      -0.03991304
H        5.97519852       8.77710109       4.43623371       0.03934605       0.02044290      -0.01970312
H        3.24995881       7.98961685       3.40505867       0.01590282      -0.00021613      -0.00650882
H        6.00562936      10.57433765       1.49675132      -0.00057054       0.02164637       0.00108477
H        3.47957475      11.12293240       0.58010894      -0.00554845       0.01708539       0.01295624
H        5.15130461       6.50109476       3.77889047      -0.00129025       0.02693363       0.03868541
H        6.91013591       6.57226231       3.85435224      -0.00158936      -0.00066036      -0.01625934
H        6.12849917       6.59435863       2.29455731      -0.04548085      -0.00978147       0.00825071
H        1.08406180       8.73947828       2.42244438       0.01006630       0.00079480       0.00822222
H        1.05316010      10.40231145       1.76005226       0.00290591      -0.00043005       0.00658317
H        1.34703178       9.00493857       0.70404299       0.00683750      -0.00013047       0.00769484
O       11.26229569       4.88855028       0.06082458       0.01719761       0.01788019       0.00564146
O        9.32518891       3.91105176       0.67347694       0.02534783       0.00938439       0.01683283
C        9.37051478       6.25397078       0.39219113       0.01132637       0.00696027       0.00593261
C        7.99608135       6.39091273       0.22989014       0.01082414      -0.00217906       0.00557733
C       10.14332032       7.39812169       0.56929762       0.00472431       0.01093199       0.00413646
C        7.41213543       7.65359999       0.21787354       0.00382800      -0.00620515       0.00387520
C        9.55929451       8.65594491       0.60456255      -0.00224797       0.00712639       0.00135136
C        8.18657598       8.79359064       0.41345329      -0.00273474      -0.00166579       0.00125856
C       10.04179056       4.88484241       0.37938873       0.01820117       0.01134861       0.01013965
H        7.40309525       5.49041384       0.11669097       0.01681840      -0.00571232       0.00578277
H       11.20751198       7.24243485       0.69011724       0.00530528       0.01601599       0.00487762
H        6.34060797       7.75477539       0.07233669       0.00342209      -0.01283717       0.00417513
H       10.15520616       9.54963889       0.76053709      -0.00726992       0.01020274       0.00010290
H        7.74701800       9.78459270       0.39468061      -0.00867254      -0.00483067       0.00009253
O        5.51388434       3.79545852       3.82184803      -0.00430775       0.01192561      -0.00202568
N        3.61086087       2.60697065       4.24240700      -0.00070010       0.00681064      -0.00187702
C        4.30634305       1.37068198       4.47176817       0.00460232       0.01154315       0.00484602
C        2.20190144       2.62855921       4.54306201      -0.00135358       0.00199881      -0.00538543
C        4.31042689       3.73944911       4.00346220      -0.00589943       0.00843304      -0.00441189
H        3.90221461       0.58166480       3.83070537       0.00138615       0.00439093       0.01684572
H        4.19167081       1.07444076       5.51607017       0.01568712       0.02243565       0.00854862
H        5.36043049       1.51491409       4.24617850       0.00183716       0.01181084      -0.00607699
H        1.68661086       1.84560774       3.97678433       0.00386497      -0.00144078      -0.00489601
H        1.78105269       3.58821962       4.24875789      -0.00357796      -0.00058085      -0.00939238
H        2.03986365       2.47579087       5.61404298      -0.00392072       0.00440410      -0.00572529
H        3.65546441       4.62369484       3.96300412      -0.00795716       0.00524312      -0.00945796
O        8.02789536       8.53877113       5.59529285       0.01760995       0.02383363      -0.00722790
N       10.07160594       9.41962279       5.08934634       0.00677336       0.00964350       0.00078313
C       10.79349448       8.19441995       5.36258904       0.00635403       0.00582305      -0.00089803
C       10.82359751      10.58467658       4.70047663       0.00949564       0.00863501       0.00242541
C        8.73492261       9.46594456       5.23772635      -0.00302637      -0.00610852       0.00592798
H       11.53600586       8.37834991       6.14231612       0.00880514       0.00584859      -0.00445680
H       11.28449134       7.81987430       4.46071225       0.00241914       0.00695588      -0.00241756
H       10.08730313       7.44787054       5.71200818       0.00638840       0.00913607       0.00012589
H       11.51878522      10.88766714       5.49072183       0.00799263       0.00617914       0.00239250
H       10.14548708      11.41146373       4.49783243       0.00925173       0.00810435       0.00383614
H       11.40075083      10.38572635       3.79759394       0.00779359       0.00883546       0.00306931
H        8.32746992      10.46493770       4.99375665       0.00908339       0.01021969       0.00148752
O        3.42902376       3.76680973       7.22395278      -0.01624238      -0.02138126       0.01483774
N        1.68607364       5.22531121       7.51444008      -0.01108477      -0.01416889       0.00176354
C        1.66365917       5.67542910       6.14421818       0.00200735      -0.00929341       0.00355989
C        0.65575162       5.73388929       8.39602092      -0.01359186      -0.00933804      -0.00496934
C        2.59556649       4.32536360       7.92554419      -0.01991898      -0.02137339       0.00618741
H        1.74157209       6.76132240       6.11566705       0.00740490      -0.00990757       0.00885171
H        0.73723677       5.37914623       5.64638057       0.00436255      -0.00318946      -0.00356536
H        2.52127713       5.26501287       5.62564650       0.00357655      -0.01104656       0.00840712
H        0.63776474       6.82457877       8.36723636      -0.00179387      -0.00945726       0.00232153
H        0.80023931       5.39782446       9.42350227      -0.02565062      -0.01527837      -0.00547385
H       -0.33365222       5.40846360       8.06866329      -0.01323640       0.00353444      -0.01676317
H        2.50069799       4.12370091       9.00828111      -0.03485986      -0.02550088       0.00419194
O        9.16560085       5.73969136       3.78799461      -0.00786150       0.02015817       0.00549054
N        9.28135877       4.06325904       5.33206136      -0.00574136       0.00933366      -0.00599861
C        8.02248419       4.40303190       5.96140610       0.00094388       0.01073587       0.00481533
C       10.08272752       3.05268672       5.97022834      -0.00756319      -0.00033284      -0.01978327
C        9.72962274       4.77277715       4.26073456      -0.00695017       0.01150036      -0.00311071
H        8.17852979       4.97232677       6.88271657       0.00943175       0.00707950       0.00520682
H        7.47905748       3.48461567       6.18805927      -0.00037318       0.01204878       0.00496060
H        7.42773755       4.98686595       5.26730780      -0.00196031       0.01598005       0.01191506
H       10.38251303       3.35803590       6.97961843       0.00434899      -0.00919314      -0.02108586
H       10.98171867       2.87207181       5.38473552      -0.01486956      -0.00333560      -0.02922603
H        9.52723647       2.11268529       6.05761547      -0.01406661       0.00368986      -0.02039433
H       10.68018447       4.38388195       3.85681534      -0.01347661       0.01246348      -0.01121008
O        7.24310873       1.11528740      11.46214960      -0.00146008      -0.00065303       0.02266657
N        6.90640478       2.70969360       9.83600469       0.00156739      -0.01301408       0.01035941
C        8.28627136       2.86064756       9.42557612       0.00296602      -0.00640446       0.01726620
C        5.92478784       3.41357048       9.04078653       0.00244447      -0.01755412       0.00534727
C        6.52733213       1.87124702      10.82085239      -0.00046337      -0.00715500       0.01389861
H        8.51722571       3.92296227       9.33135829      -0.00163574      -0.00560817       0.01867273
H        8.44226468       2.38249537       8.45338277       0.00967504      -0.00428119       0.01768535
H        8.94168188       2.45128378      10.18814369       0.00244217      -0.00391106       0.01873180
H        6.07076432       4.49685108       9.09949033      -0.00038589      -0.01767525       0.00515897
H        4.92256279       3.16401224       9.37682173       0.00234002      -0.02029335       0.00176345
H        5.98791867       3.12558860       7.98969864       0.00701986      -0.01559633       0.00540265
H        5.43895845       1.93165033      10.99503560      -0.00127441      -0.00900130       0.00816473
O        4.27808011       7.10093616       6.76815621      -0.00840712      -0.00095993      -0.01879808
N        4.74331679       9.32123653       6.52867703      -0.00505853       0.00245693      -0.00738984
C        3.38744273       9.66910078       6.18145177      -0.00477691       0.00899202       0.00086446
C        5.73542126      10.37291464       6.50501103      -0.00266233       0.00072226       0.00010243
C        5.07440744       8.02707117       6.77366621      -0.00435331       0.00284255      -0.01634327
H        3.30630150       9.93285108       5.12251656      -0.00988788       0.01168758       0.00229377
H        3.06051602      10.53064354       6.76497895       0.00205259       0.00847128       0.00465672
H        2.74757659       8.81261651       6.38106343      -0.00712925       0.01128867       0.00236940
H        5.89174816      10.73804983       5.48595215      -0.00379504       0.00999489       0.00357503
H        6.67492541       9.96959753       6.86330142      -0.00305223      -0.00444987      -0.00577070
H        5.42723048      11.20109992       7.14433045       0.00023012      -0.00479782       0.00818014
H        6.14791271       7.89824988       6.97173731      -0.00697833      -0.00174725      -0.02122954
O        1.43211426       5.84093132       2.79281524       0.02122021      -0.00467383       0.00371861
N        2.80086232       4.77590401       1.26531691       0.00609121      -0.01114124      -0.00371853
C        2.18269113       3.46629973       1.28438355      -0.00147924      -0.00702691      -0.00187201
C        4.03799115       4.91436868       0.52932246      -0.00293219      -0.01671871      -0.01813479
C        2.30997819       5.82394753       1.93999698       0.01745772      -0.00904262      -0.00088775
H        2.83944278       2.74924225       1.78514410      -0.00196084      -0.01135094      -0.00805125
H        1.99504941       3.15526751       0.25632878      -0.01149269      -0.00350785      -0.00064400
H        1.21494595       3.53570438       1.77019830       0.00297818      -0.00320915       0.00556208
H        4.82393659       4.30394521       0.98411896      -0.00388035      -0.02827239      -0.03365336
H        4.36075499       5.95394074       0.55819227       0.00800761      -0.02072728      -0.01422497
H        3.90799557       4.61700778      -0.51159609      -0.01930599      -0.00683513      -0.01842663
H        2.84447470       6.74350760       1.63996631       0.02233061      -0.01264557      -0.00086069
O        5.02480431      10.99879463       9.53544978      -0.00471482      -0.01469761       0.00742563
N        3.43706968       9.36534440       9.58251809      -0.00179730      -0.00507829       0.00438911
C        2.35196800      10.29929652       9.39852984      -0.00273293      -0.00316906       0.00518964
C        3.13277310       7.95077564       9.61830197      -0.00217391      -0.00499442      -0.00093817
C        4.70561568       9.82052476       9.59342889       0.00023878       0.00647354       0.00479172
H        1.67602834      10.29739187      10.25586899      -0.00220798      -0.00652695       0.00474304
H        1.77353013      10.02598027       8.51733268      -0.00134088      -0.00305867       0.00500599
H        2.76678517      11.29584889       9.26621779      -0.00291002      -0.00506264       0.00748380
H        2.41050035       7.72341251      10.40756920      -0.00418672      -0.00647219      -0.00494319
H        4.04796581       7.39270735       9.80466057      -0.00261021      -0.00362413       0.00133817
H        2.73316387       7.60952832       8.66256158       0.00241567      -0.00136521      -0.00303331
H        5.44456863       9.00559728       9.67218645      -0.00295091      -0.00474223       0.00425043
O        9.32377836       7.36739675       8.31906255      -0.00928390      -0.00433290      -0.00410570
N        9.12360013       9.61948882       8.63841311      -0.00504720      -0.00411743      -0.00500619
C       10.53888008       9.85616429       8.66265406      -0.00513324      -0.00500593      -0.00781017
C        8.27388353      10.76005398       8.87450434      -0.00294207      -0.00354283       0.00058287
C        8.64701345       8.36228516       8.50128333      -0.00689226      -0.00365281      -0.00358123
H       10.77755326      10.51485749       9.50005592      -0.00216979      -0.00899628      -0.00590253
H       10.88216226      10.33799008       7.73953598      -0.00795737      -0.00118311      -0.00634736
H       11.05070321       8.90474405       8.78582316      -0.00538602      -0.00540581      -0.01344693
H        8.58322553      11.29423982       9.77417855      -0.00074545      -0.00578821       0.00218546
H        7.24289274      10.45452558       9.02171563      -0.00350356      -0.00341825      -0.00135789
H        8.31135283      11.45433572       8.02732381      -0.00282472      -0.00171286       0.00198412
H        7.54828621       8.33139978       8.57826841      -0.00655836      -0.00107639      -0.00157012
