143
Lattice="11.707322693511147 0.0 0.0 0.0 11.707322693511147 0.0 0.0 0.0 11.707322693511147" Properties=species:S:1:pos:R:3:forces:R:3 energy=-126455.4765625 stress="-0.0033959336578845978 0.0007480347994714975 -0.0008329435077030212 0.0007480347994714975 -0.0017812412697821856 0.00036053698568139225 -0.0008329435077030212 0.00036053698568139225 -0.0029227212071418762" pbc="T T T"
N        5.55255316       9.72346579       5.40629992       0.00237007       0.00108749      -0.00346188
N        5.00310175       7.63670054       5.33047061      -0.00082462       0.00241047      -0.00299536
C        6.13232320      10.99005500       5.85922672       0.00607580      -0.00091505      -0.00367954
C        5.50982077       8.59073458       6.10706570       0.00170395       0.00124303      -0.00385475
C        5.04394784       9.49087834       4.15502087      -0.00016379       0.00233081      -0.00243759
C        4.70164423       8.17595914       4.10366541      -0.00205830       0.00298290      -0.00206554
C        7.64814631      10.98110352       5.81959025       0.00580937      -0.00722260       0.00171646
C        4.75038334       6.26004996       5.71907798      -0.00250664       0.00338185      -0.00182426
H        5.71742535      11.76558944       5.21697784       0.01168865       0.00010568      -0.00566930
H        5.75163732      11.16187129       6.86204488       0.00379565       0.00219923      -0.00533953
H        5.77749395       8.48206733       7.14415884       0.00336029       0.00049118      -0.00463743
H        4.95815844      10.28781460       3.43714759       0.00049727       0.00220434      -0.00230666
H        4.26991340       7.58255373       3.31829662      -0.00326188       0.00396973      -0.00164063
H        8.06030428      10.18125143       6.43512044       0.00049088      -0.00586721       0.00650175
H        8.02726994      11.93714958       6.17855383       0.00806766      -0.00735053      -0.00114830
H        8.01726782      10.84845542       4.80488611       0.00850324      -0.01321609       0.00375354
H        5.33527632       6.02750615       6.60301877      -0.00270917       0.00380225      -0.00184262
H        3.69043754       6.12259479       5.92768692      -0.00236428       0.00502649      -0.00130612
H        5.07366182       5.61339531       4.90689706      -0.00348882       0.00196326      -0.00082254
O        9.97964352      11.81257289      -0.06954610      -0.01942492       0.00121927      -0.01939654
O        8.35749039      10.52107531       0.79167259      -0.00560999       0.00038451       0.00311401
C        9.56205842      10.82145247       0.54848527      -0.00847226       0.00664687      -0.00501922
H       10.33122717      10.09895610       0.92978508       0.00023711       0.02050215       0.00051242
O        3.70210865       7.30553363       8.41691362       0.00415304       0.01312694       0.00453898
O        1.48190145       7.32499526       8.44196604       0.00435441      -0.00492138      -0.00597891
O        2.59183304       8.77963474       7.13945365      -0.00137226      -0.00265741      -0.00785929
C        3.33897583       6.14030941       9.19403092       0.01062205       0.01879349       0.01424286
C        1.84438122       6.32365950       9.42141940       0.00692827       0.00349581       0.00042489
C        2.58474892       7.88222547       7.93662057       0.00196211       0.00096327      -0.00303409
H        3.93665315       6.14246915      10.09922344       0.00238901       0.03634274       0.01924160
H        3.54187079       5.24805959       8.60552138       0.02653740       0.01526743       0.02636877
H        1.28645798       5.41618835       9.21284783       0.01895136      -0.00329059      -0.00089316
H        1.59941268       6.72286427      10.40691222      -0.00585230       0.00405751      -0.00344139
O        1.49557614       5.16414108       5.77009155      -0.00319111       0.00942521      -0.01180011
O        1.85615569       3.01113991       5.34692342      -0.00107141       0.00511937       0.01653749
O        2.28743556       3.83239438       7.39290402       0.02470262       0.03897531      -0.00160587
C        1.01304145       4.97226101       4.42493313      -0.01217896      -0.01043653      -0.00490271
C        1.53593146       3.58398708       4.06317409      -0.01354899      -0.01448056       0.01133648
C        1.89275140       3.97243016       6.27133254       0.00644903       0.01969445      -0.00380927
H        1.43266495       5.76326886       3.80329713      -0.01683709      -0.01933876      -0.01875307
H       -0.07272651       5.02687197       4.45051001      -0.01176566      -0.01059408       0.00112392
H        0.80101466       2.95146441       3.57708371      -0.01688257      -0.02255327       0.02780142
H        2.45374593       3.61449672       3.47230401      -0.01903448      -0.02238924       0.00280480
O       -0.65758686      10.13968078       3.90109655      -0.00290794       0.01247889      -0.01021678
O        1.24801508      10.95230994       4.70599625      -0.00203466      -0.00047013      -0.00148502
O       -0.53494346      12.30665359       4.47867323       0.01439065       0.00849748      -0.02057573
C        0.21481457       9.00212106       3.97465133      -0.01366439       0.00556087       0.00398515
C        1.57606814       9.62708182       4.25886784      -0.00990486      -0.00296076       0.00126222
C       -0.01500711      11.24000013       4.36476786       0.00078884       0.01319367      -0.01080700
H        0.17985483       8.48696932       3.01620131      -0.01592748      -0.00425577       0.00990248
H       -0.13405268       8.33874299       4.76761364      -0.02078690       0.01709406       0.00996780
H        2.12432006       9.13567640       5.05536829      -0.01192018      -0.00427635       0.00116822
H        2.17453772       9.72146627       3.35577087      -0.01102901      -0.00863357       0.00020826
O        5.92652809       9.81611422       9.20509783       0.01101288      -0.00177843      -0.00580577
O        6.46488472      11.96643231       9.36283455      -0.00446230       0.00143188      -0.00384452
O        4.32000439      11.38411441       9.02725061       0.00041759      -0.01381159      -0.00390412
C        7.32437883       9.81520759       9.60132607       0.00990850       0.00846642      -0.00286478
C        7.74270270      11.27170983       9.45079448       0.00014025       0.00985900      -0.00610532
C        5.46894389      11.08857203       9.18908336       0.00184286      -0.00530535      -0.00453230
H        7.85903795       9.12735680       8.95350609       0.01682630       0.01027492       0.00145081
H        7.39728552       9.48169169      10.63591709       0.00970671       0.01352959      -0.00152171
H        8.29078774      11.65507164      10.31238408       0.00096589       0.01276964      -0.00819522
H        8.29665541      11.47961470       8.53767802      -0.00354680       0.01339487      -0.00702193
O       11.57725482       9.69721313       9.86798714       0.01951772      -0.00268051      -0.00077651
O       10.22381593       9.43647927       8.12874587       0.01275261       0.01479658       0.00249335
O       10.01309046       8.08394305       9.91161163       0.02239901      -0.00561017      -0.01229805
C       11.79485333      10.86942016       9.03334150       0.01420021       0.00647879       0.01104879
C       11.20540835      10.42315176       7.71153262       0.01026696       0.01951734       0.00909841
C       10.56969097       8.99666931       9.35884435       0.01848501       0.00187141      -0.00442111
H       12.86275268      11.06244092       8.99382295       0.01352596       0.00877166       0.00982340
H       11.25421627      11.69799111       9.48738013       0.01341471      -0.00002128       0.02110463
H       10.69559102      11.21803319       7.17169872       0.00758782       0.02438918       0.01956975
H       11.93511655       9.91646876       7.07934471       0.00841984       0.02721825       0.00147495
O        8.84781515       3.90107950       8.31187362       0.00491732      -0.01113877       0.00387591
O       11.03374539       4.12499337       8.00789140       0.00360864      -0.01369777      -0.00602755
O       10.14759740       2.06932576       8.29915199       0.00057499      -0.01107001      -0.00317128
C        9.01138653       5.27970493       7.93753821       0.00518233      -0.01115529       0.00519436
C       10.52006592       5.46790500       7.97607345       0.00531417      -0.01247448       0.00104864
C       10.02759291       3.25634699       8.20724510       0.00325128      -0.01375675      -0.00189373
H        8.48717581       5.89483941       8.66607879       0.00797957      -0.01188901       0.00723246
H        8.60738845       5.41505357       6.93726012       0.00240558      -0.00912967       0.00685042
H       10.90662020       5.96524919       7.08980250       0.00272690      -0.00861134       0.00221282
H       10.84163043       5.99242697       8.87274268       0.00901708      -0.01650676       0.00190908
O        4.45708355      11.76978392       1.54991505      -0.00722429       0.01631506       0.00051916
O        3.37799785       9.92479496       0.92851439       0.00063053       0.01016248       0.01351912
O        2.23053739      11.62678092       1.86016533       0.01825404      -0.00470102       0.00283206
C        5.43968117      11.01094741       0.81035190      -0.00681621       0.02112624      -0.00248669
C        4.75987447       9.65792730       0.61650773      -0.00261728       0.01789159      -0.00069359
C        3.25401330      11.16129099       1.46853540      -0.01345634       0.01505375       0.01323114
H        6.37356019      10.96519180       1.36212503      -0.00214985       0.02168510      -0.00936154
H        5.62780380      11.53411212      -0.12333431      -0.01042587       0.01896638      -0.00498465
H        4.81511127       9.28227347      -0.40221046      -0.00806645       0.01975922      -0.00203174
H        5.12961348       8.89637271       1.30636737       0.01054653       0.01691380      -0.00835913
O        6.26328881       4.98296787       1.22274501      -0.00686499       0.00103204       0.00239730
O        5.24193673       4.23332012      -0.60607679       0.00601436       0.00387828      -0.00537616
O        7.23752273       5.26427986      -0.78704029      -0.00773019       0.02510870       0.00928414
C        5.11233338       4.25548958       1.70124092       0.00027096      -0.01480359      -0.00603259
C        4.26705248       4.10275839       0.45397286       0.00521880      -0.01406045      -0.00936992
C        6.33219970       4.85930193      -0.12213027      -0.00016642       0.01288216       0.00048292
H        4.64055561       4.84684347       2.48206125      -0.00739394      -0.02654333      -0.00262001
H        5.44738096       3.31375799       2.12725330       0.00919341      -0.01457703      -0.01314834
H        3.76344415       3.14802314       0.35805587       0.01583630      -0.01826313      -0.01734080
H        3.53007601       4.89781210       0.34319178      -0.00263691      -0.02146339      -0.00533367
O       11.11310040       4.42988885      -0.51917815       0.00034890      -0.00838575      -0.00185109
O       12.57860735       5.03698057       1.04192592       0.00178795      -0.00089854      -0.00711533
O       13.20875560       3.60836558      -0.57565965       0.00002939      -0.01191401      -0.00050175
C       10.43890371       5.46740408       0.22803904       0.00088251      -0.00636695      -0.00533831
C       11.33903279       5.65579059       1.44261231       0.00157619      -0.00248991      -0.00699770
C       12.36487305       4.28200525      -0.06826734      -0.00348383      -0.00347739      -0.00073603
H        9.44024913       5.11969705       0.47128372       0.00083697      -0.00505134      -0.00290596
H       10.37088572       6.35410609      -0.40117543      -0.00027057      -0.00808674      -0.00759810
H       11.53775963       6.70161703       1.66306670      -0.00076787      -0.00154307      -0.00851162
H       10.96487742       5.14736727       2.32527899       0.00253516      -0.00114864      -0.00579798
O       10.09726652       3.11509993       3.11924988      -0.01706741       0.00087506      -0.00085682
O        8.66225603       2.00242358       4.39772460      -0.00981089      -0.00833696      -0.00136327
O       10.13064008       3.41895412       5.34729664      -0.01565844      -0.00369906      -0.00080752
C        9.22843224       2.43840268       2.18571262      -0.01183847      -0.00449827      -0.00096643
C        8.48644099       1.45638391       3.07902515      -0.00944543      -0.00676990      -0.00156897
C        9.67134929       2.88835056       4.38263064      -0.01420432      -0.00343761      -0.00124103
H        9.81902479       1.94727482       1.41452434      -0.00796637      -0.00235039       0.00108838
H        8.56646138       3.18654848       1.74686708      -0.01394507      -0.00845286      -0.00389002
H        7.41950499       1.40586940       2.86995966      -0.00938675      -0.00807006      -0.00107764
H        8.93149663       0.46429411       3.05251848      -0.00857246      -0.00602955      -0.00300593
O        5.34940357       2.45637256       5.40080502      -0.00873422      -0.00523245       0.00913893
O        6.75258109       3.82634657       6.43575078      -0.00736369      -0.00374982       0.00443545
O        6.54081445       3.95050761       4.20540727      -0.01344961      -0.00584963       0.00542325
C        5.04950917       2.33897002       6.82350536      -0.00339478      -0.00692299       0.00966503
C        6.30465115       2.89309934       7.45417065      -0.00260720      -0.00440292       0.00546515
C        6.25580909       3.44506134       5.25619868      -0.01025307      -0.00467527       0.00584215
H        4.83715424       1.30435299       7.06145920       0.00090343      -0.00762221       0.00936355
H        4.16376477       2.93420742       7.03233466      -0.00392288      -0.00928006       0.01289946
H        6.14308233       3.44312839       8.37674250      -0.00060765      -0.00485647       0.00577185
H        7.09567434       2.16097409       7.60230799      -0.00105599      -0.00286934       0.00282749
O        9.05110801       6.76222644       2.64277237       0.00294718      -0.00705676       0.00507057
O        8.27876560       8.13686738       4.20629524      -0.00384064      -0.00585409      -0.00007279
O        9.50915325       6.34308364       4.80378991      -0.00792354      -0.00396425       0.00591004
C        8.28500372       7.76023747       1.92535591       0.00606084      -0.00818805       0.00064081
C        8.17384576       8.86409164       2.94921027       0.00003766      -0.00759226      -0.00096659
C        8.98525346       7.01444010       3.96468992      -0.00224882      -0.00705436       0.00553697
H        7.32718258       7.31410425       1.65566333       0.00826672      -0.00897607      -0.00430347
H        8.82650174       8.05766390       1.03309939       0.01068878      -0.00877468       0.00360650
H        8.99274597       9.57227432       2.89546889      -0.00132683      -0.00621039       0.00127268
H        7.22735935       9.38851841       2.93147588      -0.00056267      -0.00943874      -0.00551750
