146
Lattice="15.676123103532056 0.0 0.0 0.0 15.676123103532056 0.0 0.0 0.0 15.676123103532056" Properties=species:S:1:pos:R:3:forces:R:3 energy=-981570.9375 stress="-0.0022220630198717117 0.00023482304095523432 -4.111233283765614e-05 0.00023482304095523432 -0.001237973920069635 -0.00032645546889398247 -4.111233283765614e-05 -0.00032645546889398247 -0.0022233561612665653" pbc="T T T"
N       11.58664561      13.98592464       2.87016228       0.00020522      -0.00654741       0.01695031
N       10.53170160      13.56101377       4.71128736       0.01656733       0.00525945      -0.01321965
C       12.66777703      14.18950444       1.89943270       0.00141197      -0.00015002      -0.00586276
C       11.73973288      13.65484892       4.15074599      -0.01915312       0.00816959      -0.01397270
C       10.24401544      14.10132754       2.60385616      -0.00234830      -0.00590056      -0.00444362
C        9.58180597      13.83489376       3.75863698      -0.00097066      -0.00274700      -0.00432500
C       12.74421050      13.05525129       0.89742959      -0.01015516       0.00341898      -0.01020974
C       10.26196264      13.16570043       6.08171677      -0.00116408       0.00820620       0.00541633
H       12.48312549      15.14543375       1.40754665       0.00432711       0.00104567       0.00203337
H       13.59541261      14.28617233       2.45827359      -0.00065345      -0.01081922      -0.00524443
H       12.67403019      13.46330998       4.64603655       0.00808387       0.00736376       0.00320769
H        9.88441369      14.37096516       1.62872616      -0.00016462      -0.01172690      -0.00305563
H        8.53257332      13.81891243       3.98374621       0.00175282      -0.00464080      -0.00376236
H       12.91125012      12.10726075       1.40476191      -0.01502857      -0.00087346      -0.01471974
H       13.58935175      13.23185294       0.23377027      -0.01244958       0.00155284      -0.01132803
H       11.84038783      12.98574770       0.29261288      -0.01313503       0.01212297      -0.00679141
H       11.16194697      12.73956423       6.51543658      -0.00042242       0.01086985       0.00052116
H        9.94323486      14.02627207       6.66843325       0.00226405       0.01215968      -0.00433983
H        9.47202745      12.41646193       6.08215193      -0.00031489       0.01086780       0.00362531
O       15.22259510      15.85112277       1.62542244       0.01186128       0.00291753       0.01050140
H       15.90501591      16.22484682       1.05942668       0.00872256      -0.00776830       0.00043312
Cl      10.44825214       6.96136099      14.44194523       0.02991379      -0.00647284       0.00715427
Cl       9.13012959       9.47275313      13.78050507      -0.00296892      -0.02812724      -0.00161761
Cl      11.93502362       9.47949457      14.55947123      -0.00365163       0.01251402      -0.00368264
C       10.64848575       8.57107272      13.74476720       0.00849883      -0.00749682       0.00048133
H       10.95556130       8.45424002      12.71301382       0.00947289      -0.00722688       0.00120339
Cl       9.14448065      10.68441666       1.43542311      -0.01977183      -0.02048939       0.01189908
Cl      10.68510847      10.43421975       3.90267982      -0.00026209       0.00013690       0.00009298
Cl      10.45553996       8.15019319       2.11145733       0.00922676      -0.00577308       0.00651400
C       10.51946436       9.90515008       2.19398600      -0.00739502      -0.00544583       0.00303020
H       11.42046890      10.22527055       1.68397123      -0.01473105       0.00200476      -0.00396010
Cl      15.93870553      16.37126871       6.99328787       0.00573914       0.00436974       0.00780725
Cl      15.64395129      13.45826605       6.99460438      -0.00990845       0.00702981       0.00310834
Cl      13.28514975      15.16587930       7.05850713      -0.00028809       0.01936031      -0.01157476
C       14.95700812      15.00158190       6.46669288       0.00241879       0.01049158      -0.00012778
H       14.93324020      15.01044870       5.38176846       0.00972367       0.01173002       0.00013472
Cl      10.23013327       5.89927561       8.93314554       0.00808108      -0.01245284       0.01200759
Cl      10.90472042       5.54000756       6.11242630       0.01091274       0.02157965       0.00716791
Cl      12.66574077       4.46280461       8.18826699       0.00800216      -0.00453741      -0.00020124
C       10.99329303       4.83522055       7.73747603       0.00979744       0.00208474       0.00115246
H       10.43749416       3.90534330       7.72663653       0.00804402       0.00356579      -0.01343453
Cl       3.80499882       7.30071662      12.95860959      -0.00368243      -0.00555864      -0.00353560
Cl       3.95470332       6.38961402      10.20785108      -0.00701439       0.00404876      -0.00697866
Cl       5.93679277       5.47521601      12.15040191      -0.00307967       0.00244377      -0.01385002
C        4.24017471       5.96695897      11.89368880      -0.00398278      -0.00071524      -0.00910878
H        3.62283136       5.11224291      12.14526151      -0.00240815      -0.00187814      -0.01120081
Cl      11.97377662      10.12315599      10.68458946      -0.00265467       0.00315410       0.00309994
Cl      13.81232813      12.37229762      10.45833369       0.00765285      -0.00556834       0.01424526
Cl      11.10876637      12.57330249       9.37244943       0.01370603       0.00932978       0.00518025
C       12.12797959      11.88914389      10.65344114       0.00520832       0.00220600       0.00723191
H       11.76416933      12.27890552      11.59728138       0.00380144       0.00165939       0.00620121
Cl       7.18673413      11.21068276       4.36348351      -0.01046827       0.00728147       0.03116989
Cl       6.15896716       9.57084546       6.53106018       0.00922982      -0.03688101       0.00622979
Cl       7.94242241       8.38217157       4.57407385      -0.00759747       0.00754890      -0.03210558
C        7.52817827       9.84684236       5.44887639      -0.00015702      -0.01315358       0.00127824
H        8.38001392      10.12615653       6.06068202       0.00480989      -0.02426521      -0.00117597
Cl       5.15501004       6.24894151       4.04425649      -0.01178250      -0.00758135       0.00163156
Cl       4.62873540       3.41655861       3.71068946      -0.01690483      -0.00577144      -0.00834545
Cl       7.38782145       4.42695577       3.59813327      -0.01355875      -0.00680310      -0.01848415
C        5.78291275       4.63967004       4.31499248      -0.01348327      -0.00939979      -0.00972427
H        5.88243103       4.47744248       5.38022835      -0.00659503      -0.01499835      -0.01146045
Cl       4.47816939      15.93698685       6.89543798      -0.01140694       0.00260964       0.00534800
Cl       2.89923685      14.57285382       4.85227094      -0.00092124       0.00007284       0.00063589
Cl       4.37591660      13.01635847       6.83986426      -0.00022952       0.00306164       0.00134084
C        3.48284226      14.51710044       6.51840625      -0.00469020      -0.00045795       0.00137668
H        2.62055901      14.53866526       7.17391515      -0.00596781      -0.00476637      -0.00085033
Cl      13.30195737      10.74072425       6.79227619      -0.01161470      -0.00106874      -0.01180188
Cl      13.41112144       8.00130095       7.77734808       0.00283210       0.01033087       0.01452968
Cl      10.83450858       9.27821270       7.31872820      -0.00357275      -0.00585703       0.00772069
C       12.51658764       9.13942213       6.78756537      -0.00443199      -0.00443251       0.00545854
H       12.51596947       8.77805102       5.76559445      -0.00472208      -0.01412842       0.00945792
Cl      15.09054055       8.90018121      12.62184851       0.00877440      -0.00587836      -0.00746161
Cl      13.39942800       6.53339109      12.36360591       0.01058447      -0.00619880       0.00421604
Cl      15.58351767       6.98181442      10.47114494       0.01211511      -0.01708834       0.00398597
C       15.03007693       7.20434467      12.14003431       0.01024451      -0.00790028       0.00201200
H       15.69897372       6.65113523      12.78747423       0.00932020      -0.00426640       0.00504661
Cl       1.51073682       8.38907042       1.31495967      -0.00147709      -0.00133628      -0.01301855
Cl      -0.26110693       6.49280936      -0.03072754      -0.01580093      -0.00651340       0.01498181
Cl       1.54842341       5.57211526       2.08149103       0.00375594       0.00333023       0.00071310
C        0.55756796       6.91169557       1.48572256      -0.00088017       0.00113208       0.00424654
H       -0.21480406       7.10244747       2.21983251       0.00722134       0.00555534       0.01088019
Cl       4.51667429       3.95732072       7.57029887      -0.00369193      -0.00403384      -0.00355003
Cl       7.31393358       3.26432248       8.00473182      -0.00814227      -0.01062914       0.00753426
Cl       6.53368729       6.05921550       7.66190510       0.00147992      -0.01088810      -0.00495949
C        6.05267884       4.48573072       8.28989260      -0.00490805      -0.00631279      -0.00038092
H        5.90180859       4.56782009       9.36099741      -0.00774034      -0.00172184      -0.00133225
Cl       2.21876060      10.41832435      10.96088694       0.00365715       0.01472706       0.00414261
Cl       3.74208345       9.55655750       8.63791913      -0.01242717       0.01025042      -0.00338010
Cl       0.93713565      10.31324721       8.33635762      -0.01136026       0.01574568       0.01268154
C        2.44242387      10.61192523       9.22347651      -0.00604114       0.01255589       0.00340921
H        2.74599317      11.63258616       9.02715214      -0.00508910       0.01171762       0.00140746
Cl       6.27367408      -0.67187847       3.12079440       0.00485841       0.00458640      -0.01150371
Cl       7.96896706       0.98188148       4.84510605      -0.00123525      -0.00078574      -0.00222220
Cl       8.15843352       1.21741352       1.92666700       0.01183037       0.00364525       0.00020684
C        7.09012752       0.88897662       3.30439690       0.00536864       0.00293431      -0.00545335
H        6.33057167       1.66260186       3.32041448       0.00652249       0.00336033      -0.00757983
Cl      12.43247426      14.75944260      13.40482132      -0.00749800       0.02987488      -0.00532824
Cl       9.91040309      14.51545310      11.96400693      -0.01510064      -0.01186933       0.01788655
Cl       9.90003403      15.42600323      14.72759194      -0.00334428       0.01748849       0.00734746
C       10.79887150      15.41328789      13.19034437      -0.01544167       0.01005452       0.00060815
H       10.89467071      16.44212752      12.86211584      -0.02903696       0.00695202      -0.01092912
Cl      14.71300100      11.57619377       3.48133520       0.00827770       0.00952765      -0.01179702
Cl      13.92593408       9.44850783       1.64609843      -0.00655900       0.00200363       0.00545643
Cl      14.96683983       8.76392670       4.27991758       0.00771530       0.01413810       0.00151853
C       14.04888143       9.93452714       3.34343434       0.00405291       0.01065343       0.00147928
H       13.04336087       9.97111021       3.74538455       0.00711910       0.01509092       0.00735226
Cl       5.91971203       4.87623817       0.25124961       0.00321766      -0.00004131      -0.02152777
Cl       4.47759118       7.37417002       0.63733079       0.00885004      -0.00087757      -0.00373074
Cl       7.36681114       7.31055915       0.98684920       0.00837249      -0.00916506      -0.00535336
C        5.98941216       6.63818629       0.10095793       0.00710246       0.00018359      -0.00913920
H        6.12364074       6.87443705      -0.94795530       0.00756193       0.00699563      -0.00714830
Cl      11.96513925       2.67773531       1.66258047       0.00121588      -0.00653358       0.01342583
Cl      14.44514574       3.59830651       2.86036330       0.00659800       0.00725439      -0.01004089
Cl      12.89413991       1.51878970       4.15392198       0.02834989       0.00285876       0.00568944
C       13.27663217       2.36699722       2.71291697       0.00942110       0.00502481       0.00418882
H       14.63877934       0.92566035       1.81843235       0.01621678       0.00685172       0.00387242
Cl       2.06031486      10.90402109       4.49014626       0.01045781       0.00776872       0.00236711
Cl       2.40236108       8.13100920       5.39260508       0.00310147       0.01017407       0.00831800
Cl       4.27869110       9.31423251       3.50564316       0.00091113      -0.00330013      -0.00015175
C        3.20434450       9.62551509       4.87612371       0.00696243       0.00536229       0.00193995
H        3.81176694       9.96342001       5.70436441       0.01094644       0.00511172      -0.00104192
Cl       9.69799395       4.44546405      12.36921014      -0.01444188      -0.00787199       0.01084167
Cl      10.39686345       2.36997144      10.43048839       0.00144966       0.00177383       0.00772858
Cl       7.97676965       2.11505619      12.04458333      -0.01071116      -0.00611402      -0.01409844
C        9.07495542       3.24300484      11.23623902      -0.00477260      -0.00234913       0.00079028
H        8.52066666       3.76186237      10.46276370       0.00150207       0.00093326      -0.00132057
Cl       3.50481266      11.47037402       0.43477918      -0.00183719      -0.01308063      -0.00134462
Cl       5.48461514      10.44993981      -1.45515930       0.00771578      -0.00946902       0.00848821
Cl       6.24490925      12.46760343       0.51390430      -0.00486276      -0.00920871       0.01164541
C        5.20539988      11.06173387       0.18024634      -0.00056260      -0.01042879       0.00694650
H        5.47402064      10.27963564       0.88038173      -0.00287021      -0.00962481       0.00769067
Cl      -0.11652659       2.87003911      14.92068106      -0.00877793      -0.00371908      -0.03039558
Cl       2.54263470       3.97547994      14.44424705      -0.00213595      -0.00772643       0.00084259
Cl       2.16974219       1.08262168      14.57419976      -0.00583030      -0.00630569       0.01732355
C        1.44201514       2.63145076      14.10918824       0.00221003      -0.00923499      -0.00488105
H        1.25470847       2.60546738      13.04180917       0.01799313      -0.01788438      -0.00665656
Cl       6.68908528       9.01174437      11.12713515      -0.01840240       0.02584991      -0.01355938
Cl       8.19068549      10.33038794       9.00791329      -0.00308270       0.03815435       0.00475946
Cl       7.35780176      11.85074384      11.34439169       0.01018174       0.01375240       0.02407453
C        7.87273732      10.26932988      10.74679644      -0.00538795       0.01763982       0.00328236
H        8.80188212      10.01169013      11.23915961      -0.00927967       0.00131271       0.00087324
Cl       1.45534852       3.64091512      10.36101875       0.00383192      -0.01121178      -0.00271484
Cl       4.05916642       2.48834884      11.02840312       0.00472447      -0.00656523      -0.00328246
Cl       1.75485381       0.74738859      10.61917435       0.00558743      -0.00908025       0.00903466
C        2.54214960       2.25625727      10.13775208       0.00360049      -0.01117291       0.00077946
H        2.79020184       2.19415104       9.08433976       0.00134492      -0.01602546       0.00118449
