141
Lattice="11.588414039764809 0.0 0.0 0.0 11.588414039764809 0.0 0.0 0.0 11.588414039764809" Properties=species:S:1:pos:R:3:forces:R:3 energy=-98046.8828125 stress="-0.0023070834577083588 0.000333760108333081 0.00018576145521365106 0.000333760108333081 -0.003450678428635001 -2.270074764965102e-05 0.00018576145521365106 -2.270074764965102e-05 -0.0018538391450420022" pbc="T T T"
N        4.29922531       8.97254544       1.97770785      -0.00348139       0.01597559       0.01361168
N        6.14189877      10.11466104       2.02108106      -0.01947305      -0.00132540       0.00100613
C        3.46481679       6.62689135       2.02452546      -0.00208628       0.00815499      -0.00198871
C        4.59016473       5.99436548       2.83264962      -0.00779337       0.00695649       0.00185031
C        3.19948617       8.08471845       2.36971397      -0.00896084       0.00539165       0.00535196
C        4.79404201       4.51581735       2.52971923       0.00008968       0.00983262      -0.00263271
C        5.95523738       3.92265361       3.31708589      -0.01391715       0.00674772       0.01459241
C        5.31716459       9.36101771       2.75167201      -0.01383409       0.02375293      -0.03082085
C        4.48207575       9.49242398       0.72078246      -0.01901442      -0.00607188      -0.00512546
C        6.17338637       2.44422921       3.03537512      -0.00985089       0.00845361       0.01636390
C        5.63910469      10.20463785       0.74775888      -0.00118835      -0.00144260      -0.01375014
C        7.42028136      10.66703259       2.44887447      -0.00518370       0.00844526      -0.01622722
H        3.66613904       6.52732308       0.95243304       0.00958361       0.01407012      -0.00055027
H        2.52355515       6.09957695       2.20706736       0.00014177       0.00264625      -0.01338455
H        4.38296210       6.12584403       3.90277093      -0.01906073       0.00189580      -0.00026751
H        5.53232338       6.51487999       2.63921858      -0.00900373       0.01183878       0.01098876
H        3.06379421       8.20475474       3.44172718       0.00627864      -0.00528788       0.01230583
H        2.29315496       8.44754566       1.88375288      -0.01693019       0.00042178       0.02479300
H        3.87122042       3.96682875       2.74761847      -0.00306597       0.00464034      -0.02735717
H        4.97918582       4.37795973       1.45935740       0.02316614       0.01927180       0.00062415
H        6.85965825       4.47823349       3.06071081      -0.00814697       0.00326094       0.02870193
H        5.79063207       4.07104609       4.39085518      -0.02783299       0.00409063       0.01223958
H        5.45101753       9.10913477       3.79055459       0.00331307       0.00223605      -0.00083829
H        3.76908988       9.32557262      -0.06586081      -0.01019021      -0.02211096       0.00157782
H        6.15887170      10.74473584      -0.02061037       0.00926068      -0.03196599      -0.01527713
H        6.36465777       2.28387066       1.97228823       0.00792451       0.01167951       0.01958923
H        7.02751120       2.05508355       3.59334162      -0.01887336       0.01042591       0.03073631
H        5.29873822       1.84492608       3.30517929      -0.01346219       0.00750139       0.00109804
H        7.34713553      11.75092174       2.49790954      -0.00024898       0.00591102       0.00170218
H        7.67789356      10.26070645       3.42052907       0.00239066      -0.00817215      -0.02118281
H        8.19004905      10.36592313       1.73486394      -0.01019025       0.01483656      -0.02025515
O        9.64280760       8.63593756       3.21244706       0.02838802       0.01906633       0.01196015
O       11.49234144      10.41701172       2.79433918       0.01715916       0.01076341      -0.03887069
O        9.92528019       9.68384742       0.84646885      -0.00413179      -0.00807893      -0.00091422
O       11.74410105       8.03142984       1.77912117      -0.00978792       0.00229263      -0.01935920
Mn      10.70630341       9.19333612       2.15434952      -0.01421588      -0.00418733      -0.01853796
O        4.91576652       2.96882917      10.95290499       0.00150006      -0.00268140       0.00572908
C        5.88723850       1.95854324      10.80176978       0.00004166      -0.00569878       0.01737762
C        3.59664219       2.45831816      10.83959897       0.00122422      -0.00349569       0.02093863
C        7.26594747       2.57225102      10.74934454      -0.00038856      -0.00622600       0.01434769
C        2.62349952       3.60703497      10.75437195       0.00009024      -0.00483686       0.02005729
H        5.80835914       1.25811559      11.64527907      -0.00167653       0.00020078       0.02248350
H        5.68971788       1.39444274       9.87806795       0.00083257      -0.01280640       0.02152535
H        3.52843170       1.84608326       9.93407930      -0.00819975      -0.01226240       0.02697927
H        3.37259842       1.81333963      11.70387741       0.00992547       0.00331190       0.02809569
H        8.02660541       1.78918798      10.75910225       0.00027385      -0.00523026       0.01634163
H        7.39684029       3.15381753       9.83700928      -0.00341213      -0.01001665       0.01189297
H        7.43507620       3.23011839      11.60449448       0.00021319      -0.00222453       0.01089343
H        1.60126166       3.22945461      10.73186790       0.00081359      -0.00620578       0.01575575
H        2.72450430       4.27220371      11.61188727      -0.00245546      -0.00259111       0.01857306
H        2.79617411       4.17755374       9.84219157       0.00106584      -0.00569477       0.02008471
O        8.53570161       5.58461526       1.83096326       0.00885272      -0.02682045      -0.02787402
C        8.60620161       6.50728944       0.75176653       0.01302165      -0.02377176      -0.02514061
C        9.80935840       5.02825395       2.12443495       0.01178269      -0.00737035      -0.01183790
C        7.32159195       7.28812213       0.68358754       0.01626390      -0.01776710      -0.01455508
C        9.66589259       4.07464601       3.28523483       0.01072542      -0.00121659      -0.00829202
H        9.45146767       7.18379617       0.89781762       0.00903606      -0.02024257      -0.01786318
H        8.77440469       5.97389416      -0.18959122       0.01788078      -0.02741414      -0.02250057
H       10.19265909       4.49894548       1.23874719       0.02686332      -0.00943500      -0.00439262
H       10.51680685       5.83517229       2.35621988      -0.00228032       0.00421232      -0.00902720
H        7.40065268       8.05281544      -0.08958659       0.01313891      -0.01489575      -0.01112704
H        6.46989667       6.64337400       0.45632828       0.00339401      -0.00556186      -0.00085604
H        7.15157732       7.77843927       1.64088760       0.03883106      -0.01495109      -0.01210858
H       10.62102836       3.59831906       3.51182654       0.01624283       0.01970906       0.00983263
H        9.32715732       4.60373177       4.17549361      -0.01675701      -0.00279178      -0.01805851
H        8.94113139       3.29391523       3.05531489       0.03303577      -0.01925811      -0.01530547
O        1.79067022       3.06272367       5.36072957      -0.01615101       0.00309047       0.00045636
C        2.02765092       2.26433583       4.21351934      -0.01094282       0.00541580       0.00064540
C        2.28705562       4.37529171       5.20681543      -0.01544405       0.00312889       0.00330058
C        1.46865586       0.88967631       4.44875515      -0.01385275       0.00586331      -0.00216779
C        2.03711561       5.14087727       6.47930034      -0.01082410      -0.00145397       0.00696504
H        1.56380409       2.73405590       3.33195793      -0.00645700       0.00708625      -0.00059405
H        3.11044283       2.21839461       4.01742505      -0.01006466       0.00246263       0.00707393
H        3.36430171       4.34063278       4.98466928      -0.01622158       0.00003092       0.00201765
H        1.79975929       4.86431447       4.34819533      -0.01748165       0.00527529       0.00583386
H        1.62663558       0.25506661       3.57823767      -0.00446418       0.00351372       0.00186673
H        1.93974253       0.42805257       5.31658824      -0.02134126       0.00940961       0.00318865
H        0.39353979       0.93132374       4.62146678      -0.01499608       0.00626539      -0.01259743
H        2.43198154       6.15111517       6.39322607      -0.00398923      -0.00336656       0.01432206
H        0.96897558       5.20886414       6.68434163      -0.00990744       0.00453345       0.00914144
H        2.52761224       4.64659508       7.31937659      -0.01243129      -0.01014650       0.00235029
O        1.45234973       9.87747584       7.35490170      -0.02239650       0.00812709       0.00985999
C        0.58085247       9.45392368       6.31448580      -0.01834688       0.00139061       0.00993365
C        0.76374762      10.25186461       8.53344988      -0.02733371       0.00812219       0.00715822
C        1.41618252       8.92703814       5.17757826      -0.01338157      -0.00107303       0.01494494
C        1.77479455      10.48090367       9.63173911      -0.03370228      -0.00232434       0.01480177
H       -0.09098541       8.67095169       6.69490648      -0.01803115       0.00305083       0.01257178
H       -0.04150784      10.29348520       5.97676665      -0.01899895      -0.00217134       0.00221944
H        0.17337823      11.16028475       8.34731581      -0.02137762       0.01177484       0.00793958
H        0.06417021       9.45682653       8.82469381      -0.03195485       0.01013014      -0.00045396
H        0.78350675       8.65135273       4.33732810      -0.01007873      -0.01030130       0.01550503
H        2.11133419       9.69447830       4.83590948      -0.01667298       0.00038072       0.01297772
H        1.98418778       8.05001850       5.48874728      -0.00945052       0.00416802       0.02135764
H        1.27813590      10.78722372      10.55248035      -0.04009117      -0.00762478       0.01362601
H        2.31985185       9.55554935       9.82281397      -0.03519807      -0.00471717       0.00527818
H        2.49048211      11.24953270       9.34014585      -0.02653351      -0.00482401       0.02727853
O        9.26883060       5.65762287       8.11112092       0.00440980      -0.01320091      -0.00648487
C        9.92196086       4.41981959       8.32320616       0.00092451      -0.01541963      -0.00924981
C        8.95626232       5.84883454       6.74249767       0.01337177      -0.01027399      -0.00813955
C       10.31410092       4.30917881       9.77391270       0.01007114      -0.01732031      -0.01254576
C        8.29212084       7.18647074       6.55924243       0.01661327      -0.00940382      -0.01327194
H        9.25155450       3.59445226       8.03674649      -0.00367996      -0.01360303      -0.00421847
H       10.80632653       4.34872749       7.67543363      -0.00285631      -0.01588385      -0.01403776
H        9.87531416       5.79160761       6.14150974       0.01822829      -0.01016663      -0.00054005
H        8.29609647       5.03922508       6.39647648       0.01630494      -0.01094550      -0.01148976
H       10.82119604       3.36111328       9.95458839       0.01739956      -0.01411662      -0.01732225
H       10.97982793       5.12413279      10.05970237       0.00732955      -0.01409210      -0.01674471
H        9.43415045       4.35088392      10.41240343       0.01412553      -0.02529419      -0.00696263
H        8.05261061       7.33720106       5.50573417       0.03106786      -0.00360779      -0.01559238
H        7.37063329       7.25705040       7.13725274       0.00898106      -0.01067050      -0.02571867
H        8.95816630       7.99017868       6.87418445       0.01429491      -0.01198739      -0.00235252
O        4.74172307       3.13118599       7.95345212       0.01110125      -0.00491884      -0.00596219
C        4.74446310       2.17644356       6.90561257       0.01435682      -0.00253522      -0.00795798
C        5.51450653       4.27671922       7.64042970       0.01510919      -0.00596318      -0.00104347
C        3.93123783       0.98388068       7.33873499       0.00342712       0.00181124      -0.01786467
C        5.54406064       5.20574934       8.82835625       0.01443371      -0.00401413      -0.00306553
H        4.31848825       2.61902425       5.99622631       0.02481151       0.00070846      -0.01159757
H        5.78256491       1.88567197       6.67836872       0.01366717      -0.00784746      -0.00177943
H        6.53404407       3.96726751       7.36605997       0.01523745      -0.00871305       0.00222052
H        5.08407816       4.77940822       6.75925708       0.01832199      -0.00212193      -0.00017413
H        3.92570914       0.20847881       6.57278353       0.01107541       0.00030220      -0.01645578
H        4.35074339       0.54699027       8.24551689      -0.01378197       0.00087463      -0.01050216
H        2.89969912       1.27595843       7.53624364       0.00292338       0.01002678      -0.03510522
H        6.10164565       6.10733256       8.57983636       0.02433047      -0.00997892      -0.00287369
H        4.53322546       5.48717511       9.11884889       0.01527232       0.00581271      -0.01060551
H        6.00804589       4.73173308       9.68636436       0.00623853      -0.00453839       0.00055835
O        5.65006682       9.29558248       7.11186800       0.00423218       0.02399373       0.00124964
C        4.97454299       8.84985937       8.27684807       0.01409119       0.01427737       0.00229587
C        6.72758993      10.16135748       7.41826036       0.00988534       0.01554567       0.00263226
C        3.89618906       7.88921748       7.85511266       0.01270017       0.01728454       0.00099343
C        7.39070705      10.57027257       6.12768514       0.00341955       0.02316508       0.00272241
H        5.69200583       8.37125359       8.96192050       0.02138546       0.01208755      -0.00719362
H        4.54007311       9.71380776       8.80194888       0.01540378       0.00914791       0.01209499
H        6.35303028      11.04201712       7.96017424       0.01687087       0.01335272       0.01091467
H        7.43867179       9.64778230       8.08104119       0.00968665       0.00477949      -0.00607872
H        3.36204819       7.49583341       8.72170334       0.02221404       0.00400427       0.00035207
H        3.17368893       8.39935225       7.22630570       0.00596942       0.02407581       0.01440577
H        4.33024411       7.04923729       7.31539140       0.00971246       0.02664301      -0.01581760
H        8.21256854      11.26083301       6.31766286       0.00678328       0.01916064       0.00271590
H        7.79628955       9.69962197       5.61162929      -0.00450322       0.02605323      -0.00800994
H        6.66836985      11.06525812       5.47565823      -0.00049505       0.03040860       0.01307789
