141
Lattice="11.846070154813853 0.0 0.0 0.0 11.846070154813853 0.0 0.0 0.0 11.846070154813853" Properties=species:S:1:pos:R:3:forces:R:3 energy=-72636.46875 stress="-0.0027031933423131704 0.0002436403010506183 -9.758583109942265e-05 0.0002436403010506183 -0.0011642271419987082 0.0004097492783330381 -9.758583109942265e-05 0.0004097492783330381 -0.004848712123930454" pbc="T T T"
N        5.62154165       8.00315379       2.79003442      -0.01448783      -0.01032186       0.00398609
N        6.44712263       9.99681199       2.99774743      -0.01052496       0.00658774      -0.01080661
C        6.11044335       5.59556644       2.21737915      -0.00403084      -0.00220773       0.00422767
C        7.60021765       5.52102894       2.51920851      -0.00366026      -0.00103289       0.00136751
C        5.33096727       6.58372992       3.06660136      -0.00027227      -0.00545764       0.01046672
C        8.35056688       4.57325220       1.58971302      -0.00418177       0.00046837      -0.00042006
C        9.84818175       4.51305284       1.86662480      -0.00412256       0.00052612      -0.00199035
C        6.62903511       8.71279583       3.30693975       0.01138568      -0.01213619       0.01104307
C        4.78230812       8.86649523       2.12618481      -0.01978838      -0.00683254      -0.00058758
C       10.60653685       3.65640451       0.86389133      -0.00507529       0.00307009      -0.00425991
C        5.29348970      10.11712327       2.26317525      -0.02018064      -0.00787428      -0.00925016
C        7.34149937      11.08620280       3.35320785      -0.00984052      -0.00412542      -0.01959090
H        5.95305354       5.83800967       1.16674606      -0.00636736       0.00047750       0.00580409
H        5.64906650       4.61709034       2.37583609      -0.00191715      -0.00344950       0.00224125
H        7.74159859       5.19698516       3.55631845      -0.00140776      -0.00162810       0.00060686
H        8.05314476       6.51544105       2.43466097      -0.00469333      -0.00073746       0.00132225
H        5.51245238       6.42180265       4.13199975       0.00555854      -0.00501153       0.00771257
H        4.25933612       6.46737312       2.89985895      -0.00273538      -0.00958208       0.01646019
H        7.92001604       3.56793187       1.66184661      -0.00376345       0.00056434      -0.00120740
H        8.19328122       4.89145546       0.55198691      -0.00544911       0.00164585       0.00041801
H       10.25371718       5.53166387       1.86287272      -0.00472803       0.00040057      -0.00016960
H       10.01031494       4.13260888       2.88142497      -0.00312565      -0.00145654      -0.00322118
H        7.45979320       8.32422949       3.86813984      -0.01213109       0.00627984      -0.00833848
H        3.89299937       8.52377505       1.63235573      -0.00782606      -0.01378451       0.01204668
H        4.95151036      11.06742148       1.89232061      -0.01414866      -0.01746317      -0.00737825
H       10.42831028       4.00379723      -0.15754985      -0.00466111       0.00647338      -0.00286877
H       11.67963395       3.67977449       1.04444208      -0.00548387       0.00110246      -0.00381804
H       10.32134631       2.60464655       0.91632147      -0.00671949       0.00375816      -0.00716247
H        6.78346879      11.83922369       3.90793948      -0.00538668      -0.00349328      -0.01247513
H        8.14665707      10.69691891       3.96894723      -0.00124632       0.00097248      -0.03102255
H        7.77309802      11.52034642       2.45239651      -0.02614478       0.00145833      -0.02724323
O       12.26943229      12.50043229       0.74448115       0.00279748       0.00548411       0.00634778
H       11.59418251      12.16794045       0.14558506       0.00103903       0.01015434       0.00618142
C        3.42084437       3.37082638       4.66306600      -0.00098504      -0.00206948      -0.00858541
C        2.20558187       4.01825879       4.85999147      -0.00068829      -0.00422828      -0.00250955
C        3.48611670       2.26328554       3.82321974      -0.00260605       0.00052180      -0.01150153
C        1.06226343       3.56696072       4.20792334      -0.00232254      -0.00397392       0.00062341
C        2.34373393       1.80971578       3.17348883      -0.00441566       0.00055200      -0.00791673
C        1.13261804       2.46626215       3.36040643      -0.00414988      -0.00155832      -0.00183018
H        4.30595489       3.71576717       5.18393506       0.00036740      -0.00223407      -0.01110908
H        2.14837480       4.86564177       5.53300623       0.00078114      -0.00608850      -0.00044253
H        4.43586037       1.76041892       3.67452291      -0.00272302       0.00273292      -0.01751936
H        0.11950566       4.07892447       4.36218168      -0.00211376      -0.00560234       0.00517974
H        2.36813952       0.96157797       2.50052526      -0.00611006       0.00288965      -0.01019867
H        0.27096630       2.11361989       2.80717620      -0.00518769      -0.00131240      -0.00011577
C       10.08868314       8.45029849       3.98444443       0.00027967       0.00235222       0.00006218
C       10.26068440       9.50588495       4.87522035      -0.00063679       0.00591122      -0.00387324
C       10.35165096       8.63638483       2.62872417       0.00522042      -0.00236513       0.00016273
C       10.69960618      10.74432556       4.40953563       0.00452863       0.00176859      -0.00614055
C       10.80280146       9.86878221       2.17342546       0.00664765      -0.00553489      -0.00250237
C       10.97920710      10.92572193       3.06054709       0.00477597      -0.00165106      -0.00700884
H        9.78752872       7.47278976       4.34489526      -0.00156141       0.00472710       0.00265919
H       10.08996555       9.35897626       5.93651969      -0.00383298       0.00968320      -0.00397916
H       10.23321729       7.81195910       1.93599372       0.00684138      -0.00520096       0.00326982
H       10.85556241      11.55618816       5.10998955      -0.00182242       0.00651577      -0.01013325
H       11.05854308      10.02552487       1.13204170       0.00977118      -0.00937080      -0.00253528
H       11.37219128      11.85308357       2.65135276       0.00482967      -0.00349635      -0.00956908
C        6.55711378       7.28753450      11.06769448       0.00973068       0.00040546      -0.00083941
C        7.67339188       7.87474338      11.65227088       0.00934100      -0.00134534      -0.00036107
C        5.47209220       8.07346445      10.69595849       0.01124233       0.00174855      -0.00244917
C        7.72065125       9.25122259      11.83367750       0.01142484      -0.00160601       0.00050340
C        5.52365525       9.44990675      10.87035308       0.01288158       0.00137677      -0.00173003
C        6.65193052      10.03813027      11.42397192       0.01202423      -0.00015560      -0.00005593
H        6.53251971       6.21885692      10.88939351       0.00820512       0.00059697      -0.00069847
H        8.52174078       7.26377580      11.93418600       0.00844575      -0.00205046       0.00045133
H        4.59418676       7.61421021      10.25745288       0.01182100       0.00321747      -0.00405943
H        8.60461234       9.71002304      12.25857712       0.01077512      -0.00296920       0.00134765
H        4.68234067      10.06231783      10.57728594       0.01452050       0.00249288      -0.00353630
H        6.69468468      11.11418115      11.54149037       0.01363939      -0.00085835       0.00044607
C        9.76936348       3.01952925       7.10018579       0.01336944      -0.00860400      -0.00156504
C        9.03175043       3.77464246       6.19560639       0.01428580      -0.00966537      -0.00282526
C       10.78195451       3.61706820       7.84449739       0.01036242      -0.00703928       0.00122486
C        9.30734223       5.12786168       6.03854265       0.01193275      -0.00943430      -0.00195664
C       11.06589471       4.96772287       7.67260064       0.00771742      -0.00681607       0.00187612
C       10.32864378       5.72355392       6.76720428       0.00888081      -0.00769480       0.00056036
H        9.55392088       1.96593082       7.23148709       0.01543877      -0.00881468      -0.00281895
H        8.22863197       3.31691711       5.63073187       0.01769119      -0.01195600      -0.00552819
H       11.34783640       3.03232475       8.55865639       0.01026671      -0.00705869       0.00099549
H        8.71793578       5.72273182       5.35269376       0.01320236      -0.01076223      -0.00362097
H       11.85711129       5.43162804       8.24909118       0.00539915      -0.00556590       0.00414810
H       10.53947293       6.77775582       6.63782198       0.00769041      -0.00734213       0.00112198
C        4.04567482       4.99421449       8.30712870      -0.00153184       0.00158445      -0.00244352
C        5.39922568       5.29748654       8.40633763      -0.00024958      -0.00434273      -0.00576742
C        3.64311245       3.68795059       8.06668394      -0.00779948       0.00401439      -0.00269526
C        6.35166079       4.29399946       8.27710421      -0.00529410      -0.00841267      -0.00983756
C        4.59575941       2.68996791       7.91363956      -0.01317369       0.00004725      -0.00629247
C        5.94865098       2.98771287       8.02457395      -0.01180520      -0.00602776      -0.00993952
H        3.29977434       5.77203778       8.42710142       0.00247892       0.00460298       0.00039239
H        5.71887522       6.31311359       8.59232514       0.00452581      -0.00621745      -0.00531890
H        2.59181034       3.44392993       7.98556972      -0.00890659       0.00882004      -0.00006850
H        7.40396816       4.53202060       8.37157401      -0.00437498      -0.01320877      -0.01296066
H        4.27070566       1.68232577       7.69757561      -0.01807909       0.00189553      -0.00647604
H        6.69252229       2.20525935       7.92442227      -0.01573594      -0.00890446      -0.01300448
C        3.02045973       9.12473528       4.81915033      -0.03763541      -0.00115777       0.00223955
C        2.13893424       8.26825845       5.46271263      -0.02471465       0.00326842       0.02293056
C        2.97679369      10.49202526       5.04570719      -0.03038713      -0.00050424      -0.00515782
C        1.22790637       8.78423440       6.37183150      -0.01158864       0.01134225       0.03197969
C        2.04962296      11.01070032       5.93963038      -0.01719183       0.00785914       0.00461803
C        1.18601367      10.15391322       6.61005496      -0.00748306       0.01239736       0.02101578
H        3.76642949       8.71787567       4.15947805      -0.04713054      -0.00671903      -0.00629060
H        2.17709831       7.20450417       5.25891311      -0.02748917       0.00227125       0.03142846
H        3.67464144      11.15321256       4.54644759      -0.03844042      -0.00471891      -0.02024024
H        0.53581776       8.12680896       6.88245752      -0.00326946       0.01549698       0.04690145
H        2.00387055      12.07973736       6.10932645      -0.01507572       0.00854379      -0.00286545
H        0.45870536      10.54970471       7.30649850       0.00136900       0.01816432       0.02760837
C        4.80878752       8.51560824       7.36293553       0.00458090       0.00746359      -0.00541765
C        4.46169787       9.74627143       7.89608828       0.00327840       0.00620293      -0.00575821
C        5.99192198       8.37545339       6.64714303       0.00475044       0.00793424      -0.00465277
C        5.29498456      10.84215559       7.71558089       0.00276548       0.00717480      -0.00436706
C        6.81033909       9.47852420       6.44033885       0.00414022       0.00882532      -0.00357680
C        6.45887193      10.71590914       6.96964791       0.00351757       0.00730693      -0.00324507
H        4.15628706       7.66556898       7.50007736       0.00540940       0.00641134      -0.00561362
H        3.54048238       9.85275594       8.45377317       0.00301871       0.00588961      -0.00640691
H        6.28064203       7.39919017       6.27220772       0.00597719       0.00885738      -0.00445207
H        5.04062462      11.78846222       8.17251414       0.00202466       0.00625804      -0.00466611
H        7.75311131       9.36989460       5.91902181       0.00344920       0.00938136      -0.00465650
H        7.11356132      11.56768231       6.82823641       0.00264032       0.00803246      -0.00272990
C        2.76675626       1.92844708      11.65006793      -0.00288382      -0.00147095       0.01092264
C        2.81311158       3.31536131      11.72548190      -0.00180748      -0.00212264       0.00649297
C        3.95593865       1.22819256      11.47554189      -0.00293013      -0.00253805       0.01020946
C        4.02513027       3.99328743      11.64469350      -0.00290059      -0.00242282       0.00052180
C        5.17380419       1.89994450      11.39126330      -0.00316329      -0.00369173       0.00661536
C        5.20974049       3.28575971      11.48453127      -0.00299218      -0.00371249      -0.00061438
H        1.79518737       1.39042270      11.80526508      -0.00390208      -0.00112206       0.01583457
H        1.89279912       3.86988520      11.86427740      -0.00134696      -0.00140933       0.00822081
H        3.92787583       0.14556372      11.40924962      -0.00368933      -0.00232181       0.01382026
H        4.04626407       5.07659830      11.70095330      -0.00228942      -0.00269625      -0.00326507
H        6.09929315       1.35602997      11.23763271      -0.00412740      -0.00410103       0.00415612
H        6.15725456       3.80449708      11.41713417      -0.00396478      -0.00336068      -0.00575035
C        9.29172006      10.67744772       9.18222098       0.02142452       0.00436788      -0.00372434
C        8.93871180       9.35384451       8.94890977       0.02578214       0.00326696      -0.00419544
C       10.57406626      10.98858879       9.61954813       0.01649810       0.00690922       0.00820813
C        9.87269356       8.34229733       9.12723527       0.02484867       0.00545922       0.00854410
C       11.50708391       9.97416026       9.81498046       0.01537870       0.00907981       0.02050152
C       11.15875074       8.65229800       9.55636471       0.01943135       0.00804389       0.02107173
H        8.54970285      11.45815636       9.06176085       0.02251880       0.00283716      -0.01368787
H        7.92408263       9.10711598       8.67163580       0.02944982       0.00168715      -0.01505168
H       10.84851086      12.01601118       9.82810263       0.01357647       0.00770794       0.00688747
H        9.58436578       7.31186674       8.95883331       0.02858439       0.00474824       0.00782788
H       12.49663801      10.22249692      10.17663729       0.01123762       0.01146539       0.02865371
H       11.88579638       7.86207694       9.70120464       0.01884006       0.00966832       0.03004919
