148
Lattice="11.663971973917016 0.0 0.0 0.0 11.663971973917016 0.0 0.0 0.0 11.663971973917016" Properties=species:S:1:pos:R:3:forces:R:3 energy=-108230.734375 stress="-0.002392351860180497 -0.0007559641962870955 -8.656178033561446e-05 -0.0007559641962870955 -0.003912869840860367 0.0002606352645670995 -8.656178033561446e-05 0.0002606352645670995 -0.003424343653023243" pbc="T T T"
N        6.99709013       8.95234360       4.21181994       0.00753495      -0.00130498       0.00213275
N        8.95691527       9.83138408       4.46240132       0.00848651      -0.00449428      -0.00120620
C        5.91022726       6.96053568       3.15593399       0.00326347       0.00099930       0.00593519
C        7.08191763       5.99531444       3.26088921       0.00429633       0.00231197       0.00202721
C        5.86581895       8.02204071       4.24492521       0.00657779       0.00078988       0.00584128
C        7.11678950       4.97346512       2.13154628      -0.00106958       0.00060440       0.00404486
C        8.35350603       4.08017196       2.18882401      -0.00274277      -0.00119416       0.00105789
C        8.20795619       8.76631724       4.74415566       0.00541332       0.00027776       0.00601125
C        6.97900998      10.17199406       3.57585475       0.01173881      -0.00714213      -0.00852063
C        8.35893423       2.97189509       1.14031402      -0.00833948      -0.00231147       0.00290030
C        8.21559282      10.71623210       3.72366329       0.01321831      -0.00898594      -0.01052460
C       10.33471466      10.03895434       4.88495109       0.00655919      -0.00291853       0.00361130
H        5.89859300       7.44329076       2.17750833      -0.00023649       0.00071181       0.00606072
H        4.95940133       6.42721120       3.21096132       0.00411540       0.00024900       0.00919763
H        7.05673826       5.46868128       4.22002979       0.00979481       0.00427839       0.00312701
H        8.02944206       6.54569124       3.25339966       0.00355580       0.00306942      -0.00386247
H        5.83160812       7.58660215       5.24157197       0.00993793       0.00055581       0.00566778
H        4.96818373       8.62221074       4.14844234       0.00677583       0.00091164       0.00885570
H        6.19488577       4.37583739       2.14750735      -0.00209603       0.00260964       0.00805841
H        7.09872045       5.50826651       1.18060909      -0.00390785      -0.00114363       0.00337750
H        9.24463983       4.70028666       2.05535386      -0.00247529      -0.00277993      -0.00281020
H        8.44795440       3.65396190       3.19339508       0.00021135      -0.00016600       0.00084916
H        8.54670419       7.91445945       5.31260909       0.00226496       0.00397736       0.01323310
H        6.09418402      10.53626868       3.08401843       0.01453349      -0.00999144      -0.01422919
H        8.63620090      11.63333975       3.36011550       0.01624398      -0.01435908      -0.01830531
H        8.39413225       3.39023328       0.13534893      -0.01317974      -0.00390732       0.00240281
H        9.20813977       2.29724007       1.24763522      -0.00829571      -0.00222728      -0.00020917
H        7.45678033       2.34988585       1.18969488      -0.00806549      -0.00174870       0.00830748
H       10.34905446      10.81365878       5.65187282       0.00316509      -0.00261840       0.00287601
H       10.70966829       9.10763343       5.29662701       0.00576785      -0.00226370       0.00515193
H       10.90165412      10.33166701       4.00424688       0.00904867      -0.00248349       0.00592577
O        9.77616063      11.34012807       0.74264119      -0.00253582       0.01683092      -0.00077811
O       11.49728280      10.72340409       1.99056716      -0.00876534       0.01737306       0.00626862
O       11.63410795      10.41624340      -0.19715320      -0.01357031      -0.01636952       0.01295018
C       10.99373478      10.81738603       0.89484423      -0.00774065       0.00656589       0.00696683
H        9.39924730      11.27822854      -0.18965514      -0.00414520       0.00836977       0.00066568
O       10.28971257      10.05047161       9.31073910      -0.00556254      -0.00356694       0.00764295
O        8.49957047      11.02883515      10.17101602      -0.00328735       0.00261688       0.00330144
C        8.16041796       9.42983141       8.43221160      -0.00510859       0.00779557      -0.00023305
C        9.03933415      10.24364663       9.33989881      -0.00434196       0.00166959       0.00386694
H        8.72041433       9.11239102       7.55722558      -0.00250047       0.00261186       0.00374065
H        7.85756338       8.53487039       8.98673558      -0.01659335       0.01143391      -0.00143784
H        7.26281847       9.98117704       8.16145696       0.00151841       0.01508793      -0.00572921
H       11.06602092      10.39409465      10.63060566      -0.01071204      -0.01279648       0.01139797
O       11.08757663       7.60449041       8.96619236      -0.00298806       0.00004745       0.00305575
O       10.32702659       7.42038313       6.86440053      -0.00723815      -0.00112134       0.00517523
C       11.00018686       5.44595871       8.06225404       0.00005834       0.00050032       0.00319277
C       10.78557649       6.91578290       7.87606011      -0.00380088      -0.00059479       0.00391066
H       11.82215706       5.26226522       8.74814593       0.00287290       0.00266431      -0.00001335
H       10.08545685       5.03383326       8.49448997       0.00279421      -0.00118545       0.00674989
H       11.19265841       4.96774313       7.10762552      -0.00234355       0.00108583       0.00262552
H       10.79593663       8.56138173       8.89430739      -0.00574822      -0.00104965       0.00430341
O        0.99639058       7.61874582       3.86671786       0.00706977       0.00117862      -0.00633919
O        3.06704855       7.67003611       4.69241941       0.00355202       0.00849813       0.00083846
C        2.25057439       9.60727341       3.54555347       0.00299861       0.00248861      -0.00837839
C        2.17558437       8.22442824       4.08658156       0.00446498       0.00443178      -0.00457925
H        2.21912244       9.57134180       2.45713669      -0.00770826       0.00140182      -0.00759545
H        1.38857794      10.19647047       3.84559004       0.00754447       0.00484312      -0.00038856
H        3.16407258      10.08980156       3.87684323       0.00634465       0.00149721      -0.01729659
H        1.10652025       6.71605693       4.22238066       0.00735953       0.00260293      -0.00331116
O       12.09059481       1.87757393       1.23495148       0.00160983       0.02347827      -0.02105993
O       11.93662497       3.85649233       2.23018536       0.00183715       0.00822893       0.00704313
C       11.19932591       1.90829476       3.42901373       0.00881422      -0.00983897      -0.01890582
C       11.77553561       2.64677240       2.27448492       0.00343386       0.00696087      -0.00883374
H       10.17217602       1.63201628       3.18703807       0.00904870      -0.00800155      -0.02107796
H       11.75335216       0.99182305       3.61062273       0.00927202      -0.01233569      -0.03733924
H       11.20830295       2.55177019       4.30302551       0.01044972      -0.02459006      -0.00907934
H       12.48258906       2.45787866       0.56442120      -0.00246471       0.03438926      -0.01323670
O        6.14046511       2.07829370       3.80224245      -0.01033807       0.00974244       0.00765252
O        8.09879565       1.94128289       4.83716820      -0.00106233      -0.02029190      -0.01982974
C        6.11395254       1.16977600       5.98443073       0.00697973      -0.01643872      -0.00503159
C        6.89608037       1.75051359       4.86217761      -0.00139570      -0.01001936      -0.00694470
H        5.07118649       1.02769460       5.71585619       0.00838032      -0.02715866      -0.00284163
H        6.56904974       0.23339685       6.30251904       0.01790392      -0.00936264      -0.00218233
H        6.19724653       1.84074328       6.84055084      -0.00056719      -0.01164170      -0.00818625
H        6.72533290       2.49398131       3.14609291      -0.01501054       0.01356658       0.00601870
O        3.39539663       0.99595291       2.95817683      -0.00716940       0.00659323       0.00140995
O        3.70275077       2.88436916       1.77912689       0.01062618       0.00498533       0.00464632
C        4.34566857       0.77776546       0.82283194      -0.00528672       0.00114238       0.00358129
C        3.78309301       1.67672041       1.87886475       0.00014725       0.00420511       0.00324957
H        5.38067353       0.53300853       1.06917125      -0.00614391      -0.00266210       0.00232450
H        3.79584828      -0.15879920       0.78125261      -0.00912225       0.00368896       0.00510902
H        4.33846481       1.27105893      -0.14551124      -0.00415337       0.00015549       0.00329004
H        3.04465062       1.64281983       3.61942207      -0.00321800       0.00767180       0.00220611
O        1.73039688       4.89896652       4.08455661      -0.00717962       0.00222639       0.01528889
O        2.23073254       2.77641881       4.53316080      -0.00143769       0.00353122       0.00919519
C        3.79321622       4.47795996       5.16650558      -0.00543302       0.00507969       0.01264840
C        2.52413982       3.95993531       4.58484220      -0.00442800       0.00315809       0.01216650
H        4.56176041       4.33428388       4.40083184      -0.00437307       0.00446767       0.01428467
H        3.70689225       5.53550280       5.39974314      -0.00617499       0.00506046       0.01135061
H        4.07010675       3.88015989       6.03266814      -0.00615514       0.00660782       0.01367471
H        1.04964683       4.46931778       3.49142996      -0.00590658       0.00146019       0.01444715
O        9.98877697       2.31967107       6.68421085      -0.02785443       0.00090454      -0.01578063
O        9.02210753       0.44163780       7.39140906       0.00507498      -0.01169455      -0.00304294
C        9.88907719       1.94585427       9.04993318       0.01848513      -0.00370261      -0.01532263
C        9.57788215       1.47626001       7.66801377       0.00242853      -0.00059706      -0.00840381
H       10.52624300       1.20767663       9.53744154       0.01166289      -0.01000921      -0.01738609
H       10.35752858       2.92426400       9.05700379       0.03017366      -0.00934303      -0.02179940
H        8.95432756       1.97301841       9.60808703       0.02319872       0.01125867      -0.00847258
H        9.53161036       1.97803881       5.88373561      -0.04617094       0.00266725      -0.00722873
O        8.54873736       4.76641924       6.21734958       0.00415707      -0.00891703       0.02002358
O        7.40771496       3.53282392       7.69542102      -0.01947978      -0.00897676       0.00148728
C        6.63360138       5.74317889       7.17209373      -0.00031906      -0.00243545       0.00085070
C        7.55018731       4.56512123       7.07994589      -0.00606031      -0.00592691       0.00628874
H        7.19544437       6.66671026       7.30818895       0.00430499      -0.00477949      -0.00503963
H        6.06436715       5.82528139       6.24626908      -0.00044285      -0.00592359       0.00082564
H        5.94658553       5.59757600       7.99872085      -0.00061949       0.00568070       0.00162049
H        9.12733843       3.97939637       6.27405616       0.00321816      -0.01012200       0.02756166
O        3.17833763       6.24385577      -0.66399098       0.00140989       0.00859132      -0.00635377
O        3.29653018       7.35289944       1.28274868       0.00088084       0.00006670      -0.00198197
C        1.14005498       6.75917921       0.41957732       0.00137532       0.00705088      -0.00716698
C        2.63859078       6.82099538       0.41454562       0.00103456       0.00479546      -0.00493360
H        0.73997049       6.17485492      -0.40240604       0.00150036       0.01415528      -0.01190439
H        0.82105057       6.33417104       1.37149099      -0.00011791       0.00047915      -0.01083928
H        0.76158805       7.78172776       0.34567068       0.00318323       0.00789787      -0.00016633
H        4.16556995       6.32973132      -0.62983456       0.00140025       0.00607979      -0.00437038
O        6.01872477      10.44483872      10.74257613      -0.00098467      -0.00349413       0.00486022
O        5.01447359      10.98158205       8.80411088       0.00784471       0.00584370       0.00373375
C        3.83743541       9.64203422      10.41799643      -0.00598413       0.01290959      -0.00201476
C        4.99348396      10.43700621       9.88787632       0.00128675       0.00451177       0.00281543
H        3.79857258       8.71389230       9.84636584      -0.01356837       0.01576525      -0.00520848
H        3.95996745       9.39101843      11.46796007      -0.01012990       0.00875507      -0.00274704
H        2.90052427      10.17146714      10.25574376      -0.00026411       0.02220652      -0.00196360
H        6.84811796      10.83755651      10.34664579       0.00041041      -0.00408264       0.00754762
O        3.87267798       7.53293058       7.76217065      -0.00391552      -0.00276238       0.00759548
O        1.94226148       6.52160408       7.25641750       0.00470692       0.01164937       0.00105639
C        2.01822185       8.93048826       7.32007723      -0.00099295      -0.00122833       0.00298833
C        2.56161070       7.54386868       7.41467319      -0.01018137      -0.01222587       0.00076725
H        1.76249207       9.26600734       8.32629349      -0.00958915      -0.00437709       0.00195965
H        2.75988123       9.61763850       6.91921598       0.00188823       0.00082389       0.01112952
H        1.10889430       8.92117997       6.72550378       0.00386961       0.00125431      -0.00395960
H        4.10110793       6.60251374       7.89359219      -0.00556123      -0.00170183       0.00819812
O        7.72236414       5.12876332      10.33142502      -0.00644511      -0.00820220       0.00173561
O        5.86789393       6.31581386      10.71618779      -0.00048679      -0.00013751       0.00130635
C        5.68275464       3.95166928      10.32960358      -0.01119554       0.00072366       0.00532500
C        6.41183389       5.24622275      10.47192048      -0.00535533      -0.00278294       0.00222552
H        6.09700102       3.37521963       9.50529046      -0.00828116      -0.00819482       0.01371543
H        5.83657036       3.38616458      11.25106793      -0.02386253       0.00851920       0.01173893
H        4.61639637       4.12219065      10.21157126      -0.00892729       0.00603921      -0.00511018
H        8.22017912       5.90852942      10.70856112      -0.00309004      -0.01013541       0.00058852
O        9.84858450       8.03518877       1.74569194       0.01460242      -0.00641954      -0.01199748
O        9.35710591       6.68409400       0.03062488       0.00268103      -0.01332784      -0.00257254
C        7.86783155       8.48656411       0.56776215       0.01016921      -0.00739408      -0.00270744
C        9.06755890       7.63513156       0.73723740       0.00881246      -0.00927627      -0.00588545
H        7.54843094       8.91763181       1.51006130       0.01156323      -0.01145785      -0.00061592
H        8.14165966       9.32607262      -0.07160449       0.01077829      -0.00475207       0.00149567
H        7.06427725       7.94060547       0.08296283       0.00918829      -0.00445959      -0.00364487
H       10.66651564       7.51252749       1.75291964       0.01312369      -0.00806528      -0.01341668
