144
Lattice="11.590377762912505 0.0 0.0 0.0 11.590377762912505 0.0 0.0 0.0 11.590377762912505" Properties=species:S:1:pos:R:3:forces:R:3 energy=-112903.8046875 stress="-0.0040090992115437984 -0.00019264700677013025 -6.623783338000067e-05 -0.00019264700677013025 -0.003356208326295018 -0.0002778325433610007 -6.623783338000067e-05 -0.0002778325433610007 -0.0034362063743174076" pbc="T T T"
N        5.30184416       7.51135828       1.89266098       0.00661689      -0.00086707       0.01153367
N        6.02025157       9.54630777       1.72007868       0.00578403      -0.00190711       0.00565955
C        5.90688059       5.12304326       1.84259561       0.00611980      -0.00011188       0.00918332
C        7.39076029       5.39130733       2.04234444       0.00621054       0.00414801      -0.00071552
C        5.01639565       6.18903322       2.45300736       0.00855902      -0.00046670       0.01292491
C        8.28066754       4.30681973       1.45881456       0.00588164       0.00382155       0.00048625
C        9.75133953       4.53608672       1.77266716       0.00560802       0.00670952      -0.00259978
C        6.06340517       8.44055551       2.46453631       0.00310540       0.00150624       0.01005721
C        4.77906626       8.02379487       0.73437462       0.01132831      -0.00707337       0.00717705
C       10.64506108       3.49354265       1.12552907       0.00561011       0.00634778      -0.00089328
C        5.21891157       9.30528036       0.62694047       0.01081079      -0.00739487       0.00324571
C        6.64240611      10.81498723       2.07812894       0.00300279      -0.00022393       0.00188160
H        5.67461799       5.03619650       0.78199986      -0.00044645      -0.00416482       0.01103085
H        5.62905673       4.16417322       2.29133295       0.01156706       0.00101076       0.01445885
H        7.60667609       5.50837798       3.10798480       0.01150049       0.01013998      -0.00261679
H        7.66127095       6.34021950       1.56701533       0.00132876       0.00226825      -0.00677386
H        5.15114195       6.27290044       3.53213025       0.01434685      -0.00074115       0.01194727
H        3.95668940       6.00453754       2.27022320       0.00800204      -0.00052601       0.01822674
H        7.97669278       3.32505470       1.84282853       0.00803948       0.00473410       0.00368261
H        8.14971837       4.27743606       0.37276486       0.00395491       0.00043510       0.00105223
H       10.02620981       5.53993783       1.43235179       0.00387323       0.00590247      -0.00535573
H        9.88615859       4.52971584       2.85989679       0.00700632       0.00952929      -0.00309566
H        6.64106058       8.31776917       3.36501988       0.00083413       0.00573671       0.01256618
H        4.11306792       7.45023013       0.11827662       0.01561378      -0.01081739       0.00652478
H        5.00184856      10.06519453      -0.09829674       0.01378449      -0.01074899      -0.00074367
H       10.53013387       3.50519475       0.03990534       0.00492915       0.00400117      -0.00053985
H       11.70080493       3.65867683       1.34948868       0.00539823       0.00714531      -0.00198306
H       10.39924281       2.48423604       1.45396159       0.00619361       0.00726208       0.00110221
H        5.86581778      11.57312842       2.17510748       0.00163895      -0.00194928       0.00170906
H        7.14813033      10.68819695       3.02942567       0.00511739       0.00274682       0.00099942
H        7.37693443      11.10391638       1.32736861       0.00070912       0.00029705       0.00027913
S       10.36769690      11.00682451       0.45277254       0.00159752       0.01593000      -0.00874984
F        9.61720971      11.56975052       2.93342856       0.01299414       0.00854903      -0.00666071
F       11.27585621      10.18014956       2.84449046       0.01279566       0.00937502      -0.01427038
F        9.28127911       9.50126686       2.35490885       0.01164982       0.01038331      -0.00864133
O       10.69098751       9.74531921      -0.17757668       0.00358519       0.02038550      -0.01683468
O       11.40942922      12.00521400       0.48436363       0.00527394       0.01627159      -0.00599269
O        9.03563664      11.52119432       0.13580241       0.00452542       0.01608139      -0.00090420
C       10.14162916      10.53934380       2.23314982       0.00989613       0.01019073      -0.00959885
O        5.82422489       3.15341601      10.73826913       0.00428779      -0.00276692       0.00062152
O        5.14344549       5.10465184      10.09978585       0.00402308      -0.00400431       0.00083455
O        7.07456249       4.30267470       9.23955926       0.00210887      -0.00617276      -0.00849408
C        6.73454327       2.02891346      10.67613080       0.00329435      -0.00289220       0.00144924
C        5.91986464       0.76472115      10.73458212       0.00404826      -0.00330627      -0.00542499
C        6.11292570       4.18568165       9.95183444      -0.00280732      -0.00539501       0.00200474
C        5.40799806       6.33613990       9.40032491      -0.00131135      -0.00941341      -0.00978696
H        7.32348739       2.10013680       9.76606243       0.00692040      -0.00051096       0.00375709
H        7.41196574       2.09486995      11.52556374       0.00009328      -0.00500463       0.00381863
H        6.61029183      -0.07254047      10.83372220       0.00396726      -0.00277144      -0.00530260
H        5.24984629       0.78332186      11.59571493       0.00068062      -0.00630721      -0.00810587
H        5.31761288       0.62737793       9.83771653       0.00779349      -0.00080031      -0.00788428
H        6.23600940       6.85801126       9.87844796       0.00899452      -0.01103726      -0.02619457
H        4.48887134       6.91366943       9.46574767       0.00308914      -0.00444516       0.00114801
H        5.65013894       6.15003032       8.35916526      -0.01886550      -0.01715261      -0.01245633
O        2.93205006       9.01815978       3.15562226      -0.01445030       0.00585352      -0.00278325
O        1.93834605       7.63894082       1.83444985      -0.00944039       0.01686138      -0.01083003
O        2.02034937       9.82916972       1.24050464       0.01746324       0.03006053      -0.02974570
C        3.19902949      10.36045625       3.61476073      -0.00734022       0.00006613       0.00668526
C        4.25180530      10.26909434       4.68805904      -0.01421827      -0.00796834       0.01074287
C        2.25730952       8.93233132       1.99961169       0.00792506      -0.01130086       0.00944579
C        1.04419769       7.36354156       0.73998090       0.00343743       0.01946512      -0.02154170
H        3.50864231      10.96851288       2.76303265       0.00057024       0.00296992       0.00923213
H        2.26081205      10.77412767       3.99314894      -0.00710267       0.00520925       0.00272451
H        4.36520676      11.22379125       5.20080073      -0.01419511      -0.01277123       0.01653212
H        3.98303767       9.52030754       5.42978718      -0.02225269      -0.01208772       0.00446141
H        5.21351953       9.99234374       4.26504977      -0.01292285      -0.01033702       0.01490866
H        0.04314202       7.71296789       0.98323468       0.00343925       0.03183548      -0.03805104
H        1.05917940       6.28210174       0.62410725      -0.00576637       0.02076867      -0.01983973
H        1.36749875       7.86971403      -0.16645231       0.02253525       0.01514111      -0.01909137
O        2.49524133       3.26015821       4.84410026      -0.00643039      -0.01777768      -0.00003589
O        2.21129979       4.55841839       6.55254888      -0.00498661      -0.02096758       0.00112545
O        4.31669229       4.05090525       5.92877819      -0.00459713       0.00748183      -0.02070215
C        3.36857111       2.49470315       3.97906967      -0.00874916      -0.01082460      -0.00776675
C        2.68036210       2.29937056       2.65514802      -0.01367816      -0.00442683      -0.00587517
C        3.11924878       3.96177037       5.78969543      -0.00618315      -0.00901077      -0.00809404
C        2.76152393       5.50704115       7.48983788      -0.00819880      -0.01586168      -0.00270216
H        4.30903173       3.03587226       3.87574255      -0.01055631      -0.00848779      -0.00841278
H        3.57400287       1.55286801       4.48969570      -0.00532945      -0.01299989      -0.01391773
H        3.30865967       1.68640845       2.00673179      -0.01442976       0.00291239      -0.01300854
H        1.71884065       1.79807236       2.75603860      -0.01112849      -0.00877273      -0.00532015
H        2.52523770       3.25610018       2.15562493      -0.01987062      -0.00162986       0.00231655
H        3.26813763       4.97660111       8.29258515       0.00895087      -0.01072977      -0.01057705
H        1.90775463       6.06488549       7.86575843      -0.01190105      -0.03027692       0.00947211
H        3.45089398       6.17874609       6.98253874      -0.02505311      -0.00381795      -0.00891393
O        8.07945008       8.45926392       5.47035208      -0.00182784       0.01146191      -0.00525495
O        7.80725467       6.32730133       5.41422742       0.00549254       0.01088401      -0.00448044
O        6.26899658       7.57313067       6.51571329       0.01775503       0.00285551       0.01915264
C        7.77431803       9.77499895       5.98341289      -0.00014752       0.00998172      -0.00114830
C        9.07170929      10.53265475       6.07398649       0.00055754       0.00742649       0.00542901
C        7.28987302       7.46704061       5.87515026       0.00699311       0.00781591       0.00546652
C        7.02546187       5.15557962       5.70025466       0.01646964       0.00655387       0.00751220
H        7.06979516      10.24974428       5.29553733       0.00366792       0.01348606      -0.00219014
H        7.28074572       9.66681546       6.94738998      -0.00369434       0.00767106      -0.00356016
H        8.87658835      11.57961314       6.31029153       0.00114350       0.00698513       0.00674579
H        9.69258114      10.10089714       6.85363742      -0.00337099       0.00541519       0.00711566
H        9.60845229      10.48748859       5.12941876       0.00419803       0.00848522       0.00757250
H        6.86847549       5.03494179       6.77057932       0.03387854       0.00644585       0.00985810
H        7.60311939       4.32458603       5.30293796       0.01582362       0.01022233      -0.00042485
H        6.05816293       5.21181524       5.21286838       0.00925985       0.00027083       0.02176376
O        1.66647782       8.31700964       6.02984670      -0.01371093      -0.01089874       0.01071221
O        1.57138199       6.65994944       4.63872196      -0.00483520      -0.00484820       0.00461732
O       -0.35220485       7.72243067       5.18645275      -0.00919795       0.00300705      -0.01656821
C        0.98606294       9.25557945       6.90090821      -0.01778173      -0.01049078       0.00575720
C        1.97731213      10.29121687       7.34492921      -0.01874226      -0.01590663       0.02004044
C        0.83969100       7.58157673       5.27535129      -0.00322640      -0.00437725      -0.00178831
C        0.79531805       5.76676405       3.82703130       0.00215712       0.00006301      -0.00649823
H        0.16126771       9.69627454       6.34745974      -0.00980008      -0.00541253      -0.00198853
H        0.56661076       8.69430436       7.73859100      -0.02977382      -0.01096132      -0.00076288
H        1.51979743      10.91821140       8.10928115      -0.02582012      -0.01855375       0.01760004
H        2.87651119       9.84120649       7.76757456      -0.02523072      -0.02126336       0.02794648
H        2.28081802      10.93664657       6.52577552      -0.00709462      -0.01354787       0.02643770
H        0.36233925       4.98934427       4.45274975      -0.00794971       0.00000882      -0.01344407
H        1.49200823       5.32513459       3.12247833       0.00839077      -0.00032967       0.00036229
H        0.01150940       6.30997452       3.30818727       0.01019990       0.00395361      -0.01430507
O        9.81848981       6.74145618       8.03917819       0.00446998       0.00017411       0.00975150
O        9.00500386       8.62796022       8.68169092      -0.00069070      -0.00188631       0.00678261
O        8.64921369       6.80726392       9.98416840       0.00536120      -0.00095063       0.01018953
C        9.78734132       5.29247591       8.07379042       0.01647317       0.00037610       0.01725996
C       10.49121496       4.80437155       6.83790780       0.00227070       0.00022153       0.00944680
C        9.11680223       7.33348124       9.00515876       0.00365403      -0.00003606       0.00798088
C        8.19648220       9.40115984       9.57654790      -0.00065791      -0.00199254       0.00635453
H       10.25970285       4.94949500       8.99662119       0.03401828       0.00928254       0.01143530
H        8.74761698       4.98267808       8.10744353       0.01975113      -0.00803511       0.03465626
H       10.40327926       3.71783000       6.77183392       0.00704864      -0.00011024       0.01397381
H       10.04892749       5.25488151       5.95060585      -0.01156393      -0.00489521       0.01400740
H       11.55007305       5.04889255       6.85138289       0.00099501       0.00541452      -0.00572157
H        7.14129611       9.18563646       9.38717078      -0.00006658      -0.00383162       0.00795439
H        8.42265105      10.44012443       9.35822045      -0.00208246      -0.00229910       0.00480918
H        8.45916815       9.19133106      10.60728325       0.00097446      -0.00015215       0.00614280
O        3.68355539       2.53806851       8.77685014      -0.00638820      -0.00529994      -0.00162405
O        5.60857352       2.33674918       7.84749385      -0.00815138      -0.00134861      -0.00429100
O        3.91653770       1.04532853       7.08766100      -0.01020658       0.00702208      -0.01137900
C        2.39686546       1.97287342       9.14078015      -0.00885087      -0.00265324      -0.00746614
C        1.84262046       2.80510163      10.26390775      -0.00780733      -0.00599509      -0.00496361
C        4.35232185       1.89643602       7.82637126      -0.00906420      -0.00068265      -0.00711232
C        6.47782536       1.75063766       6.88037638      -0.00922076       0.00433864      -0.00831529
H        1.75385934       1.96592430       8.26013292      -0.00650972       0.00380463      -0.00869101
H        2.56273350       0.94172870       9.45794908      -0.01270820      -0.00442660      -0.01210500
H        0.95843624       2.31561997      10.67205660      -0.00880367      -0.00546922      -0.00737881
H        2.58048780       2.89574074      11.06160225      -0.00861229      -0.01074241      -0.00420603
H        1.57656669       3.80639887       9.92290664      -0.00504845      -0.00434057      -0.00139347
H        6.57564395       0.67990804       7.06193941      -0.01572676       0.00217125      -0.01978853
H        7.43383620       2.24765894       7.01897170      -0.00717156      -0.00239804      -0.00016880
H        6.09694635       1.92123812       5.87418974      -0.00567271       0.01782501      -0.00699738
