149
Lattice="11.51630918519578 0.0 0.0 0.0 11.51630918519578 0.0 0.0 0.0 11.51630918519578" Properties=species:S:1:pos:R:3:forces:R:3 energy=-83216.671875 stress="-0.0030659919138997793 0.00010607773583615199 -0.0004339972365414724 0.00010607773583615199 -0.008604210801422596 -0.000739661481929943 -0.0004339972365414724 -0.000739661481929943 -0.0029411439318209887" pbc="T T T"
N        5.56971416       1.98598739       3.97999186      -0.00001237      -0.00048977      -0.00307229
N        4.89940892       3.67299615       5.16769096      -0.00216487      -0.00472522      -0.01036420
C        7.15541109       1.58238307       2.09033421      -0.00053786       0.00285225      -0.00632972
C        8.14924750       2.68962795       2.41074685      -0.00269287       0.00430280      -0.00727636
C        6.46160336       1.02040111       3.32000611       0.00406492      -0.00012773      -0.00687553
C        8.99362092       3.10124547       1.21414491       0.00076820      -0.00103839      -0.00638855
C       10.04952323       4.12929991       1.59767739       0.00674088      -0.00764978      -0.00654745
C        5.96880238       2.95861051       4.80372474      -0.00143862       0.00144757      -0.00981978
C        4.20975888       2.08388373       3.81749587       0.00059623      -0.01481773      -0.00467312
C       10.99529276       4.45924202       0.45687430       0.01183128      -0.01906307      -0.00477797
C        3.78648299       3.13812691       4.56867333      -0.00512290      -0.00467196      -0.00053570
C        4.93173341       4.84969873       6.02085549      -0.00518231       0.00263691      -0.01448542
H        6.41394432       1.91517013       1.35615924      -0.00213826       0.00142696      -0.00462255
H        7.70867609       0.75348298       1.64307456       0.00072820       0.00520125      -0.00639351
H        8.82398265       2.32693975       3.19511378      -0.00466169       0.00749303      -0.00442362
H        7.62838692       3.57180821       2.80531385      -0.00358957       0.00589353      -0.01248560
H        7.20537471       0.71808176       4.05781303       0.00533852       0.00203405      -0.00770593
H        5.84556487       0.15230122       3.08209126       0.00548857      -0.00060996      -0.00587056
H        9.48898140       2.20935403       0.81975927      -0.00404778      -0.00427085      -0.00440134
H        8.34409848       3.50381110       0.42542099       0.00414680       0.00150159      -0.00739069
H        9.56947588       5.04679071       1.94951044       0.01300101      -0.00357470      -0.00946189
H       10.62522677       3.73722424       2.44213476       0.00165276      -0.01039249      -0.00481313
H        6.98088177       3.12986091       5.12632239       0.00054893       0.00782882      -0.01336274
H        3.66375840       1.39872275       3.19439127       0.00335667      -0.01272007       0.00530186
H        2.80338354       3.53936665       4.73713071      -0.00047489      -0.01482062      -0.00155153
H       10.43861443       4.82746047      -0.40384022       0.01819786      -0.01486380      -0.00665601
H       11.71150674       5.23648547       0.72517148       0.01849580      -0.02625690      -0.00412331
H       11.54368562       3.56673971       0.14830078       0.00318570      -0.02496527      -0.00146513
H        4.17583838       4.76071313       6.79941101      -0.00615108       0.00433993      -0.01624365
H        5.89944661       4.90596749       6.51069083      -0.00616300       0.00576962      -0.01321195
H        4.75910296       5.74036365       5.41612335      -0.00600888      -0.00233573      -0.02019504
Cl      10.91105266      11.50100961       1.11735817      -0.01267323      -0.00757922       0.02915612
O        4.22320987       3.25510252       9.41713125       0.00302326      -0.00272846       0.01622089
C        3.75915267       1.27057614       8.27711097      -0.00443175       0.00273234       0.00977838
C        3.22767287       1.12289318       9.70119481       0.00348173      -0.00251490       0.01167089
C        4.82158841       2.31851254       8.52147356      -0.00390317       0.00264144       0.00657031
C        3.18684740       2.56212585      10.15130676       0.00493827      -0.00411963       0.01613597
H        4.15489303       0.35162764       7.85722750      -0.00606226       0.00482565       0.00442891
H        2.98391606       1.65500593       7.60577434      -0.00844994       0.00377432       0.01573078
H        2.26460215       0.62917516       9.78523750       0.00440547      -0.00326210       0.01459997
H        3.94752393       0.55477663      10.29057579       0.00661910      -0.00390846       0.00614123
H        5.70397882       1.85553482       8.99007365       0.00001746       0.00135416      -0.00299382
H        5.15696370       2.85534711       7.63526504      -0.01210348       0.00770010       0.00682542
H        2.22343253       2.99481432       9.88523208       0.00467408      -0.00291899       0.01985624
H        3.34502400       2.70703553      11.22323201       0.00742835      -0.00732523       0.01595849
O       10.14153679       6.90605002       3.68974638      -0.00829139      -0.01181034       0.00588448
C        7.82111988       7.09699521       3.25387312      -0.00572801      -0.00258957      -0.00264174
C        8.51232891       8.41568261       2.90205477       0.00153401      -0.00598842       0.00111666
C        8.87267500       6.41099041       4.12156986      -0.01155508      -0.00861454      -0.00097561
C        9.95498150       7.97462324       2.73837625      -0.00159502      -0.01442811       0.00233410
H        6.86499716       7.22080255       3.76409726      -0.00603849       0.00165251      -0.00492364
H        7.63623348       6.51542215       2.34662917      -0.00728083      -0.00065467      -0.00302890
H        8.11714040       8.89010862       2.00803625       0.00580227      -0.00164762       0.00188896
H        8.43664249       9.13318982       3.72047998       0.00483691      -0.00822236       0.00298837
H        8.74464164       6.66139690       5.18139558      -0.01500087      -0.01069953      -0.00130051
H        8.87128023       5.32152281       4.02670867      -0.01553032      -0.00827467      -0.00322260
H       10.14530671       7.58321239       1.73177007      -0.00447407      -0.01901105       0.00368184
H       10.67700481       8.76778535       2.93415312       0.00284284      -0.01847121       0.00017965
O        1.56802410       6.72795123      10.29845804      -0.00940208      -0.00159192      -0.00374600
C        0.22653247       5.79532184       8.57984582      -0.00215709       0.00232336      -0.01129699
C        1.64414971       5.24878320       8.46031889      -0.00404443      -0.00381126      -0.00067186
C        0.42350928       7.00749783       9.48935608      -0.00518218       0.00042012      -0.00855923
C        2.18085062       5.51260478       9.85943448      -0.01240510      -0.00444889       0.00210273
H       -0.22410269       6.05097867       7.62131608       0.00654373       0.00511988      -0.01430139
H       -0.40739605       5.05458815       9.06926730      -0.00916883       0.00485954      -0.01737714
H        1.68401986       4.19960036       8.17472262      -0.00697989      -0.00403589       0.00135466
H        2.20655791       5.81447191       7.71552780       0.00338560      -0.00792110       0.00236028
H        0.62496136       7.91945635       8.91316945      -0.00160983       0.00124842      -0.00532207
H       -0.42968124       7.19641156      10.14581896      -0.00824067      -0.00029773      -0.01260164
H        1.88926899       4.71788336      10.54757597      -0.02061701      -0.00250503       0.00048304
H        3.26463605       5.61849186       9.89436568      -0.01250911      -0.00916397       0.00942803
O        8.94159296      10.67485414       9.17632554      -0.01201917       0.00975893       0.00198343
C        8.83316811       8.95596949      10.78532264      -0.00259335       0.01405668       0.00544155
C        7.90976459      10.09358903      11.21249148      -0.00569689       0.01085354       0.00590801
C        9.75461112       9.67297547       9.81481397      -0.00610884       0.01768830       0.00584894
C        7.72628810      10.84540700       9.90471984      -0.00790296       0.01324567       0.00769556
H        9.38633893       8.52194060      11.61501089      -0.00060833       0.01729055       0.00523597
H        8.26600672       8.16799249      10.28687846       0.00036423       0.01197495       0.00565013
H        6.96185430       9.76016637      11.63873672      -0.00472999       0.00842109       0.00527399
H        8.45436944      10.71401190      11.92685654      -0.00731868       0.00996536       0.00728738
H       10.57212127      10.15802623      10.35550735      -0.01088613       0.02360559       0.00733736
H       10.15332151       9.02615046       9.03185685       0.00031447       0.01961401       0.00808161
H        6.89496435      10.42559915       9.31490975      -0.01114750       0.01789376       0.01002026
H        7.54690319      11.91559937      10.04273017      -0.00368956       0.01328111       0.01084733
O       11.44752933       2.33669320       6.46351898       0.03030539       0.01207871       0.01013833
C        9.36963136       3.09344087       7.21851776       0.01774642      -0.00391281      -0.00889724
C        9.84671212       2.03145592       8.20223511       0.01527530      -0.00316200      -0.00718504
C       10.15918084       2.73009862       5.97228127       0.03285438       0.00549445      -0.00166807
C       11.32248420       1.92536463       7.83938715       0.01864466       0.00300170       0.00559336
H        8.28618960       3.09285690       7.07832585       0.01970851      -0.01293764      -0.02039823
H        9.67233694       4.08149101       7.55827981       0.00560951      -0.00251812      -0.00293726
H        9.70517429       2.29083708       9.25309203       0.00552655      -0.00536980      -0.00825253
H        9.33999015       1.08472000       8.02936551       0.02019869      -0.00454509      -0.01223826
H        9.69713512       1.89008640       5.44443362       0.04331510       0.00491190      -0.00914308
H       10.30289781       3.56478009       5.28114147       0.03487274       0.00842440       0.00300947
H       11.92509389       2.59991966       8.45615035       0.01146123      -0.00030375       0.01547617
H       11.72059437       0.91621351       7.95638566       0.02000014       0.00342852       0.00250156
O        6.06811533       5.78288172       8.75549347       0.00721693      -0.01109746      -0.01168667
C        8.33994838       6.26163370       8.36012853       0.00608444       0.00294637       0.00807655
C        8.24219040       5.39296115       9.61222515       0.00280392       0.00201094       0.00658202
C        6.92970850       6.80188193       8.24602884       0.00483000      -0.00343177       0.00165111
C        6.83502097       4.83000267       9.51007336       0.00513738      -0.00293162       0.00034377
H        9.08932295       7.04647058       8.43206819       0.00226089       0.00585823       0.01265249
H        8.57254299       5.65630923       7.48323975       0.01315489       0.00449903       0.00916839
H        8.98327891       4.59799030       9.64718026       0.00490199       0.00451903       0.00931871
H        8.36058054       6.00207478      10.51047269      -0.00262132       0.00151600       0.00748655
H        6.80507205       7.72208832       8.82808594      -0.00278762      -0.00812620       0.00706589
H        6.63671112       7.02350243       7.21598896       0.01032600       0.00137841       0.00164923
H        6.83981121       3.88019906       8.96874500       0.01154847      -0.00605497       0.00645116
H        6.34328027       4.66788875      10.46920710      -0.00018156       0.00166299      -0.00206324
O        2.88530398       9.96004916       9.05629276      -0.01752517      -0.00788975       0.00335015
C        4.25511407       8.23414557       9.95655777      -0.00498897       0.00040266      -0.00061905
C        3.87758410       7.96189375       8.50167226      -0.00095593       0.00025129      -0.00106926
C        3.32587970       9.39566235      10.31257601      -0.01415947      -0.00787595       0.00156941
C        3.63611632       9.36529425       8.01040645      -0.01540022      -0.00142825       0.00173162
H        4.11562016       7.38192831      10.61606647       0.00165283      -0.00276160      -0.00350177
H        5.30123343       8.54257154      10.02458450      -0.00770745       0.00845808       0.00110486
H        4.61073190       7.40138923       7.93513294       0.00680986       0.01137076      -0.00190873
H        2.93221590       7.43380367       8.47225010       0.00644159      -0.01207381      -0.00332516
H        2.43834778       9.07746035      10.85757697      -0.01262295      -0.01513872      -0.00124303
H        3.83627339      10.16186546      10.90330319      -0.02061048      -0.00605485       0.00390348
H        4.59765567       9.88654787       7.85854385      -0.02073470       0.00677437      -0.00008399
H        3.05269089       9.44190276       7.09009189      -0.01823005      -0.00598598       0.00363037
O        3.65773258       6.47278737       2.79161044       0.01108178      -0.01133931       0.02081589
C        1.49327642       5.59536330       3.28405116       0.00065321       0.00516298      -0.00386429
C        1.91076688       6.66389363       4.30744749      -0.00564763       0.00571403      -0.00154489
C        2.65537986       5.58930294       2.26844152       0.00642186       0.00583687       0.00320151
C        2.92926009       7.46634070       3.51153731       0.01242122      -0.00427637       0.01229006
H        1.31977169       4.62188651       3.74332503       0.00089276       0.00548834      -0.00338225
H        0.55636419       5.87842731       2.81262091       0.00258809       0.00154012      -0.00941578
H        1.06421279       7.25260355       4.65815910      -0.00583941       0.01303816      -0.01546519
H        2.39923979       6.21145812       5.17481715      -0.02270404       0.00375520       0.00661057
H        3.12172466       4.61291982       2.12938770      -0.00320473       0.00316662      -0.00690033
H        2.32307290       5.95846762       1.29182380       0.01549333       0.02220762       0.00656998
H        2.42333964       8.14724306       2.81221953       0.02905688       0.00108761       0.00602779
H        3.63878057       8.03856204       4.11080139       0.01028270      -0.01217802       0.02170199
O        9.54864339      11.12372918       5.68012804      -0.01430121      -0.00150630      -0.01885924
C       10.07791686       8.93028484       6.25443535      -0.00314245       0.00716752       0.00256553
C        8.57852868       9.11791652       6.52673055      -0.00396112       0.00235218       0.00016078
C       10.58998153      10.35899271       6.29299405      -0.01039191       0.00983971      -0.01202674
C        8.30094947      10.55686777       6.07199802      -0.00972494      -0.00024229      -0.00444926
H       10.56905205       8.29000568       6.98884480      -0.00043634       0.01810049       0.00972432
H       10.24676123       8.49292015       5.27247046      -0.00117593      -0.00299396       0.00761822
H        7.96693005       8.40111178       5.98099250       0.00061437      -0.00181817       0.00124079
H        8.35648935       9.02583603       7.58637513      -0.00535915       0.00438234      -0.00008205
H       10.74759577      10.68493050       7.32642296      -0.01238012       0.02030733      -0.01518041
H       11.50065880      10.52975298       5.71978256      -0.01156494       0.00873036      -0.01331371
H        7.64156755      10.59111647       5.20257758      -0.01787761      -0.00466599       0.00208992
H        7.85325187      11.14550958       6.88104561      -0.00178781       0.00266451      -0.00266993
