148
Lattice="12.27424680999883 0.0 0.0 0.0 12.27424680999883 0.0 0.0 0.0 12.27424680999883" Properties=species:S:1:pos:R:3:forces:R:3 energy=-851895.25 stress="-0.0009092213585972786 -6.110931644798256e-05 0.00029740072204731405 -6.110931644798256e-05 -6.494748231489211e-05 -0.00022961736976867542 0.00029740072204731405 -0.00022961736976867542 -0.00032752248807810247" pbc="T T T"
Ac      11.61062286      11.48168444       1.38437439       0.00476810      -0.01783979       0.01308435
Cl       5.09314251      11.64225268       2.85427540       0.00656533      -0.00062883       0.01922393
O        4.59123488      11.41816725       1.46592727       0.00190079      -0.01634684       0.01669645
O        5.64283947      10.34275500       3.34872716       0.01884949       0.02247024       0.02496815
O        6.19820801      12.62356552       2.79267993      -0.00932240       0.01928747       0.00072989
Cl       7.98364747      11.33448563       8.94802240       0.01154423       0.00489974       0.00785863
O        8.67365808      10.70729858       7.80325425      -0.00417089       0.00996280       0.00787830
O        8.86960015      11.07334829      10.15942332       0.03945696       0.02914980      -0.00377488
O        7.94803673      12.80192237       8.75689823      -0.01568039       0.00853419       0.00738195
Cl      11.73364088      11.64064410       4.70485065       0.00883231      -0.00167406       0.01483339
O       10.58442086      12.04923093       3.71237097       0.01826280      -0.00376177       0.00470549
O       11.83087673       9.63488573       2.08253739       0.00575235      -0.02020860       0.01065469
O       12.58222789      12.91127102       5.00708091       0.01058978      -0.00300175       0.01502204
O        9.01479694       2.02552228       4.38336286       0.00016767      -0.01792276      -0.01126182
C        9.63137309       3.01299792       3.60132969      -0.00305316      -0.01088220      -0.00229251
C       10.00624089       2.54375712       2.20546018      -0.00218666       0.00455146      -0.00595230
H        8.89986935       3.82510323       3.53532870      -0.00748470      -0.01495960       0.00394507
H       10.52470925       3.42119855       4.10124113      -0.00472063      -0.01057164       0.00054464
H       10.40566910       3.36686202       1.60862624      -0.01035574       0.01452337       0.00325493
H       10.80546830       1.80188119       2.27707089       0.00192683       0.00897297      -0.01427719
H        9.14254137       2.11423288       1.69636230       0.00004125       0.00449189      -0.00829338
H        9.48833104       1.18797977       4.25825624       0.01222465      -0.01207483      -0.00470272
O        9.24125878      11.37114947       0.42026302       0.00661694      -0.01632322      -0.00358260
C        8.36156014      10.65947848       1.34557724      -0.00567175      -0.00172231      -0.00586214
C        7.39343318       9.75862664       0.62739040      -0.00260335      -0.00260082      -0.00639832
H        9.02134629      10.08404730       2.00762064      -0.01760158      -0.00103712       0.00514930
H        7.82509393      11.39463890       1.94748251      -0.00539333       0.00434065      -0.01481465
H        6.84750437       9.17669660       1.36923069      -0.01888855       0.00930519      -0.01005822
H        6.65616292      10.35109160       0.09008184       0.01229063      -0.00120208      -0.02474046
H        7.89789888       9.09659267      -0.07625884       0.00263476      -0.01325183       0.00830245
H        8.89776552      11.33549752      -0.51638315       0.01243936      -0.01145484      -0.00660379
O        0.90017681       3.33854409       8.86976308      -0.00203443       0.00462657       0.01352346
C        1.97503324       2.94518970       9.68841583      -0.00070480      -0.00106227       0.00948894
C        1.65387707       1.75736995      10.58285669      -0.00465792      -0.00002414       0.00889596
H        2.86279844       2.70690227       9.08319904      -0.00398582      -0.00386684       0.00656199
H        2.23355308       3.80880179      10.30415094       0.00426796      -0.00307798       0.01025784
H        2.51508536       1.51720524      11.20931774      -0.00493383      -0.00606804       0.00628999
H        0.80327825       1.99821426      11.22588396      -0.00121336       0.00392292       0.01163671
H        1.40288006       0.88127820       9.98389539      -0.01155253       0.00282332       0.00803000
H        0.61094859       2.54710207       8.36010118      -0.00505655       0.00597500       0.01198973
O        1.11474699       0.86607977       2.51850319       0.00588816      -0.00406064       0.00810727
C        2.41511933       1.47153325       2.31458496       0.00399400      -0.00247249       0.00253751
C        2.36556020       2.96977293       2.47849035       0.00195885      -0.00163263      -0.00602043
H        3.11276907       1.02399879       3.02346135       0.00596136       0.00348505       0.00390422
H        2.74435609       1.17742917       1.32033165       0.00142924      -0.00631122       0.00325650
H        3.35222728       3.39668195       2.28828569       0.00168923      -0.00178497      -0.01083095
H        1.65399569       3.42019590       1.78500414       0.00038135      -0.00869682      -0.00920612
H        2.08220267       3.24371698       3.49557564       0.00402297       0.00568524      -0.00649813
H        0.90964698       0.93090969       3.48756269       0.00733400      -0.00022353       0.00670041
O        5.63297722       4.92657312       1.75809552      -0.00196195      -0.01062641      -0.00073081
C        6.29334417       5.19828997       2.98171717      -0.00229508      -0.01158322      -0.00034809
C        6.20452485       4.04510866       3.96301107      -0.00527029      -0.01054978       0.00072730
H        7.34671699       5.46250029       2.79304224      -0.00158274      -0.01448937      -0.00025274
H        5.81870913       6.09129581       3.39664226      -0.00086319      -0.01047564      -0.00137362
H        6.77086710       4.26800314       4.87034225      -0.00583931      -0.00877665       0.00097281
H        5.16567317       3.87838265       4.24613236      -0.00554878      -0.00814693       0.00033561
H        6.60302726       3.12328586       3.53582479      -0.00677650      -0.01197499       0.00317919
H        6.14355837       4.23780986       1.29153687      -0.00131881      -0.01016903      -0.00160699
O       12.29312147       1.10971137       7.66136005      -0.00199354       0.00574228       0.01168060
C       10.86483177       1.10503937       7.83241464      -0.00281614       0.00203285       0.00989798
C       10.26027155       2.45760404       7.52017322      -0.00478277      -0.00188088      -0.00123131
H       10.41498505       0.32469066       7.21444198       0.00093570      -0.00327545       0.01565003
H       10.67360883       0.82037293       8.86661959      -0.00337349       0.00863278       0.01100910
H        9.18163442       2.40874147       7.66218479      -0.00468069      -0.00250597      -0.00251268
H       10.67830469       3.22641020       8.17141544      -0.00651008       0.00333314      -0.00665197
H       10.44921956       2.73086184       6.48106201      -0.00356222      -0.00911653      -0.00274107
H       12.46870676       1.03740277       6.70434866       0.00099351       0.00223734       0.01497310
O        7.16075027       3.24699883      12.42327819      -0.00347102      -0.00125849      -0.00373907
C        8.15119827       4.09537747      11.85809467      -0.00290096       0.00067542       0.00016144
C        8.86665723       3.45023479      10.69016907       0.00545454      -0.00010803       0.00617677
H        7.70865423       5.05421541      11.55966603      -0.00420603      -0.00139463      -0.00422728
H        8.85291574       4.31160080      12.66424573      -0.00831228       0.00418163       0.00339019
H        9.63603177       4.11422090      10.29178071       0.00847331      -0.00102802       0.01123332
H        9.33581512       2.51164509      10.98691997       0.00269834       0.00058180       0.01181462
H        8.16811071       3.21654611       9.88646652       0.01072630      -0.00038385       0.00162581
H        6.49261290       3.10589982      11.72706196      -0.00358192       0.00244866      -0.00402467
O       10.99405441       6.82562423       7.03818508       0.02083915      -0.03214234      -0.01659552
C        9.69235366       7.06906257       6.48734310      -0.00359440       0.01723936       0.00069912
C        8.74764467       5.91632792       6.74927454       0.00224009       0.00805086      -0.00672841
H        9.34705020       7.98743191       6.96201646       0.00429119       0.00538397      -0.00076652
H        9.77722586       7.24552165       5.41494002       0.00510146       0.01290429      -0.00121647
H        7.74788431       6.15110473       6.38030935       0.00211084       0.01386127      -0.00811154
H        9.08459740       5.00992096       6.24029504      -0.00004549       0.01086976      -0.00830070
H        8.67656598       5.70233680       7.81563686      -0.00176540       0.00746606      -0.00750497
H       11.32935287       5.99815401       6.68004334      -0.00805350       0.03912906       0.00297758
O        3.24869013       5.50697181       4.99446252      -0.01230939       0.00341731       0.01697367
C        2.77186055       6.32983957       3.92568929      -0.00155598       0.00033037      -0.00265220
C        1.26273295       6.34444292       3.84618724      -0.00206345       0.00734452       0.00198713
H        3.16007886       7.35066355       4.02861953       0.00209162      -0.00029296       0.00123894
H        3.21344831       5.91381973       3.01922507      -0.00515197      -0.00085345       0.00322676
H        0.91312895       6.97066772       3.02458822       0.00101525       0.00992483       0.00183904
H        0.86792125       5.33930573       3.70363707      -0.00634912       0.00941092       0.00089304
H        0.82124585       6.75451874       4.75850083      -0.00044771       0.00932802       0.00160150
H        2.80456366       5.78595442       5.80046242       0.00424615      -0.00210879      -0.00986176
O        5.56044856       9.14142047       9.41681659       0.00604808       0.00455257      -0.01591063
C        4.66871338       9.81560587      10.28726813       0.00186849      -0.00007576      -0.00822136
C        4.84700075      11.32404046      10.28826169       0.00298983      -0.00008476      -0.00676958
H        3.62993357       9.56333179      10.03398506       0.00271869       0.00230503      -0.01772282
H        4.85089866       9.41056984      11.28451784      -0.00468716      -0.00442427      -0.01296222
H        4.16999047      11.78698539      11.00666524      -0.00268266      -0.00057999      -0.01081775
H        5.86112841      11.59755320      10.57501472       0.00049281      -0.00031426       0.00223063
H        4.65024480      11.73596543       9.29645783       0.01131906       0.00214775      -0.00628833
H        5.49614906       9.54630578       8.53563643       0.00812157      -0.00126381      -0.00537184
O        2.67840174       7.74220666       0.25039102      -0.00622396       0.01079124      -0.00205249
C        2.55048782       8.87167462       1.11282290      -0.00822605       0.00480133      -0.01141914
C        2.07831374      10.10727099       0.36775746      -0.00010700       0.01002350      -0.00647590
H        1.84773273       8.67029706       1.92623432      -0.00082976       0.01201008      -0.00459063
H        3.54223903       9.05406483       1.52516131       0.00024867       0.00078006      -0.01584643
H        2.04040640      10.95015414       1.07097996       0.00713665       0.01149134      -0.00846599
H        2.76958150      10.38862050      -0.41969237      -0.00261295       0.00631399      -0.01046604
H        1.09553167       9.90553688      -0.08367032      -0.00186808       0.01470185      -0.00640312
H        1.81511322       7.55850633      -0.12856602      -0.03961589       0.00628507      -0.00185339
O        5.33172415       3.56742686      10.39806531      -0.00684699       0.01128930       0.01706517
C        4.99803613       4.96244827      10.29762019      -0.00138563       0.00229383      -0.00213791
C        5.84719793       5.70024934       9.28998618      -0.00004503      -0.00069723      -0.00185820
H        3.93901612       5.06480361      10.04546946      -0.00130868       0.00784911       0.00125188
H        5.13125294       5.35874857      11.30484935       0.00076242       0.00758685       0.00037766
H        5.60506974       6.76557650       9.29407053       0.00245995      -0.00109392      -0.00722234
H        6.90732602       5.59803206       9.52247896      -0.00010610      -0.00263589      -0.00171200
H        5.68135505       5.31561055       8.28013191      -0.00056707      -0.00567981      -0.00052339
H        5.36857577       3.18411100       9.51714453      -0.00810481      -0.00284976      -0.00572440
O        5.12603010      10.17994908       6.80481256      -0.02708006      -0.03283361      -0.00954618
C        4.07591834       9.61938176       6.01011901       0.03708422       0.01366478      -0.01408315
C        3.32911399       8.60803023       6.84578241       0.00369921       0.00956395       0.02811804
H        3.39691718      10.41581019       5.68059290       0.00426760       0.00664538      -0.00387147
H        4.49885750       9.16850193       5.11115056      -0.01569927      -0.00400388      -0.00082886
H        2.50167432       8.19416402       6.26811710      -0.02131414       0.00712057      -0.00303788
H        3.99232481       7.79745866       7.15106962      -0.01585247       0.00955892      -0.00206260
H        2.90945692       9.06251901       7.74347517       0.00233073       0.01093617      -0.00864339
H        5.76797823      10.59636700       6.22073091       0.02095973      -0.01056225      -0.03416018
O       11.90364739       8.61151990       9.08256318       0.01641887      -0.00872017       0.00296265
C       11.02647571       8.54934550      10.19314308       0.01351339      -0.00252609       0.00170285
C        9.76315757       7.75734464       9.92309335       0.00623864       0.01136121      -0.00098343
H       11.56180855       8.11480112      11.04916551       0.00794008      -0.00994837       0.00107384
H       10.74680366       9.57523447      10.45687811       0.02432245      -0.00054795       0.00291748
H        9.15394153       7.68691323      10.82407346       0.00603187       0.01481584      -0.00098859
H        9.16376147       8.24777807       9.15693313       0.01148422       0.01940647       0.00039449
H       10.00880919       6.74520574       9.59575935      -0.00408277       0.00991711      -0.00362840
H       11.61660855       7.96841198       8.41749629       0.01141924      -0.00626433       0.00267348
O       10.34363362       6.15796853       3.40670822      -0.01149921      -0.01904279       0.00155281
C        9.96659943       7.31177775       2.64950500      -0.00036125      -0.01129448       0.00305784
C       10.33204036       7.17200572       1.19250779      -0.00866359      -0.01574018       0.00166517
H        8.89041523       7.49981027       2.76423261       0.00258172      -0.00053476       0.00726160
H       10.52080017       8.15670523       3.05844151       0.01045471      -0.01906961      -0.00127612
H       10.05205107       8.07498038       0.65365560       0.01085878      -0.00851046       0.00467220
H       11.41028136       7.05495993       1.09384047      -0.01169598      -0.03162179      -0.00201777
H        9.82892094       6.31867876       0.72955488      -0.02676003      -0.00247279      -0.00083377
H        9.88588731       5.40122216       3.03235982      -0.02429590      -0.00646518       0.01446934
