142
Lattice="12.169770493260268 0.0 0.0 0.0 12.169770493260268 0.0 0.0 0.0 12.169770493260268" Properties=species:S:1:pos:R:3:forces:R:3 energy=-868039.6875 stress="-0.004429338034242392 -4.4617401727009565e-05 0.0010059952619485557 -4.4617401727009565e-05 -0.00010470110282767564 0.00024167082301573828 0.0010059952619485557 0.00024167082301573828 -0.004453239496797323" pbc="T T T"
Ac      13.22705647      11.84166279       1.01891028       0.01328373      -0.01306668      -0.00135881
S       11.16818193      10.99691735       6.64358693      -0.00856113       0.02292532      -0.00256652
F        8.97944609      10.26928966       7.80600094       0.00808802       0.01936603       0.02472797
F        8.74358911      12.01827890       6.54835486      -0.01570883       0.01575513       0.02431875
F        9.70404569      12.20956955       8.48345889       0.00843673       0.02331284       0.01072854
O       11.65171062      12.23860684       6.06528089      -0.02417493       0.01794899      -0.02471977
O       10.74747558       9.98621242       5.68637483      -0.01127225       0.00730515       0.01494282
O       11.97895891      10.46773314       7.72757179       0.00501215       0.04407936      -0.00320911
C        9.55876009      11.40579696       7.42437471      -0.00181270       0.02068166       0.01437265
S        6.21114413       8.98346110      10.17732160      -0.00468683       0.00542450      -0.00361406
F        5.43911760      11.51394395      10.53101746      -0.00377971       0.00606558      -0.00461555
F        7.03645910      11.28832188       9.10363624      -0.01207164      -0.00009114      -0.01126468
F        7.45077700      11.10677283      11.21625300      -0.00037327       0.00558892      -0.01268816
O        7.32790252       8.43825040       9.43401707       0.00514436       0.00187546       0.01889801
O        4.92288203       8.92084776       9.50998374       0.00599551       0.00134678      -0.01651782
O        6.17075645       8.63429562      11.58594552      -0.02176723       0.01435542       0.00237572
C        6.56289442      10.81742806      10.26233080      -0.00501913       0.00500345      -0.00824769
S        4.00109479      10.84142751       1.15238805      -0.00594316       0.02013969       0.02105496
F        3.78118359       8.23359071       0.61171541      -0.01118227       0.02416198       0.00116451
F        3.41441058       8.75233917       2.66264700       0.00396655       0.00014814       0.00897291
F        5.43130996       8.75469160       1.94018053      -0.00415861      -0.00384200      -0.00271577
O        3.19022432      11.40730667       2.25514012       0.03636508       0.02393626       0.00560006
O        3.09436368      10.84568897      -0.03115807       0.01017452       0.00041096       0.02107084
O        5.28161274      11.42279932       1.00195040       0.02837652      -0.01465094      -0.00040735
C        4.18977420       9.00729464       1.59581464      -0.00327697       0.00070474       0.01109929
O        3.31071677       4.69548315       7.00631371      -0.00335406       0.00287938      -0.00946648
C        1.89577901       6.51233843       7.42124735       0.00171006       0.00387210      -0.00114608
C        3.29523380       7.07295320       7.18327584       0.00190832       0.00203425      -0.00186092
C        2.22468603       5.09191858       7.84617197       0.00010440       0.00267363      -0.00556064
C        4.00938696       5.87399807       6.56425877      -0.00021982       0.00249726      -0.00454937
H        1.32525642       7.06821805       8.16367542       0.00466586       0.00251903       0.00178748
H        1.32265145       6.49980371       6.49109987      -0.00043067       0.00726771       0.00048503
H        3.30276808       7.93904579       6.52258469       0.00238738       0.00314958       0.00002761
H        3.76318137       7.37218366       8.12244179       0.00310914      -0.00027795      -0.00233305
H        2.53417230       5.06580403       8.90096310       0.00293282      -0.00017400      -0.00673342
H        1.41318105       4.37521955       7.70601736      -0.00156841       0.00491738      -0.00502605
H        3.95851624       5.89679045       5.46875809       0.00150548       0.00555917      -0.00429201
H        5.06033039       5.80378839       6.85708266      -0.00097620      -0.00052766      -0.00326209
O        1.71800278       1.81511794       2.17794512      -0.02145777       0.00078294      -0.00131211
C        1.23273474       4.06655933       2.35246524      -0.00511762       0.00422809       0.00660375
C        2.75562211       3.96876720       2.17293569      -0.00561625      -0.00666636       0.00787506
C        0.88628804       2.72307442       2.94827468      -0.01168501       0.00497090       0.00417364
C        3.02515329       2.47195427       1.98994718      -0.01675129      -0.00813364       0.00296533
H        0.93015816       4.89464789       2.99103620       0.00223942       0.00317349       0.01103517
H        0.73405351       4.17585308       1.38610388      -0.00422941       0.01594085       0.00754055
H        3.10988822       4.54615942       1.32094765       0.00201759      -0.00715218       0.01127443
H        3.27961265       4.32892968       3.05839126      -0.00445127      -0.01510022       0.01044017
H        1.15854312       2.62958513       4.00164836      -0.00096172       0.00545160       0.00151324
H       -0.15121569       2.40597604       2.81511850      -0.01367162       0.00906615       0.01432653
H        3.37416750       2.19905820       0.99165265      -0.01689471      -0.00736794       0.00261602
H        3.71276309       2.05482524       2.72289074      -0.02091923      -0.01541429       0.00230533
O        0.58129480      10.01515383       2.48097796       0.03057539      -0.02952860      -0.01422618
C        0.69298376       8.13987857       3.93820841      -0.00412293      -0.01878548       0.00842002
C        1.34621836       9.34327296       4.62261909      -0.01001230      -0.01423382       0.00572431
C        0.50150767       8.54582180       2.48425336       0.00755376      -0.02790236       0.00229767
C        0.81592371      10.53083643       3.85448759      -0.00572556      -0.02127889      -0.00921836
H        1.31646825       7.24836112       4.01223308      -0.00575984      -0.01907988       0.02316295
H       -0.27068742       7.93865845       4.40163401      -0.00922355      -0.01408701       0.00063403
H        1.05548707       9.41912199       5.66686452      -0.02004665      -0.00606095       0.00302175
H        2.42930740       9.32394697       4.57007938      -0.00893781      -0.01114024       0.01337248
H        1.30128195       8.20059828       1.83268689       0.00320163      -0.04596350       0.00738004
H       -0.47196057       8.29204128       2.06906004       0.00432742      -0.01890163       0.00499004
H       -0.13462465      10.88589448       4.23355434      -0.01732254      -0.03230713      -0.02576353
H        1.55433479      11.34040849       3.80702915      -0.01213561      -0.01579702       0.00054336
O        3.63397583      11.26186461       5.33073808      -0.00672528       0.00951970      -0.01930165
C        4.53538224      11.37880071       7.50367087      -0.00536057       0.01393446      -0.02050018
C        5.35222345      10.36253224       6.70701131      -0.00251675       0.01687610      -0.02062315
C        3.24659304      11.40130322       6.71134906      -0.00587067       0.00903924      -0.01955450
C        4.95892172      10.69771132       5.27665778      -0.00524265       0.01477888      -0.02008072
H        4.37632027      11.06240070       8.52876287      -0.00293125       0.01455370      -0.02009538
H        5.02162403      12.35752289       7.49970461      -0.00909729       0.01552063      -0.02195891
H        6.42438765      10.42593523       6.87490290      -0.00298309       0.02136374      -0.02162557
H        5.03841131       9.35748945       6.98961007       0.00134967       0.01596874      -0.02016193
H        2.60405272      10.56165163       7.00726676      -0.00276259       0.00746506      -0.01881725
H        2.66238944      12.31797164       6.80562156      -0.00873572       0.00690812      -0.01948622
H        5.63452038      11.44000951       4.83568721      -0.00814176       0.01646739      -0.02179489
H        4.94505001       9.81954434       4.62235507      -0.00255476       0.01441768      -0.01929548
O        7.61433111       2.41736965      10.39862203       0.00036359      -0.00422662      -0.00356582
C        6.09594802       3.48579056       8.93553555      -0.00019589       0.00393897       0.00357926
C        5.45069281       3.36900933      10.31640448       0.00172710      -0.00224493       0.00353112
C        7.17543365       2.41975485       9.02744553      -0.00051385       0.00348616      -0.00311601
C        6.67457757       3.14282202      11.19789809       0.00251949      -0.00675449       0.00031554
H        5.40048333       3.31825012       8.11406221      -0.00106326       0.00789364       0.00375900
H        6.54289835       4.47420039       8.81215117      -0.00021653       0.00416234       0.00756526
H        4.88290154       4.25273925      10.60889385       0.00247515      -0.00388788       0.00855073
H        4.78790463       2.49816161      10.34364170       0.00171331      -0.00202158       0.00025677
H        6.76427002       1.43477007       8.78639171      -0.00044432       0.00499916      -0.00812938
H        8.03431039       2.61257693       8.38615571      -0.00132239       0.00709713      -0.00241977
H        7.11383957       4.10370213      11.49592191       0.00355613      -0.00863165       0.00358337
H        6.46671956       2.57615231      12.10790593       0.00317137      -0.01050738      -0.00182027
O       10.01087838      10.07973523      10.63659555       0.01953989       0.00719453       0.01359601
C       12.32497061      10.20487309      10.65341766       0.02236596      -0.01650890      -0.00059488
C       11.95128518       8.72328972      10.66336404       0.00748047      -0.01253676      -0.00260647
C       11.03827420      10.81903044      11.22017736       0.03143340      -0.00807712       0.00953288
C       10.49400180       8.77525545      10.22546278       0.00681269       0.00548138       0.00175405
H       13.28501349      10.36733245      11.15686092       0.02430205      -0.01936121      -0.00441733
H       12.44752935      10.55679187       9.62942975       0.01920324      -0.01408777      -0.00024074
H       12.57853700       8.14215061       9.99244765      -0.00165737      -0.01837038      -0.00602651
H       12.04295659       8.31077607      11.67233843       0.00667436      -0.01822869      -0.00496981
H       10.97429884      10.69912819      12.34722576       0.03764755      -0.01743323       0.00852063
H       10.87521102      11.88024960      10.97303088       0.04511599      -0.00321937       0.01924028
H       10.38927658       8.72336253       9.14327863       0.00444513       0.01713533       0.00175655
H        9.86320200       8.01659249      10.68787254       0.00023505       0.00817072      -0.00317344
O        8.75102172       4.58737278       7.08980240      -0.00769734       0.00635049       0.00352412
C       10.66481649       5.74943336       6.32877080      -0.00244504      -0.00162658       0.00608699
C        9.52534839       6.73883085       6.56887592       0.00012032       0.00170636       0.00173834
C        9.91906142       4.42020994       6.27752486      -0.00576240       0.00050083       0.00786524
C        8.67355792       5.95132728       7.54434254      -0.00307897       0.00657582       0.00210616
H       11.23603778       5.94112625       5.42020405      -0.00050142      -0.00480926       0.00691567
H       11.35667826       5.76946961       7.17288390      -0.00373170      -0.00169778       0.00685552
H        9.84228365       7.71071584       6.94149897       0.00173715       0.00209552      -0.00117186
H        8.96632005       6.90409329       5.64356741       0.00177786      -0.00039600       0.00063914
H        9.59986072       4.19294203       5.25116766      -0.00352749      -0.00198247       0.00807500
H       10.49994810       3.57057881       6.64479525      -0.00938800       0.00021458       0.01202977
H        9.06438182       6.02538151       8.56615168      -0.00316960       0.00650780       0.00195444
H        7.62738377       6.25460923       7.56716346      -0.00168490       0.01014055       0.00141189
O        9.64191444       8.47939980       1.94233077      -0.00095621      -0.01662958       0.00833315
C        8.11017359      10.24062776       1.88004453       0.01558174      -0.00078136       0.00534038
C        8.25236318       9.82405108       3.34079863       0.01120049      -0.00168633       0.00541282
C        8.51583076       8.96335603       1.17947505       0.00673065      -0.00387806       0.00518745
C        9.52321937       8.98870935       3.28539043       0.00622538      -0.00892222       0.00583085
H        7.12483527      10.58020429       1.59814429       0.01900697       0.00623961       0.00389783
H        8.82039970      11.04191684       1.64366851       0.02135351      -0.00657611       0.00638711
H        8.34730598      10.64875611       4.04547478       0.01585374      -0.00250453       0.00568366
H        7.39420807       9.21788868       3.64198873       0.00781369       0.00274681       0.00359007
H        7.71031863       8.22802873       1.20875683      -0.00056368       0.00427681       0.00069223
H        8.81767364       9.09392706       0.14570058       0.01158966      -0.00394887       0.00685340
H       10.38377257       9.61679579       3.50212967       0.00905323      -0.01153189       0.00040606
H        9.53609724       8.15988665       3.99591807       0.00462040      -0.00451100       0.01005548
O        6.23152425       4.29575135       2.12332405      -0.02042529      -0.00081608      -0.00197577
C        6.70832794       4.87433447       4.31906308      -0.00586732      -0.00530580      -0.00449449
C        6.53972580       6.18905128       3.55349045      -0.00145820      -0.00378305      -0.00254828
C        7.11421740       3.94668346       3.19111959      -0.01765518      -0.00730988      -0.00666916
C        6.03887998       5.72197113       2.17372251      -0.00554886       0.00053132      -0.00248259
H        7.42235056       4.92121384       5.13988754      -0.00150684      -0.00982592      -0.00832877
H        5.75212521       4.53887033       4.72746383      -0.00553438       0.00065791       0.00029681
H        5.84831748       6.88139068       4.03468921       0.00201420      -0.00224127      -0.00026570
H        7.50103975       6.69831425       3.45559659      -0.00006846      -0.00738014      -0.00328484
H        8.16042688       4.12329785       2.89506127      -0.01832795      -0.01464383      -0.01179129
H        6.98614362       2.88477192       3.40218199      -0.02445172      -0.00628927      -0.00667366
H        4.97187805       5.90623207       2.03379628      -0.00333595       0.01146230      -0.00402655
H        6.57235583       6.20208636       1.34832853       0.00051042      -0.00519198      -0.00178838
