142
Lattice="12.155389623295964 0.0 0.0 0.0 12.155389623295964 0.0 0.0 0.0 12.155389623295964" Properties=species:S:1:pos:R:3:forces:R:3 energy=-852733.375 stress="0.0005376868066377938 0.0007783574110362679 0.00035113752528559417 0.0007783574110362679 -0.000757017289288342 -0.00021636285237036645 0.00035113752528559417 -0.00021636285237036645 0.001411392935551703" pbc="T T T"
Ac      13.08227291       9.28620491      -0.14865093      -0.00515984       0.00095732       0.01595438
P        5.16132313       5.00510645       9.13807276       0.00597802       0.00273530       0.00628513
O        6.06978415       4.11595493       8.14553188       0.00683844       0.00211579       0.00765467
O        6.25790600       5.55000401      10.22410765       0.00723225       0.00998721       0.00142252
O        4.63158487       6.18680431       8.37606955      -0.00123307      -0.00184667       0.00527447
O        4.21145347       4.12453368       9.85607712       0.01208293       0.00007397       0.01224190
H        6.79015653       4.68324029       7.80748301       0.00660209       0.00176051       0.00647657
H        7.02620620       5.88986186       9.73756920       0.00458476       0.00945914      -0.00311529
P        7.67251379      10.62602241       5.92566527      -0.00207074       0.00071451       0.00021249
O        8.58197736      10.55646565       7.29503367       0.00123450       0.00607282      -0.00171489
O        6.32282300       9.80749257       6.36238659      -0.00377095       0.00849945       0.00834557
O        7.31442314      12.05207925       5.69705306       0.00327766       0.00054479      -0.00853819
O        8.32776936       9.77756125       4.89802829      -0.00757703      -0.00825274       0.00401819
H        8.55911355      11.44494302       7.66506809       0.00897808       0.00947061      -0.00945365
H        5.70272063      10.42920618       6.75516673      -0.00174986       0.01237613       0.00523085
P        0.57797244       6.96874071       1.88100892      -0.01114354      -0.01234883      -0.02092347
O        0.24199954       8.28616721       2.72791728      -0.01080343      -0.00272325      -0.03133485
O       -0.58644184       7.06107834       0.76588447      -0.00665274      -0.01208378      -0.02291399
O        1.76565400       7.42107095       0.99591052      -0.00451979      -0.01866990      -0.01551908
O        0.65205220       5.72443935       2.64747778      -0.02129944      -0.00759141      -0.01259688
H        0.43838766       8.25408593       3.72635422      -0.00053193       0.00469666      -0.03143916
H       -1.51383441       6.70559781       1.04599024      -0.01197979      -0.00532481      -0.02355781
O        4.01333813       3.74013636       3.28555449       0.00796437       0.01838815      -0.00089055
N        2.64050188       3.04849891       1.59064161       0.00872910       0.00882217      -0.00179675
C        2.96808459       4.13935130       0.69256314       0.00143051       0.00497790      -0.00908167
C        1.71146260       2.06230126       1.09947961       0.01260843       0.00302793       0.00190613
C        3.19118697       2.96471752       2.81335760       0.01001334       0.01524115      -0.00087684
H        2.04675108       4.63101300       0.37717998      -0.00164679      -0.00159803      -0.01088165
H        3.50251432       3.78191588      -0.18919654       0.00482532       0.00266793      -0.00615811
H        3.57568117       4.85558071       1.23778033      -0.00296511       0.00896832      -0.01012656
H        0.74599522       2.52514411       0.87233642       0.00986898      -0.00564368       0.00029662
H        1.56234367       1.28558829       1.84987857       0.01620508       0.00496447       0.00254002
H        2.09628647       1.60216512       0.18452010       0.01107740       0.00106534       0.00327745
H        2.82016730       2.08891391       3.37917503       0.01115571       0.01472878       0.00024158
O        2.31027089      10.55259623      10.48664006      -0.00313888       0.00091383       0.01619700
N        3.97905065       9.17910193       9.84789140      -0.00358402       0.00213298       0.01026537
C        3.11673301       8.02130305      10.04409227       0.00181225      -0.00010239       0.01911293
C        5.38010943       8.95265904       9.50115845      -0.00570422       0.00537522       0.00075908
C        3.49347895      10.37756714      10.07443206      -0.00549433       0.00184351       0.00903393
H        3.07454202       7.74097197      11.10905328       0.00833764       0.00348809       0.01963289
H        3.54227652       7.17065717       9.48570652       0.00080815      -0.00039685       0.01955295
H        2.12464035       8.23734198       9.62505348      -0.00128640      -0.00524011       0.02404837
H        5.83079851       8.31930288      10.26565768       0.00196936       0.00906812      -0.00085407
H        5.89135608       9.91243539       9.47131569      -0.00906259       0.00689945      -0.00568361
H        5.45028576       8.42864312       8.55186748      -0.01131342       0.00290337       0.00169709
H        4.15927553      11.22360219       9.89913918      -0.00808367       0.00202251       0.00148792
O       12.63438586      11.14633023       7.81742200      -0.00518101      -0.00557220       0.04147935
N       11.38712216      10.15108002       9.47734095       0.00379395      -0.00698013       0.01115727
C       11.47819132       8.83520804       8.84184084       0.00417533      -0.00632665       0.00674069
C       10.18899816      10.35575147      10.29056513      -0.00103325      -0.00594846       0.00477704
C       11.87045028      11.23195177       8.74364140       0.03203636      -0.01012433      -0.00878000
H       10.51868488       8.58616957       8.38479347       0.00779250       0.00335988      -0.00698705
H       11.70688358       8.04876802       9.57611833      -0.01235770      -0.00775673       0.00830136
H       12.24216624       8.85740453       8.06915678       0.01302631      -0.00874507       0.01712905
H        9.29949695       9.98227971       9.78053189       0.00207353       0.00226955      -0.00386862
H       10.05218307      11.41380135      10.49864134       0.00455028      -0.00611585       0.00979130
H       10.24642209       9.82807294      11.25743936      -0.01071332      -0.01130457      -0.00018957
H       11.49640334      12.19775324       9.12601711       0.01351910      -0.00662404       0.01760715
O        8.02788621       5.95912421       7.99925097       0.00769770       0.00021911       0.00205880
N        8.90888842       6.63316526       6.00200861       0.00454037      -0.00332239      -0.00026029
C        7.67251038       6.51818915       5.25805681       0.00206733       0.00038803       0.00352798
C       10.07013331       7.11356333       5.28009974       0.00346300      -0.00339951      -0.00256249
C        8.97074961       6.34520705       7.29938654       0.00717974      -0.00261259      -0.00040048
H        7.80314952       5.80932904       4.43521003      -0.00160585       0.00063661       0.00290817
H        7.40821329       7.49865460       4.85632310       0.00345502       0.00138295       0.00505856
H        6.89031831       6.16579668       5.92290280       0.00312693       0.00223026       0.00604793
H       10.25975677       6.47633418       4.41217011       0.00265352      -0.00273722      -0.00331607
H       10.94408445       7.07931310       5.92323584       0.00446829      -0.00403717      -0.00395632
H        9.89431008       8.13779815       4.94780463       0.00280471      -0.00325543      -0.00152554
H        9.97330829       6.48140353       7.72000270       0.00862700      -0.00520451      -0.00291067
O        2.55425786      10.31632261       1.27034016      -0.01007450      -0.00536967       0.02398182
N        4.63531350      10.63253679       2.13109156      -0.00675052       0.00127931       0.01268511
C        4.87297901      11.89375725       1.44239418      -0.01327278      -0.00012028       0.00771245
C        5.73597974      10.15074895       2.95296519      -0.00055087       0.00579412       0.00709590
C        3.53326423       9.94644007       1.98511470      -0.00494856      -0.00152206       0.01931102
H        5.71838050      11.77367992       0.76570092      -0.01816195      -0.00055338       0.00173658
H        5.11626542      12.65933567       2.17899846      -0.00872812       0.00216982       0.00373736
H        3.99681865      12.18871867       0.88140378      -0.01800352      -0.00332259       0.01359567
H        6.61335047      10.02251692       2.32101189      -0.00530109       0.00232754       0.00142901
H        5.47259709       9.20472296       3.41645132       0.00321990       0.00830035       0.01441426
H        5.96606683      10.88658520       3.72345724       0.00501988       0.01010099       0.00127113
H        3.49465222       8.98825632       2.50868976       0.00021324      -0.00131641       0.02048253
O        0.86251671       8.13719722       5.22171531       0.00734222      -0.00580981      -0.04550147
N        2.86708666       7.13392717       5.66297035       0.00245476       0.00009523      -0.01395474
C        2.30174958       5.83790130       6.00814812      -0.00155009       0.00430250      -0.00391370
C        4.31308058       7.19107453       5.52115839       0.00439611      -0.00184044       0.00124826
C        2.10479149       8.15381589       5.31066214       0.00739062      -0.00589511      -0.03759950
H        2.89690911       5.41996282       6.81897956      -0.00775743       0.01245399       0.00467154
H        2.34248802       5.17951074       5.13731882       0.00396009      -0.00540750       0.00377956
H        1.27070282       5.96915117       6.32423370      -0.00380099       0.00814204      -0.01290064
H        4.76699136       6.78214393       6.42388472      -0.00640684       0.00197828       0.00852245
H        4.63411368       8.22259447       5.39567538       0.00674837      -0.00232431       0.00095016
H        4.61216719       6.59399693       4.65350761       0.01290957      -0.00621675       0.00736502
H        2.67786333       9.06847628       5.08944515       0.01032716      -0.00976828      -0.04520765
O        9.22561343       6.34624452       1.40565779      -0.00279507       0.00699919      -0.02035274
N        7.34225309       5.07112672       1.27425351       0.00225435      -0.00004265      -0.01131815
C        6.42912750       6.17145853       1.52377513       0.00107156      -0.00273943      -0.00370734
C        6.71975822       3.79238261       0.95722745       0.00470351      -0.00151438      -0.00989969
C        8.65098840       5.25812004       1.21237200       0.00071961       0.00465983      -0.01963270
H        5.71913344       5.86899511       2.29494291       0.00440951      -0.00742804      -0.00266469
H        5.88591521       6.39283523       0.60217140      -0.00155823      -0.00000213      -0.00139931
H        6.99689835       7.03968422       1.84458107       0.00101879      -0.00310236      -0.00240197
H        6.02520574       3.52334887       1.75446289       0.00957608      -0.00397654      -0.00660279
H        7.48777683       3.02735889       0.86721168       0.00632712       0.00073650      -0.01439513
H        6.17381204       3.86640637       0.01644212      -0.00014743      -0.00213545      -0.00711182
H        9.21500538       4.34619113       0.97575478       0.00303675       0.00798410      -0.02631063
O       11.00701946       4.35405903       6.80818049       0.01390925      -0.00136229      -0.00376534
N       10.58773789       3.21982963       4.86491041       0.00449824      -0.00385877      -0.00027023
C        9.45221864       2.47402503       5.37084269       0.01156976      -0.00888887       0.00831368
C       11.08259208       2.89828001       3.54786210      -0.00361161      -0.00248877      -0.00358756
C       11.27028773       4.08543644       5.64653820       0.00661568      -0.00093576      -0.00539708
H        9.68385662       1.41137869       5.47970262       0.01956479      -0.00680149       0.01215710
H        8.60757606       2.55808029       4.68489374       0.00817665      -0.01816730       0.01161182
H        9.17142441       2.87968377       6.33929186       0.01301746      -0.00616550       0.00753808
H       11.53166549       1.89949652       3.53128243      -0.00091739      -0.00127909      -0.00677951
H       11.82761492       3.63308845       3.24400842      -0.00775915      -0.00030601      -0.00829058
H       10.26237016       2.91834741       2.82502705      -0.00837764      -0.00450936       0.00176513
H       12.10879920       4.54885225       5.10301331       0.00095516       0.00200337      -0.01166102
O        4.96886956       1.64834604      11.47410907      -0.00594044      -0.01026767       0.00263286
N        5.41396404       1.22974336       9.26839341      -0.00473514      -0.00232140       0.00165439
C        6.85265022       1.23160129       9.43131718      -0.00512138      -0.01301555       0.00343348
C        4.90258067       1.22347233       7.90899250      -0.00267942       0.00603269       0.00134606
C        4.61253855       1.55855880      10.30605640      -0.00471023      -0.00391254       0.00105727
H        7.28802723       2.01315029       8.80665786      -0.00181429      -0.00984499       0.00967276
H        7.26647835       0.25886972       9.15058533      -0.00815252      -0.01298550      -0.00480603
H        7.07923238       1.42037241      10.47728527      -0.00635443      -0.01809046       0.00495243
H        5.04277816       2.19718068       7.43885735      -0.00371240       0.00860465       0.00430954
H        3.84045367       0.97709180       7.91925373      -0.00218263       0.00346471      -0.00312318
H        5.45450655       0.48967420       7.31639919      -0.00316226       0.00937933      -0.00346105
H        3.56203341       1.66667572       9.99738512      -0.00238377       0.00200084       0.00048201
O        7.89210058      10.98784128       0.02764818      -0.00547814       0.01087797      -0.00016606
N        9.35198487      10.76008749       1.77395938      -0.01127513       0.00648615       0.00432099
C        9.19237521       9.32119757       1.89599448      -0.01048085       0.00603768      -0.00028938
C       10.18792950      11.39972446       2.76926333      -0.01126361       0.00382353       0.00606643
C        8.65468453      11.46222308       0.86525625      -0.00720185       0.00879176       0.00335336
H        8.69414285       9.09216438       2.83971344      -0.00703281       0.00265990       0.00083384
H       10.17216525       8.84521654       1.92662513      -0.01043069       0.00523002      -0.00574791
H        8.62376007       8.94644627       1.05099815      -0.01360805       0.00918030       0.00038293
H        9.83188540      11.13276711       3.76584989      -0.00926904      -0.00143655       0.00530088
H       10.14783631      12.47720234       2.63366591      -0.01444379       0.00430819       0.01138426
H       11.22991952      11.06580848       2.67251870      -0.01034376       0.00686202       0.00253247
H        8.84873044      12.54771088       0.93558457      -0.00615843       0.00841838       0.00559053
