147
Lattice="11.59699444104634 0.0 0.0 0.0 11.59699444104634 0.0 0.0 0.0 11.59699444104634" Properties=species:S:1:pos:R:3:forces:R:3 energy=-792496.0 stress="0.0024861583951860666 2.736655233093188e-06 -6.069535629649181e-06 2.736655233093188e-06 0.001578515744768083 -0.0001636079978197813 -6.069535629649181e-06 -0.0001636079978197813 0.002144128317013383" pbc="T T T"
Ac      10.45346607      10.37237430       1.62845048      -0.00526148      -0.01025890      -0.00288382
O       -0.18598840      10.59634565      11.22248351       0.00934190       0.00835075       0.00795829
H        0.32480132      10.44045127      10.40986345       0.01455392      -0.00061497       0.00534275
O        9.00628569      10.33683184       5.61664111       0.00089923      -0.00476888      -0.01472421
H        8.31860351       9.97537850       6.18223419      -0.00788271      -0.00375187      -0.01915827
O        2.66487349      11.12266892       6.31732772      -0.01457632      -0.00505691      -0.00900060
H        3.52330973      11.41435279       6.64006336      -0.01857275      -0.00192824       0.00441065
N        3.22986132       6.71422300       3.64047141       0.00922549       0.00507426       0.00221595
H        2.53083445       6.14478995       3.17402313       0.01824797       0.00583041      -0.01191620
H        2.72073146       7.25054751       4.33912539      -0.00107564      -0.00995207       0.00568192
H        3.82880200       6.06682836       4.14532874       0.01235360       0.00224608      -0.00367376
N        0.00096758       5.26372769      10.15091360       0.01067546      -0.01205984      -0.00363472
H       -0.19835714       4.81532795      11.03972620       0.01099250      -0.00442243       0.00062620
H        0.22861691       4.50118044       9.52038710       0.03209744      -0.01240806       0.00929921
H       -0.88259217       5.65558675       9.82209854       0.00657569      -0.03074404      -0.01366809
N        7.93043966       9.60198583       0.66568315      -0.00940192      -0.00856683      -0.02686289
H        7.16560935      10.28601042       0.73856352      -0.00601444      -0.00211526      -0.01910792
H        7.65980798       8.82911357       1.27746364      -0.01709200      -0.00894704      -0.02960079
H        7.88463126       9.25196954      -0.28728529      -0.01496313       0.00004195      -0.02747494
N        1.31997781       9.36137488       2.42629224       0.00086731       0.01222181      -0.01555476
H        1.61284540       8.65017795       1.75557856      -0.01015528      -0.00714397       0.00384504
H        1.30327839       8.93974546       3.36360507       0.01448809       0.03566986      -0.00336140
H        2.08502046      10.03118056       2.45774934       0.00146165       0.00995393      -0.04579861
N        5.48837365      -0.00462513       1.12726672       0.00797528      -0.01574156       0.01343355
H        4.85130579      -0.05318164       0.32680430       0.01259764      -0.00802924       0.01210462
H        5.72233494       0.97756405       1.22342347       0.00408750      -0.01750445       0.02898414
H        4.93952942      -0.25778523       1.94881272       0.00338291      -0.02947669       0.00771634
N        8.48546806       1.89182632       5.38391686       0.01169604       0.00640495       0.00538743
H        9.45269330       1.85120707       5.07011056       0.01377857      -0.00624339       0.01713942
H        8.33925905       0.93699677       5.72242491      -0.00274910       0.01370881       0.01414733
H        8.51880987       2.50504436       6.19535537       0.00908025       0.01784036       0.00226968
N        3.61896999       0.27686914      10.14262377       0.00461414      -0.00430322       0.01400506
H        4.22259460       0.91330584       9.63073880       0.00367130      -0.00586767       0.01418765
H        2.81330114       0.83676746      10.41515953      -0.00078458      -0.01088826       0.00366883
H        3.24756381      -0.37060510       9.45205229       0.01539774      -0.01504191       0.01630192
N        0.87534919       4.20892220       1.73153604      -0.00362837       0.00711077      -0.00155488
H        1.38125345       4.87133634       1.15306881      -0.00452015       0.00359958      -0.00812528
H        1.55951015       3.70842769       2.28983418       0.00021762       0.01009540      -0.00130627
H        0.31235016       4.74726187       2.38077543       0.00076577       0.00997964      -0.00347909
N        5.41305515       4.11898689       3.55844303      -0.00526896       0.02003738       0.00480932
H        4.50394019       3.66923499       3.56958136       0.00023071       0.01230623       0.00127431
H        6.09696801       3.38999207       3.73361959       0.00024987       0.02745610       0.01993220
H        5.54872742       4.45449854       2.60525918       0.00257528       0.01017968       0.00211230
N        1.75685652       6.15675034       7.33820537       0.00188108       0.00392266       0.00321814
H        1.16653247       5.49371197       6.84306770       0.00126160       0.00539818       0.00348628
H        1.48811236       6.08946311       8.31477432      -0.00925324       0.02163294      -0.00001192
H        2.70242804       5.76862235       7.26938908      -0.00011810      -0.00626083       0.01936608
N        4.17101322      10.23751895       3.86275050      -0.00802819       0.00019512       0.00272797
H        3.57235698      10.52005341       4.65570592      -0.00221509       0.01007853       0.00475217
H        5.11345495      10.22369501       4.24227339      -0.00285326       0.02263192      -0.01186431
H        3.93923586       9.26665546       3.66635919       0.00414430      -0.00710448       0.03177123
N        9.76978608       4.35240048       7.12060038       0.00230464      -0.01165387       0.00657379
H        9.66527200       4.90844073       7.96588561      -0.00558381       0.00147679      -0.00453554
H        9.61348860       4.98733202       6.34339829      -0.02728645      -0.03997234      -0.00517682
H       10.74641767       4.08198279       7.04604289       0.00937248       0.01803774       0.00054038
N        5.65572830       1.44258029       7.77210933      -0.00005054       0.00923249       0.00208741
H        6.16998553       1.72373047       6.94448402      -0.00026584       0.01964642       0.00738546
H        4.69312803       1.76101591       7.64818739      -0.00619316      -0.01143077      -0.00402942
H        5.64729163       0.42742062       7.76936451       0.02048551       0.00808726       0.00322280
N        1.10781529       9.84394373       8.62455900      -0.00347827      -0.00336583       0.00312841
H        1.63967324      10.39438880       7.93495347      -0.00012618      -0.00708355       0.00137565
H        0.15801807       9.83012314       8.26526466      -0.00214512       0.00586105       0.01024086
H        1.43370004       8.88982683       8.49211324      -0.00910868      -0.00741600       0.00084012
N        5.21308177       5.81428768       0.84536920       0.00538407      -0.00591123       0.00681946
H        5.94540878       6.51518436       0.84930730       0.01267378      -0.01047030       0.01622254
H        4.41786585       6.23528685       1.31580223       0.00656217       0.00148162       0.01038166
H        4.96821137       5.63190432      -0.12113927       0.00672005       0.00410360       0.00978395
N        0.17057866       0.98843450       2.83399655      -0.00660366      -0.01056361      -0.00559443
H       -0.10635785       1.90378432       2.48753353      -0.00482523      -0.01204056      -0.00624845
H        1.18467418       0.98820069       2.75778410      -0.00755405      -0.01614981      -0.00858700
H       -0.00597378       0.97299155       3.85461434      -0.00532957      -0.00343408      -0.00377852
N        9.44102829       1.42467042       8.78810336      -0.00623617       0.01752558      -0.00373992
H        9.60939138       0.62811030       8.18114642      -0.01911731       0.01534774      -0.01288555
H        9.36002902       2.23410470       8.17793410      -0.00633009       0.02400607      -0.00301053
H        8.51555860       1.27745255       9.17725607      -0.00266619       0.01850734       0.00940381
N        6.63185284       7.82942217       3.01499997       0.00234896       0.00112533       0.00879735
H        7.10291288       8.26352310       3.80352717      -0.00469670      -0.00015116       0.00926799
H        6.20100811       6.97796307       3.36549194       0.00099584      -0.00243017       0.00488490
H        5.85153993       8.43715633       2.78624750      -0.00097689      -0.00182876       0.00403829
N        4.54656688       4.75500887       7.13270856       0.00055787      -0.00624815       0.00183397
H        5.22157740       4.83749305       7.88784372       0.01375675      -0.01795446      -0.01073859
H        5.06982661       4.60184012       6.27715857      -0.01875989       0.02698043      -0.01383403
H        4.01354279       3.90704972       7.32654268       0.01159672      -0.01663852      -0.01238877
N        5.90097908       9.33320217       9.64699189       0.01550561       0.00177753      -0.00399091
H        5.38197280      10.09228373      10.08094503       0.01810471       0.00000747       0.00104778
H        5.77718759       8.54036037      10.26845828       0.02652540       0.00189343      -0.00004384
H        5.38415486       9.08391459       8.79544337       0.00850288      -0.00103308       0.00141421
N        9.18329857       9.45108744       9.00284361      -0.00712747       0.01524213       0.00874104
H        9.40766716       9.65817747       8.03101790      -0.00859733       0.00919414       0.00567124
H        9.68311964      10.12444871       9.57913588       0.00258328       0.01011458       0.00331913
H        8.18229660       9.62291010       9.10810878      -0.00407892       0.02314068       0.01044915
N       10.52867155       7.84202321       0.43979608       0.00559038       0.00643557       0.00019991
H       11.50458369       7.54256158       0.41022495       0.00598529       0.00854625      -0.00884053
H       10.28980489       8.05946970      -0.52664259      -0.00927754       0.00099718       0.00464895
H        9.97380538       7.03929309       0.71394470       0.01048292       0.00594407       0.01632953
N        6.65374459       3.92399811       9.75259632      -0.00282140      -0.00126478      -0.01086579
H        6.37226023       3.08140198       9.25071672      -0.01973933       0.00218838      -0.00908739
H        6.48876324       3.74721120      10.73724990      -0.00601428      -0.00043716      -0.00604366
H        7.65898200       3.99992348       9.64138428      -0.00720724      -0.01804681      -0.01150404
N        8.67784110       6.41669813       9.33360418      -0.01203114       0.00310263       0.01391203
H        8.22326872       6.34798190      10.23738994      -0.02116197       0.00390787       0.01116142
H        7.93522049       6.21896499       8.67010483      -0.00729921      -0.01200018       0.01163062
H        8.93180718       7.40156744       9.20283329      -0.02084790       0.00153019       0.00689893
N       11.42128942       0.56183818       5.82411745      -0.00607870      -0.00007252      -0.00272530
H       12.33772557       0.13962595       5.99890163      -0.00911480      -0.00835338      -0.01692670
H       10.68360873      -0.14775809       5.90230391      -0.01074840       0.00318522      -0.00492717
H       11.28033271       1.20905223       6.59300156       0.00673899      -0.00824002       0.00880658
N        8.78393424       4.76566894       3.75149317       0.00569510       0.00248456      -0.00407428
H        8.85931583       4.35545384       2.82697857       0.01444279       0.03101329      -0.01725250
H        7.90550374       5.27391441       3.74726230       0.01624244       0.01804599      -0.00006457
H        8.62739620       3.97825068       4.37732165      -0.01329412      -0.01487745      -0.03080726
N        1.94667012       7.54524377      11.27122356       0.00569919      -0.00992753       0.00916073
H        1.49176714       6.82144595      10.71071594       0.00641366      -0.00900760       0.00663981
H        2.93187366       7.31384012      11.31969625       0.00940730       0.00584211      -0.01452373
H        1.88620168       8.41258152      10.74373442      -0.01770639      -0.00355729       0.02515039
N        4.19943501       8.53808921       7.12026125       0.00806131       0.01737446      -0.00591905
H        4.73952695       8.30366897       6.29507866       0.01408760       0.00511399       0.00450199
H        3.59748971       9.32267568       6.85620645       0.00906884       0.01104866      -0.02547627
H        3.59223009       7.74043592       7.28193153       0.00240105       0.01934657      -0.00163044
N        2.48166933       2.31346998       7.73537618      -0.00823592      -0.00986724      -0.01327401
H        2.35895682       1.36872420       7.36154882      -0.02372092      -0.00633816      -0.01666154
H        1.87726955       2.91516485       7.18025584       0.00419739       0.00218371      -0.01175253
H        2.09092479       2.29743980       8.67647603      -0.00753602      -0.00445962      -0.01317976
N        3.15427827       1.85594219       4.52612698       0.01296604       0.00310608       0.00191735
H        3.70543097       2.38858234       5.19366079       0.02067570      -0.00963832       0.00598069
H        3.82234111       1.44569861       3.87996534       0.00776187      -0.00358632      -0.00080631
H        2.80650851       1.05432654       5.07862084       0.00044611       0.00580361      -0.00525063
N        8.30169653      11.48194140       3.13859643       0.01561415      -0.00480929      -0.00018603
H        8.17555489      12.45834782       3.39581245       0.02470390       0.00131223      -0.00619643
H        8.41399899      10.99775362       4.06427794       0.01286820      -0.00513689       0.00225666
H        7.41874115      11.20003737       2.72158619       0.01814072      -0.00314520       0.00080877
N        1.11632992       8.76238858       5.44453311      -0.01048376      -0.01478151      -0.00168994
H        1.78743916       9.49987394       5.69267438      -0.01829877      -0.01013886       0.00397405
H        1.29668986       7.99253778       6.09355971      -0.00020448      -0.01797951      -0.00805423
H        0.21665283       9.14456505       5.72613225      -0.01516868      -0.02796716       0.00348070
N        0.61170669       1.92074191      10.54881428       0.00302339       0.00302961       0.01681927
H        0.56958396       1.00909140      11.00355526      -0.01505131      -0.00945914      -0.00662826
H       -0.26396675       1.94857516      10.02449505       0.01363074       0.02395953       0.00324835
H        0.54965936       2.61833642      11.28244005      -0.00680181      -0.01797962       0.02976575
N       10.03207869       8.58501976       3.71244252      -0.01585580      -0.01443988      -0.00172171
H        9.47546265       7.75234915       3.55033912      -0.03070579      -0.00842649       0.01542816
H        9.59344920       9.12994896       4.50486743      -0.00924748      -0.00056817      -0.00641850
H       10.92665241       8.25539811       4.06777797      -0.02059691      -0.02164453       0.00370547
N        0.69393179       3.70016675       5.26771199      -0.00222570       0.00511082      -0.00127304
H        1.52188575       3.27304052       4.85009659       0.00036877       0.01190916      -0.00080053
H        0.45971096       4.53135663       4.73916137      -0.01446458      -0.00147260      -0.00899374
H       -0.05173318       3.02964086       5.11788466       0.00541049      -0.00467856       0.00882760
