140
Lattice="11.815628885908975 0.0 0.0 0.0 11.815628885908975 0.0 0.0 0.0 11.815628885908975" Properties=species:S:1:pos:R:3:forces:R:3 energy=-72055.5859375 stress="-0.0034782900474965572 -0.0002547605981817469 -9.305736602982506e-05 -0.0002547605981817469 -0.004128731321543455 0.00041965201671700925 -9.305736602982506e-05 0.00041965201671700925 -0.003166502108797431" pbc="T T T"
N       10.84524859      10.60392559       1.01859719      -0.00479561       0.00979826       0.01265455
H       11.21792188      10.58078301       1.96145296       0.01093784      -0.01744860       0.00572771
H       10.92099885      11.55116130       0.67264214      -0.01473649       0.02121386       0.04194447
H       11.38510733       9.99734354       0.41484335      -0.01643258       0.03190601      -0.01549430
H        9.33805710      10.22559343       0.88704116       0.00275157       0.00510715       0.01578285
O        6.49269820      10.99425019       1.76448504      -0.00400221      -0.02217066       0.01467565
O        8.23048908      12.28918455       1.21122606      -0.03126460      -0.02491593      -0.00970944
O        8.31440152      10.04861441       0.94772867      -0.00029847      -0.00868863       0.01391764
C        7.74382608      11.18403394       1.29396801      -0.00084299       0.01823318       0.00246016
H        6.43501108      10.05905429       2.01667932       0.01110162      -0.00706697       0.03659605
O        2.55001291       7.72040163       8.22400034      -0.01372765       0.00421124       0.01191565
C        1.48026064       5.97807908       7.05796637      -0.00306820       0.00067484       0.00643930
C        0.96838742       7.31800504       6.53252177      -0.00102085      -0.00027756       0.00336340
C        2.05154852       6.38958336       8.40364483      -0.00723523       0.00129077       0.00804141
C        2.09647489       8.23740812       6.96701944      -0.00142398      -0.00173871       0.00581864
H        0.72411235       5.20338756       7.15203969      -0.00321828       0.00100693       0.00437587
H        2.26621331       5.60223056       6.40073177      -0.00135788       0.00033320       0.00935432
H        0.78939440       7.34846428       5.45976246       0.00199364      -0.00224616       0.00303456
H        0.03892798       7.59798759       7.03281616      -0.00177434       0.00139379       0.00032558
H        1.26530740       6.40168054       9.16942955      -0.00773194      -0.00339025       0.00679007
H        2.86294466       5.75341637       8.76134967      -0.00518453       0.00425276       0.00778516
H        2.92115790       8.20773577       6.24391593       0.00328532      -0.00979199       0.01168704
H        1.79858418       9.27744752       7.10603864       0.00210820      -0.00022781      -0.00221695
O        8.94607667       5.96544463       5.76773093      -0.00069126      -0.00603954      -0.01256353
C       10.78775952       4.60504982       5.23213304       0.00063848      -0.00373770      -0.01209052
C        9.68577202       4.33890429       4.20832843       0.00119131      -0.00418156      -0.01206359
C        9.98215649       5.19416208       6.37929161      -0.00018784      -0.00496902      -0.01270878
C        8.78629942       5.55450087       4.39710693       0.00176367      -0.00421336      -0.01292904
H       11.34194253       3.71121096       5.51740764       0.00069981      -0.00332026      -0.01230511
H       11.49727593       5.33947477       4.84283151       0.00030085      -0.00358599      -0.01174420
H       10.05351075       4.24625116       3.18802689       0.00095563      -0.00542469      -0.01161489
H        9.15050857       3.42090524       4.46242096       0.00086497      -0.00321689      -0.01084845
H        9.54515362       4.39320145       6.99011020       0.00039542      -0.00543627      -0.01354334
H       10.54079459       5.85524123       7.04109470      -0.00133480      -0.00479117      -0.01247266
H        9.08481712       6.38660016       3.74939683       0.00405343      -0.00401852      -0.01139832
H        7.72986256       5.34167323       4.21788791       0.00242218      -0.00292574      -0.01532135
O        5.64133362       3.47836348       6.49438127      -0.00406269       0.00253907      -0.00325635
C        5.58109433       5.64399524       7.41803754      -0.00029718       0.00170439      -0.00211757
C        6.80482312       4.92627488       7.98285913      -0.00089204      -0.00029781      -0.00437325
C        4.73160316       4.46608061       6.96703507      -0.00200480       0.00397265      -0.00366373
C        6.95664783       3.75304537       7.01893645      -0.00341298       0.00069556      -0.00523052
H        5.08052814       6.29052963       8.13892773       0.00093579       0.00053160      -0.00065070
H        5.88138813       6.24724735       6.55753678      -0.00037741       0.00295766      -0.00082618
H        7.69033333       5.55879453       8.00541114      -0.00019261      -0.00177640      -0.00496359
H        6.60483998       4.58395926       8.99901469      -0.00004445      -0.00093651      -0.00487542
H        4.14631790       4.06341157       7.80763624      -0.00364512       0.00476514      -0.00489914
H        4.04204206       4.69458604       6.15242837      -0.00031862       0.00638350      -0.00404814
H        7.59067389       4.02597329       6.17636492      -0.00431162       0.00060478      -0.00561020
H        7.34016413       2.84320532       7.48498449      -0.00383838       0.00039315      -0.00612631
O        7.48315733       9.03256079       3.70132208      -0.00615837       0.00191642       0.00457606
C        7.86644139       9.34164571       6.01504967      -0.00649640       0.00469926       0.00305402
C        9.21480459       9.28425773       5.29729107      -0.00617594      -0.00233404       0.00502056
C        6.95184145       8.69091403       4.99199903      -0.00592747       0.00254615       0.00481668
C        8.81310173       9.56338047       3.86024162      -0.00300685      -0.00521645       0.00412023
H        7.85936427       8.80839641       6.96574160      -0.00900192       0.00920250       0.00528492
H        7.56792581      10.37778875       6.19381892      -0.00400291       0.00576019      -0.00210115
H        9.94199350      10.01130811       5.65222180      -0.00472569      -0.00373504       0.00344212
H        9.64284064       8.28521104       5.39400725      -0.01025671      -0.00320655       0.00843661
H        6.96359216       7.60202292       5.10273927      -0.00397870       0.00290918       0.00579270
H        5.91707175       9.03850691       5.04616329      -0.00587404       0.00115247       0.00380293
H        8.79089365      10.64181490       3.66176732       0.00294153      -0.00667530      -0.00030811
H        9.46146815       9.08915746       3.12408928      -0.00511593      -0.01144442       0.00645515
O        2.93837053       6.14610567       2.14959010      -0.00043342       0.00081736       0.00189078
C        4.07979215       6.87973257       4.04193705       0.00907353       0.00295818      -0.00564182
C        5.11591379       6.72954986       2.92569733       0.00412548      -0.00615396      -0.00830099
C        3.01390742       5.91742293       3.54933219       0.00384504       0.00553060       0.00197577
C        4.24077406       6.54557990       1.68357152      -0.00121260      -0.00486569      -0.00409338
H        4.46429451       6.63249852       5.02971941       0.01129148       0.00536683      -0.00633708
H        3.68716081       7.89947085       4.07484880       0.01362267       0.00449669      -0.00869587
H        5.80143982       7.56959349       2.83531187       0.00856954      -0.01046503      -0.01293348
H        5.71833733       5.83683042       3.11030924      -0.00069348      -0.00885156      -0.00785790
H        3.31611611       4.88450615       3.76460760       0.00050527       0.00533891       0.00414738
H        2.01731703       6.06701963       3.96865369       0.00644320       0.01094977       0.00535165
H        4.12191385       7.47569073       1.13139973       0.00037061      -0.00570828      -0.00503749
H        4.63589680       5.80163903       0.98866869      -0.00728802      -0.00741902      -0.00421533
O        2.75568252       3.04831898       2.06394164      -0.00558954      -0.00515427       0.01359236
C        4.70043138       1.86688610       2.61161857      -0.00244230      -0.00368875       0.00511161
C        3.80137402       1.86924541       3.85110530       0.00383845      -0.00234735       0.00917602
C        4.17026715       3.08627621       1.88613794      -0.00703272      -0.00644097       0.00459814
C        2.46735562       2.39264590       3.30224123       0.00169283      -0.00226894       0.01610681
H        5.76233890       1.92979111       2.84442857      -0.00196660      -0.00153762      -0.00034056
H        4.54943218       0.97267352       2.00644736      -0.00402379      -0.00512919       0.00807801
H        3.70757202       0.89079138       4.32165258       0.00562714      -0.00185323       0.01000454
H        4.21174137       2.54841349       4.60049881       0.00771023      -0.00264367       0.00674397
H        4.59298130       3.99529669       2.33113551      -0.00447345      -0.00491858      -0.00145429
H        4.36273622       3.10776607       0.81684753      -0.01375000      -0.01045793       0.00374174
H        1.75517378       1.59346377       3.08753717      -0.00026876      -0.00171050       0.02203597
H        1.97975287       3.09522874       3.98858063       0.00651158      -0.00069726       0.01744261
O        0.56419004       9.80701762       3.86946022      -0.02514175       0.00718893      -0.03495958
C        2.14705929      10.86253318       2.53449857       0.00926214      -0.00675213      -0.00138789
C        2.06592272       9.41191996       2.05064864      -0.00450876      -0.00197843      -0.01379061
C        1.65437373      10.72603523       3.96484172      -0.01679931      -0.00597969      -0.01089990
C        0.96968240       8.79083412       2.93480798      -0.00397420      -0.00240995      -0.01338860
H        3.14734419      11.28169790       2.45633696       0.01612854      -0.02134253       0.01830090
H        1.46936566      11.50474931       1.96856570       0.02946350       0.00699094      -0.00847773
H        1.85036537       9.32438514       0.98603660      -0.01349054       0.01205842      -0.01239157
H        3.01243110       8.90467170       2.22399901      -0.00896421      -0.01294510      -0.02633056
H        2.44869437      10.31749252       4.60907671      -0.03489634      -0.02004161       0.00091462
H        1.27757558      11.64265836       4.41848039      -0.01255080      -0.00391281      -0.01280343
H        0.07882618       8.48142280       2.38670771       0.00586411      -0.02613184      -0.01438650
H        1.34867169       7.91981759       3.47063327       0.00498889       0.01499629       0.00668499
O        5.42259634       7.74002773      10.52493763       0.00099309      -0.00054461       0.00418791
C        4.48488638       9.69068320       9.61605568       0.00750303       0.00104976       0.00377727
C        5.99308217       9.89881293       9.71774400       0.00779337      -0.00308114       0.00321119
C        4.28776041       8.60210986      10.64877524       0.00489731       0.00406605       0.00570399
C        6.48805002       8.46577906       9.88001771       0.00382604      -0.00361019       0.00695699
H        3.89346915      10.57946528       9.83728778       0.01052081       0.00293560       0.00230549
H        4.20872196       9.32259976       8.62815127       0.00560395       0.00008649       0.00452816
H        6.43058912      10.40451262       8.85845036       0.00936349      -0.00637920       0.00244609
H        6.22968699      10.48990602      10.60655628       0.00895754      -0.00169501       0.00146258
H        4.26989106       9.05132133      11.65315881       0.00921722       0.00575912       0.00453538
H        3.38475322       8.00948416      10.50659947       0.00270119       0.00761485       0.00846213
H        6.66931888       8.00444563       8.90113440       0.00623178      -0.00589357       0.00871921
H        7.39602490       8.38692908      10.48089892       0.00176391      -0.00436426       0.00985011
O        6.87684041       1.20419020       9.04983353       0.00503348       0.00325841       0.00193769
C        5.12664558       2.33674162      10.21397343      -0.00152349      -0.00031811      -0.00605123
C        6.30410955       2.08059319      11.15439477      -0.00566070       0.00242956      -0.00117368
C        5.45230849       1.42749970       9.02953004       0.00522047       0.00019079      -0.00404322
C        7.44445362       1.88231749      10.17580999      -0.00105098       0.00400586       0.00442040
H        4.15994147       2.09466771      10.65632650      -0.00266227      -0.00195705      -0.01016679
H        5.09718403       3.38540195       9.91188654      -0.00241844      -0.00076407      -0.00660997
H        6.50390668       2.88904705      11.85607485      -0.01034390       0.00295998      -0.00094645
H        6.14705105       1.17273217      11.73664357      -0.00559377       0.00283363      -0.00154839
H        4.96141483       0.45872929       9.13603996       0.00701526      -0.00054109      -0.00600374
H        5.17575798       1.85295893       8.06335655       0.00827485      -0.00066251      -0.00484687
H        7.86036550       2.84901611       9.85633530      -0.00122537       0.00447536       0.00581318
H        8.25138573       1.27637474      10.58309343      -0.00269473       0.00556287       0.00828677
O       10.08867241       9.50382633      10.21618467       0.02756088       0.01226923       0.00291353
C       11.23743927      10.23826085       8.30909139       0.00447178       0.01091245      -0.00836173
C        9.95205363      11.05496330       8.42073776       0.00748813       0.01309747       0.00432742
C       10.86608966       9.01052596       9.12496572       0.00783801       0.01006359      -0.00914127
C        9.52626408      10.78259043       9.85684028       0.01625004       0.00808439       0.00621700
H       11.51559159      10.00327777       7.28326163      -0.00413756       0.01340796      -0.01106921
H       12.07159198      10.76336114       8.78335080       0.00920604       0.00657825      -0.01308118
H       10.07973662      12.11707633       8.21803675       0.00934802       0.01340133       0.00884216
H        9.20475545      10.67253139       7.72757849       0.00224739       0.01936871       0.00710902
H       10.26199659       8.31193017       8.52601207      -0.00497669       0.01780379      -0.00408769
H       11.72237166       8.46870155       9.53297152       0.00883070       0.00280228      -0.02270210
H        9.92742343      11.53978228      10.53707757       0.01293531       0.00882512       0.00616848
H        8.44632064      10.75227492       9.98860920       0.01686895       0.00037267       0.01006171
