148
Lattice="11.240309432305699 0.0 0.0 0.0 11.240309432305699 0.0 0.0 0.0 11.240309432305699" Properties=species:S:1:pos:R:3:forces:R:3 energy=-137199.578125 stress="0.003210769034922123 -5.583364509220701e-05 0.0006554091232828796 -5.583364509220701e-05 0.0016840632306411862 -0.00014087174349697307 0.0006554091232828796 -0.00014087174349697307 0.0012068027863278985" pbc="T T T"
N       10.11526902      11.09563716       0.78361722      -0.01630318       0.00637184      -0.00282910
H       10.03628071      11.95320048       1.35227005      -0.00850189       0.01083684      -0.00774339
H        9.18112246      10.89441677       0.41470875      -0.01576716       0.01590551      -0.00854726
H       10.85221208      11.22585315       0.05270757      -0.00962141      -0.00809455       0.00345740
H       10.33854872      10.32411570       1.41269681      -0.03333577       0.00578538       0.00492990
O        8.80402766       8.38033071      -0.00422557       0.02924225       0.00149596       0.00154102
O        7.86523560       6.81768076       1.89035498       0.01078641      -0.00132069      -0.01120663
O       10.44301190       7.12365129       1.59900370       0.00320542      -0.03419657       0.00018728
O        9.09860730       5.79830404      -0.18760261       0.00031107      -0.00832832      -0.00958902
Mn       9.04006507       7.03962557       0.83782659       0.01460216      -0.02049873       0.01721582
O        0.90756633       5.22573943       6.93929334      -0.01580982      -0.00712782       0.00953344
H        1.28395565       5.95438539       7.47970373      -0.01203471      -0.00140891      -0.00286096
H        1.36048321       4.44347553       7.33545571      -0.01251794      -0.00337101       0.01389955
O        9.58950361       5.44590946       7.86170477      -0.01638023       0.00191772       0.00476936
H       10.48438398       5.24525424       7.50192131      -0.01212196      -0.00051173       0.00621998
H        9.24450138       4.61224903       8.20566354      -0.02637173       0.00498655      -0.01276562
O        5.10460452       5.72400738       4.81657621      -0.01646551       0.00207258       0.00675324
H        5.06146755       4.84688581       5.26204382      -0.00561545       0.00358012       0.00364657
H        4.98220486       5.54761737       3.86732743      -0.00970887       0.00033316       0.00169942
O        1.40286065       2.32008249       2.50768179       0.00256135      -0.00058987      -0.00403013
H        0.43741684       2.29254005       2.61167869       0.00082100       0.00551121      -0.00700571
H        1.67401062       1.37398403       2.44536429      -0.00126972      -0.00136266       0.00602297
O       10.65508167       2.20055766       8.60324510       0.00287828      -0.01860913       0.00314640
H       10.75509038       2.13918157       7.61964063       0.00182375      -0.01787584       0.00220847
H        9.70429252       2.37768052       8.72955790       0.00701539      -0.00143845       0.00545765
O        7.22296889      10.96018090       1.11480162      -0.00918884      -0.00634885      -0.00676693
H        6.34072990      10.64067923       0.85941082      -0.01054299       0.00118268      -0.00424418
H        7.04418049      11.67904768       1.76194646      -0.00104754      -0.00906341       0.00126888
O        4.63451818       3.41980012       6.18388182       0.00546217      -0.00670609      -0.00365287
H        4.77965983       3.46737210       7.14922392       0.00107717      -0.01073092      -0.00382973
H        3.67291255       3.31372526       6.00367647       0.00451443      -0.00591330      -0.00750634
O        7.28500865      10.20213395       9.04724987       0.00057406      -0.01769123       0.01561087
H        7.48116570       9.76750038       9.88549579       0.00213421      -0.00579220      -0.00176321
H        8.12084821      10.15764718       8.54528219       0.00805651      -0.01632889      -0.00051510
O        8.13483591       7.49664534       6.56526426       0.00748847      -0.00814798      -0.01117650
H        8.30677211       6.73444378       7.14206611       0.01496644      -0.00217846      -0.00949579
H        7.23591374       7.85562470       6.74808439       0.00529698      -0.01017290      -0.00801658
O       12.01335525       5.16174992      -0.17424481       0.01079813       0.00472787      -0.00794995
H       12.04963550       5.71230451       0.61608128      -0.00776181       0.00919336      -0.00601687
H       11.07089824       5.18243986      -0.39868588       0.01551329      -0.00867496      -0.01784259
O        8.03004155       2.79683628       8.10156141       0.00867281       0.02019437       0.00275357
H        7.13930720       3.09439064       8.41670796       0.00544568       0.00999276       0.00287837
H        7.85367053       1.96318578       7.62213053       0.01487018       0.02133013      -0.00443829
O       10.69077590       7.78206784       8.97800083      -0.00339454       0.01036841       0.00055206
H       10.17244312       6.97685633       8.78352234      -0.00974267       0.00933984       0.00905892
H       10.43040027       8.06322368       9.86491764       0.01481517       0.01027706       0.00115692
O       10.54251737      -0.25891999       5.17108848      -0.00309025      -0.00625961      -0.01239277
H       10.26795746      -0.78115852       5.95405327       0.00054662      -0.00819603      -0.01204671
H        9.99099396      -0.56969646       4.42878091      -0.00537655      -0.00762606      -0.01017717
O        9.75417709       2.08616248       2.58399532       0.00479129       0.01525632      -0.00460720
H        9.11117788       1.59351445       3.11817881       0.01027812       0.01198890      -0.00177704
H        9.25504437       2.90927521       2.39468328      -0.00167452       0.01245628      -0.00325605
O        2.01046490       6.85271576       8.85975355      -0.00130390       0.01083179       0.00120419
H        1.91788623       6.21588200       9.58758208      -0.00532813       0.01275650       0.00337182
H        1.17285166       7.36317841       8.93873572      -0.00375901       0.00770475      -0.00829455
O        3.78952520       7.30615843       6.61112003      -0.01125823       0.00475129       0.00736810
H        3.48229758       6.78590296       7.36569235      -0.01684496       0.01187685       0.01353538
H        4.25024974       6.70928981       5.97803898      -0.02033131      -0.00143296       0.00953504
O        0.81941453       0.51625154      10.20726543       0.00266764      -0.01424225       0.00488780
H        0.32434241       1.03659637       9.53500696      -0.00041062      -0.01811461       0.00265377
H        1.44372686       1.16037421      10.61540526      -0.00068049      -0.00784110       0.00043295
O        2.93805337       1.05919652       7.60199441       0.01413828       0.00449300       0.00449811
H        2.75260092       0.75336086       6.69547883       0.01191229       0.00647048       0.00033963
H        2.98736896       0.25091886       8.13871610       0.01311423       0.00581549      -0.00009617
O        9.12774984       9.84815807       3.07203559       0.00345027      -0.01607459      -0.01072695
H        8.25623938       9.95687048       2.65845638      -0.00260943      -0.02394217       0.00182492
H        9.16040026       8.94830278       3.45053464       0.01324321      -0.01498806      -0.00558640
O        1.18170913       8.78317853       3.24643911      -0.00303197      -0.00982849      -0.01627076
H        1.64005224       7.92289754       3.29284667      -0.00001532      -0.00983329      -0.00894691
H        0.27228622       8.60852677       3.52387454       0.00246649      -0.00733819       0.00273685
O        5.30130091       2.17488349      10.98496256      -0.02672860       0.01891260       0.00200465
H        5.75929483       1.32710605      10.98568001      -0.03416704       0.01795475       0.03072542
H        4.36133965       1.98680711      11.15118702      -0.03255157       0.03313349       0.00331345
O        9.95889762       7.70780226       4.52864102       0.01272438      -0.00264692       0.00119212
H       10.19040048       6.79320437       4.29075765       0.01273073      -0.00583792       0.00480545
H        9.28286203       7.61619053       5.22931975       0.01060238       0.00058571      -0.00251709
O        2.17362075       6.15352477       3.54069223      -0.00378547      -0.00982435      -0.00537241
H        1.34504653       5.67007666       3.76543135       0.00075013      -0.00740428      -0.00437769
H        2.73098976       6.06538122       4.32517923       0.00135446      -0.01084907      -0.00587706
O        4.30341155       5.39381956       2.08463893       0.02055312      -0.02220708      -0.01627880
H        3.38313354       5.45815609       2.41296644      -0.00762681      -0.00541895      -0.00286876
H        4.36692329       4.60317774       1.54049582       0.01467478       0.01472369       0.01377943
O        9.51406814       9.68179152       7.35816829      -0.00736064      -0.00154693      -0.01149334
H        9.00873279       8.89352073       7.04557219      -0.00255016      -0.00542192      -0.01225142
H       10.18766212       9.24514835       7.91438980      -0.00792575       0.00488939      -0.00813513
O        2.83198414      10.88708113       5.21831270      -0.00007986       0.02468295      -0.00543842
H        2.50824357      10.97285212       4.31094479       0.02246093       0.02771379      -0.01164123
H        2.34089651      10.12575728       5.60681496      -0.00651834       0.02069131      -0.01825153
O        2.19187813       3.05596687       5.14265206       0.00205936       0.01093457      -0.00368709
H        1.33706009       2.77186936       5.51723100       0.00589350       0.00124879      -0.00243500
H        2.10236783       2.83113657       4.19913222       0.00414735       0.00818078      -0.00310993
O        8.41506229       3.30350262       5.34661164       0.01369518       0.00758435      -0.00513095
H        8.04822182       2.39356431       5.36180374       0.01230407       0.00749966       0.00376461
H        8.22258342       3.60505040       6.25072328       0.01215350       0.01816111      -0.00894930
O        7.95589262       4.13987954       2.78594256       0.00118130      -0.00403276       0.00645319
H        8.04121406       4.14121572       3.75815783      -0.00358995       0.00374433      -0.00409057
H        7.84250417       5.06186140       2.50037563      -0.00800054       0.00588503      -0.00804360
O        1.93704903       3.34013412       8.57737831      -0.01023988      -0.00287244      -0.00021474
H        2.32943061       2.50481559       8.21493759      -0.00163774       0.00096199       0.00041017
H        1.01303033       3.09389513       8.76648605      -0.00803547      -0.01302235      -0.00081085
O        7.60346209      12.04979665       6.20912197       0.01847720       0.01328266       0.01101970
H        6.69342109      11.87607374       5.86260931       0.01660915       0.00328489       0.01344082
H        8.13114883      11.25611610       6.08147705       0.02057072       0.01739188       0.02988876
O        1.48607564       8.82444188       6.42495587       0.00104982       0.01629594      -0.01441421
H        0.82521663       8.57784785       5.76685863      -0.00018944       0.00364498      -0.00790252
H        2.20800654       8.17267261       6.34647639       0.00363401       0.01693228      -0.00705274
O        5.94707405       8.99793040       6.90069085       0.00058249      -0.01758738       0.00428545
H        5.08634026       8.55247179       7.01297573      -0.00014869      -0.01363669       0.00296238
H        6.16590571       9.49262970       7.71452731       0.00189180      -0.01608011       0.00415762
O       11.08799423       5.14698707       4.43236533      -0.00221106      -0.00255609       0.00245132
H       11.45881355       5.09231106       5.34286376      -0.00560695      -0.00842459       0.00281725
H       10.76143899       4.26661236       4.22159383      -0.01506562       0.00262652      -0.00109244
O        2.25868623      -0.20860352       2.23720050       0.01267532       0.00066473       0.02899383
H        3.04755477      -0.37904279       1.68486314       0.00428230       0.00240814       0.02004267
H        1.88766075      -1.07402690       2.51459055       0.00466296      -0.00345761       0.01683924
O        4.32433166       8.24826061       2.09670996       0.00850791      -0.00341582       0.00047900
H        4.97322016       8.41513317       2.81350283       0.00654589      -0.00261560      -0.00051264
H        4.43682025       7.31386210       1.86821355       0.01217037      -0.00623424      -0.00062960
O        4.44722862      10.36553106       0.52966570      -0.01081067       0.00281575       0.00671940
H        4.44589440       9.48517076       0.98520576      -0.00415297      -0.00096610       0.00326218
H        4.01046862      10.23210158      -0.33426997      -0.00490241       0.00262717       0.00516017
O        6.96415356       1.56266251       3.07543362       0.01168126      -0.00751875       0.00175959
H        6.23367370       1.37734417       3.70366533       0.01452040      -0.01100386       0.00641979
H        6.91504776       2.50032302       2.83049783       0.00426458      -0.00947379       0.00087403
O        6.25465395       8.58634880       4.05134544       0.00705111      -0.00085047       0.00475180
H        6.48789907       7.66741271       4.23228717       0.00259465       0.00371840       0.00662395
H        6.05219952       8.95078431       4.92743699       0.00198723       0.00198448       0.00742114
O        5.22280392       0.97613232       5.09632928       0.01541361      -0.00726072       0.00682348
H        4.44568264       0.38283777       5.16247526       0.01172809      -0.00310947       0.00494321
H        4.96548813       1.81342494       5.54608772       0.01406385      -0.00358179      -0.00051753
O        5.61191736       3.69469203       8.78557619      -0.00090256      -0.00158930       0.00131401
H        5.42543010       3.15796032       9.59255011      -0.00273729       0.00231534       0.00374404
H        5.88549956       4.58223896       9.08442716      -0.00462925       0.00092117      -0.00192463
O        0.99017852       8.68024365       0.11205721       0.00272541       0.03262905      -0.00103210
H        0.56553228       8.18820567       0.83107980      -0.01135112       0.00251354       0.03708345
H        1.76983523       9.07030001       0.52033784      -0.03557833       0.01668459      -0.02535398
O        6.90549026       6.08898692       9.33153872      -0.00270786      -0.00379333      -0.00464439
H        6.55746650       6.93113268       9.63635907      -0.00572033       0.00378433      -0.00847013
H        7.68126015       5.92165452       9.90114258      -0.00807126      -0.00054489      -0.00390877
O        2.83960257      10.07528572       9.45701567       0.00167802      -0.00364906      -0.00002050
H        2.00144901      10.51822264       9.71647189       0.00097672      -0.00680475      -0.00495087
H        2.59321147       9.16630524       9.24352507       0.00463571      -0.00702389      -0.00767939
O        2.53070993       2.41511545      -0.01657638      -0.01494341       0.00102085      -0.00194641
H        2.33915917       3.08453873      -0.69699028      -0.01766713       0.00620050       0.00325472
H        2.06774795       2.67125194       0.80612539      -0.01037225      -0.00478446       0.00355635
O       10.89724115       2.23343564       5.92967128       0.00799954      -0.01150069       0.00399067
H       10.06392467       2.68546523       5.68051570       0.01253449      -0.00560744       0.00244844
H       10.78366633       1.30215531       5.59149832       0.00544490      -0.00868468      -0.00333491
