149
Lattice="16.44423021874228 0.0 0.0 0.0 16.44423021874228 0.0 0.0 0.0 16.44423021874228" Properties=species:S:1:pos:R:3:forces:R:3 energy=-1095728.0 stress="-0.0004389790410641581 0.0002344260283280164 0.00016409737145295367 0.0002344260283280164 -0.0004522537346929312 1.3514324109564768e-05 0.00016409737145295367 1.3514324109564768e-05 -0.0001581584510859102" pbc="T T T"
N       13.37798249      13.90809320       0.47960802      -0.00492007       0.00953287      -0.00359291
H       13.46301909      13.76573278      -0.52183434      -0.00940744       0.00256671      -0.00415671
H       12.46849780      13.58757558       0.80148221      -0.00181872       0.01260550      -0.00101867
H       14.10803615      13.37990079       0.95262689      -0.00497234       0.00647566      -0.00812028
H       13.53071791      15.03377354       0.69279848       0.00801460       0.01682550      -0.00040925
O       15.20220179      15.84894392      -0.63468968      -0.02602899       0.02421117      -0.00090909
O       15.22270496      17.82551910       0.26345821       0.02432632       0.00700450       0.01849678
O       13.77342174      16.36576455       0.93209644       0.01662719      -0.00324890       0.02477527
N       14.76617498      16.68943031       0.15730305       0.00567031      -0.04107716      -0.01051064
Cl       5.12815306       6.31644153      10.19494095      -0.01300198      -0.00944516      -0.00171787
Cl       5.99873008       7.80537292      12.55385646      -0.00920802      -0.00822884      -0.00452253
Cl       5.22012957       5.00622655      12.80306715       0.00111926      -0.01115525      -0.00306073
C        5.95852079       6.22542821      11.76524914      -0.00723348      -0.00784272      -0.00495775
H        6.97996390       5.92571086      11.56559848      -0.00739461      -0.00482246      -0.00940613
Cl       3.36922676       4.55181611       7.44741208       0.00613444      -0.00567748       0.01041818
Cl       0.97890139       5.96165577       8.32818589       0.00731081      -0.00054437       0.00398442
Cl       1.06102355       3.04195337       8.41932703      -0.00420055      -0.00079438      -0.00954226
C        1.99275203       4.53338339       8.57094095       0.00055350      -0.00537924       0.00298811
H        2.39850136       4.57397921       9.57541119      -0.00627699      -0.01219902       0.00599846
Cl      11.45799494      14.33707065      10.07974871      -0.00898600      -0.02697990       0.01114406
Cl      13.65746917      12.46773698      10.58611591       0.01614791       0.00544229       0.01184919
Cl      14.04330455      14.73720846       8.79283608      -0.01987271       0.00045164      -0.00157347
C       13.21629177      14.15167628      10.23333696      -0.00652938      -0.00262966       0.00479466
H       13.53511018      14.74799591      11.07948485      -0.01159549       0.00606231       0.00007239
Cl       9.16704414      10.14009424       3.95659102       0.00946197       0.00334010       0.00403315
Cl       8.33435810       9.58044255       6.70316129       0.00664833       0.01189764       0.00485831
Cl       8.59483733      12.34280608       5.78916309      -0.00488429       0.00863826      -0.00731298
C        8.18164463      10.68121307       5.32213966       0.00434862       0.00463290      -0.00041015
H        7.14322843      10.68350282       5.01089530       0.00506836      -0.00130059      -0.00241165
Cl       8.18085817       5.34429654       3.76390545       0.00064155      -0.00231612      -0.00136180
Cl       5.32864899       5.70891720       3.26575100       0.00249578      -0.00698057      -0.00146356
Cl       6.21198329       4.19647870       5.58057336       0.00070024      -0.00129165      -0.00037882
C        6.58994756       5.54506632       4.49941003       0.00150175      -0.00132240      -0.00027722
H        6.60162314       6.45162370       5.09350802       0.00176093      -0.00001048      -0.00168820
Cl       1.07137019      14.82451975      10.26507314       0.00228476       0.00207631      -0.00624205
Cl       0.77152816      15.62151251       7.46608332       0.00662373       0.00173385      -0.00590797
Cl       3.40009110      14.94504252       8.52346523       0.00587484       0.00487320      -0.00144773
C        1.66114107      14.60815095       8.60780398       0.00616009       0.00310078      -0.00480391
H        1.51197085      13.56974209       8.33634481       0.00826140       0.00290379      -0.00505713
Cl      12.88661461       9.28532069       5.93451135      -0.00163225       0.00598969      -0.00116807
Cl      14.73425861      11.41335371       6.72393117      -0.00093412       0.00330167       0.00225995
Cl      11.87376720      11.68235920       7.25219837      -0.00046325       0.00609154       0.00062417
C       13.22900828      10.55961220       7.11551955      -0.00204504       0.00453104       0.00016270
H       13.36417858      10.08006961       8.07672718      -0.00347560       0.00400624       0.00005838
Cl      13.50137081       9.98038761      13.66008265       0.00730482      -0.01017649      -0.01788211
Cl      11.31857805       9.21610584      15.44582115       0.01197231       0.00408375      -0.00622980
Cl      12.23660938       7.36256974      13.39109374       0.00105333      -0.00616591      -0.00274022
C       12.71567701       8.64531072      14.51193294       0.00722192      -0.00340424      -0.00866682
H       13.43222507       8.23206970      15.21180513       0.00755540      -0.00318723      -0.00882256
Cl       8.65478556       5.72642995       7.92887438       0.00339216       0.00673938      -0.00321108
Cl       7.28911047       3.33892493       8.89539319       0.01600569       0.00199751       0.00332951
Cl       9.50395224       3.08238576       7.01172942       0.01012925       0.01001504      -0.00273278
C        8.83356327       4.00960045       8.35666463       0.01172691       0.00823184      -0.00110639
H        9.52743922       3.95269093       9.18795023       0.01486796       0.01284087      -0.00331268
Cl       2.10719901      11.39917237      10.28361270       0.00482589       0.01116431      -0.00253907
Cl       2.54406735       9.37203574       8.22692190      -0.00458337       0.00287111       0.00546527
Cl       4.73993348      10.16826484       9.99291704      -0.00041562      -0.00267231       0.00258567
C        2.99555986       9.92527475       9.84704497      -0.00157090       0.00575891       0.00340965
H        2.71132440       9.14998272      10.54915420      -0.00444995       0.01016718       0.00699094
Cl       7.69237463      -0.22006128       4.50662793       0.00601809      -0.00246665       0.01113500
Cl       9.87626010       1.59134174       3.79055086       0.00100589       0.00108569       0.00647989
Cl       7.37662587       1.65631105       2.28784143       0.00213599      -0.01142545       0.00385258
C        8.12724093       1.37935470       3.86917622       0.00181906      -0.00392389       0.00524262
H        7.73309336       2.11941409       4.55422798      -0.00168476      -0.00244004       0.00133747
Cl       9.60405927      14.83842971      14.97799726      -0.00647739       0.00953779      -0.00630620
Cl      12.21696123      15.44767977      13.81996701       0.00528958       0.00184713       0.01584016
Cl      11.36460356      12.67900944      14.11845187      -0.00740540       0.00424498       0.00684435
C       10.82597461      14.34338276      13.81190388       0.00202452       0.00691645       0.00354081
H       10.39339593      14.36468426      12.81918199       0.01140112       0.00776945      -0.00007558
Cl      14.46237020      10.11840396       2.80913848      -0.00028598      -0.00004218       0.00471266
Cl      15.49690565      10.52774641       0.11228905      -0.00651792       0.00395446       0.00474939
Cl      16.12244184      12.45017050       2.21679883      -0.00039153       0.00046702       0.00172229
C       15.79697769      10.73685752       1.84671356      -0.00063351       0.00059839       0.00422888
H       16.68929908      10.17775550       2.10448454      -0.00181961      -0.00332108       0.00180294
Cl      12.04183792       3.35462789       1.19337406      -0.01441377       0.00681610       0.00891382
Cl      14.65452699       4.54710929       1.68731770      -0.00256142      -0.01706314      -0.01291069
Cl      13.27413530       3.11214643       3.83120237       0.00649144      -0.00952335      -0.00467491
C       13.56344650       3.20559164       2.07568301      -0.00750436      -0.01102889      -0.00637378
H       14.04792210       2.29013718       1.75730419      -0.01894337      -0.01478803      -0.01007836
Cl       5.89898137       9.39041267       2.49735975       0.00598758      -0.00228243      -0.00824519
Cl       3.69855171       8.96996536       4.35872115       0.01072743       0.00355581       0.00021794
Cl       3.21997394      10.33466535       1.81744433       0.00759712      -0.00638342      -0.00340431
C        4.16451269       9.08609239       2.66037463       0.00708126      -0.00392932      -0.00128752
H        3.94600156       8.14018629       2.17910325       0.00663918      -0.00730380       0.00523605
Cl      10.66983546       2.79481778      14.39246864      -0.00285882      -0.01210317      -0.02045864
Cl      11.30549310       4.21862768      11.92223609       0.00047891       0.01588786      -0.00122935
Cl       8.59434568       3.24054782      12.38014448      -0.00201875       0.01742499      -0.01110241
C       10.06207418       3.87981446      13.14838921      -0.00097125       0.00594102      -0.00526699
H        9.80241496       4.82039817      13.61982787       0.00200002       0.00166246       0.00511307
Cl       6.10895061      12.98410737      -1.40802899       0.00852636       0.01332696       0.00728264
Cl       7.86581530      12.01651018       0.71862382      -0.00301674       0.00211786       0.01102646
Cl       6.92282592      14.77790862       0.75727118      -0.00137423       0.00164694       0.02101338
C        6.53173229      13.10733765       0.30485586      -0.00001460       0.00479789       0.00977704
H        5.66454869      12.80704204       0.88145821      -0.00371298       0.00300226       0.00315078
Cl      10.84749649      10.53764606      10.90409003      -0.00303733      -0.00566809      -0.00198843
Cl       7.96070538      10.75030829      11.21895988      -0.00236264      -0.00299732       0.00574557
Cl       9.16789916       8.19456914      10.44845709      -0.01005639       0.00209096      -0.01396158
C        9.37174376       9.69149936      11.38079540      -0.00348407      -0.00543474      -0.00349814
H        9.46378350       9.41807154      12.42517381       0.00039633      -0.01100940      -0.00515530
Cl       1.85853972       1.53701051      15.40466205       0.00154334       0.00618178      -0.00998981
Cl       2.07870712       4.43975456      15.52407908       0.01511863       0.00375530      -0.00066720
Cl      -0.17194144       3.21117454      14.12418664      -0.00057480       0.01981400       0.01185879
C        0.95673467       3.04230033      15.47388159       0.00908125       0.00940955       0.00244249
H        0.37662827       3.04964249      16.38656545       0.01559439       0.00886835       0.00704286
Cl       2.62857318      12.40853902       5.58895445      -0.00354837      -0.01948614      -0.00429477
Cl       5.13127958      11.78315397       6.92879856      -0.00299248      -0.00298139       0.00128630
Cl       5.15095737      12.58730238       4.12039754      -0.00227072      -0.00038894       0.00190136
C        4.36410878      12.77586577       5.69767551      -0.00643484      -0.00723640       0.00016736
H        4.45728439      13.81649207       5.98120662      -0.01645927      -0.00655246       0.00097775
Cl       5.32480939       6.97684612      -0.28736098      -0.00939265      -0.01284774      -0.00522515
Cl       6.97271452       4.57657561      -0.10703140       0.01119642      -0.00158206       0.00837036
Cl       8.21742257       7.14862526      -0.71982519      -0.01070097      -0.00026219      -0.01177149
C        6.91396056       6.32034869       0.15156854      -0.00449748      -0.00036170      -0.00378948
H        7.06408100       6.50595208       1.20844602      -0.00599378       0.01129674      -0.00578055
Cl       1.31222988       9.14570767      13.57378829      -0.00483890      -0.00762224       0.00667189
Cl      -0.63391828       7.03082148      13.05034106      -0.00276372      -0.00792094      -0.00302391
Cl       2.06817349       6.83822391      11.95826419      -0.00030608      -0.00072861      -0.00091970
C        1.07096769       7.40805786      13.30870304      -0.00358937      -0.00636517      -0.00125119
H        1.40067544       6.88082072      14.19557790      -0.00490920      -0.00996332      -0.00308311
Cl      12.44122634      12.58839916       3.61601127      -0.00298975       0.00893721      -0.00157111
Cl      12.60090399      15.45228558       4.12322969      -0.01753202       0.00839409      -0.00037076
Cl      10.46829325      14.37289247       2.43505771      -0.01416354      -0.00342693       0.00096157
C       11.52233574      14.08708896       3.83880919      -0.01114596       0.00361478      -0.00034554
H       10.88540559      13.95841387       4.70525841      -0.00883760       0.00132625       0.00101101
Cl       3.18189350      15.69163654       4.34227992      -0.00949404      -0.00343500       0.00134444
Cl       0.74340377      15.71333477       2.74416306       0.00072560      -0.00502080      -0.01157035
Cl       3.31507181      15.16339057       1.47464403       0.00696498      -0.01218721       0.00430492
C        2.34751590      14.99492911       2.94493054      -0.00199310      -0.00703839      -0.00117502
H        2.22028277      13.93637530       3.13906794      -0.00409625      -0.00660565       0.00041459
Cl      12.05599878       6.25696410       8.40034619       0.01057813      -0.00024392      -0.00136112
Cl      14.34137048       7.77174126       9.41444887       0.00853574      -0.00131670       0.00346994
Cl      14.13745420       4.91042659       9.94041392       0.00677211      -0.00076634       0.00350195
C       13.77920501       6.20478242       8.79049245       0.00963202      -0.00102697       0.00241825
H       14.32866014       6.00584765       7.87829541       0.01005176      -0.00126739       0.00272557
Cl       3.86703172       0.08755677      12.44751197      -0.00789018      -0.00709403      -0.00715265
Cl       2.47302882       2.58665439      11.88162184       0.00682299       0.00185350      -0.00346303
Cl       4.76678832       1.79014093      10.25589679       0.00008154      -0.00984803      -0.00751436
C        3.36812186       1.22864111      11.19463842      -0.00169596      -0.00266089      -0.00479351
H        2.70934152       0.70723148      10.51102717      -0.00591928       0.00226949      -0.00412738
Cl       0.23858423       8.62131273       5.51737162      -0.01332111       0.00255501       0.01539600
Cl      -1.07282139       6.09300506       4.89678244      -0.00528100       0.00386333       0.00379471
Cl       0.40308024       7.50958113       2.81808882       0.00599529       0.00768317       0.01368900
C        0.30288220       7.13911755       4.56104197      -0.00457006       0.00547614       0.01223388
H        1.20774285       6.59974201       4.81335024      -0.00537243       0.00764811       0.01877003
Cl       3.62638180       2.29215547       2.67616292      -0.00012688      -0.00149459      -0.00737914
Cl       1.94604404       4.65054149       2.89625134       0.01240219       0.00792943      -0.00291300
Cl       1.56713286       2.44925412       4.75766591      -0.00301868      -0.00091791      -0.01313244
C        2.74177719       3.33706917       3.78317564       0.00227311      -0.00089764      -0.00633983
H        3.45509813       3.78856679       4.46176090       0.00138725      -0.00619936      -0.00232476
