150
Lattice="17.374086437259372 0.0 0.0 0.0 17.374086437259372 0.0 0.0 0.0 17.374086437259372" Properties=species:S:1:pos:R:3:forces:R:3 energy=-1451534.375 stress="-0.0005205372581258416 -0.0003212732699466869 5.303377656673547e-05 -0.0003212732699466869 -8.288888056995347e-05 -3.578289761207998e-05 5.303377656673547e-05 -3.578289761207998e-05 -0.00021487870253622532" pbc="T T T"
N       17.39943583      16.32683860       0.37611192       0.00064099      -0.02963464       0.01562150
H       17.02178846      15.43747461       0.02411874      -0.00360590      -0.01443619       0.01948339
H       18.32604933      16.16360042       0.77259151      -0.01472360      -0.01355209       0.01580951
H       17.43435443      17.04731765      -0.33721852       0.00933479      -0.01996553      -0.00939667
H       16.72814334      16.55756288       1.15302316      -0.00276124       0.00189197      -0.01138711
B       15.90061852      14.68166616       2.24061794      -0.02160223       0.00636597      -0.00416963
F       17.24147892      14.57707615       2.61175533      -0.02021027       0.00126442      -0.01090217
F       15.78466317      14.21222324       0.90822341      -0.02407838       0.00385880      -0.00438702
F       15.06363407      14.04661563       3.10211654      -0.02049541       0.00870222      -0.00267148
F       15.58625972      16.09843428       2.19163478      -0.01404512       0.00601041      -0.00506376
Cl       7.38685734       7.20102112      14.84250266       0.00803041       0.01167993      -0.00287922
Cl       5.78628720       5.08987031      13.67984468       0.01567505      -0.01040825       0.02520224
Cl       4.80293405       7.82011857      13.67652277       0.00453582      -0.01640609      -0.00970644
Cl       4.96376591       6.34883770      16.16534410       0.01185003       0.01936200       0.00964445
C        5.73427063       6.61614647      14.59487319       0.00901231       0.00155397       0.00483656
Cl      13.57508265      14.41610705       8.59400020      -0.00758910       0.00907381      -0.00683990
Cl      11.34919112      16.20263612       8.09232492      -0.01397628      -0.00348386      -0.01140019
Cl      11.90047092      15.31419450      10.79040778      -0.00559905       0.01035112      -0.00703827
Cl      10.86628248      13.43600904       8.82764313      -0.00245690      -0.00079787       0.00437696
C       11.92859321      14.83845188       9.06839678      -0.00692806       0.00207669      -0.00375552
Cl       7.73082766      13.03971666       3.59198204       0.01771647      -0.01407148      -0.00946340
Cl       9.49181691      11.86416778       5.56062575       0.00115103      -0.02277851       0.00245884
Cl       6.81482535      10.80381637       5.19361713      -0.01159877       0.00902364       0.00471285
Cl       7.19948787      13.40675591       6.42532662       0.01848996       0.01290956      -0.01233569
C        7.81037468      12.27577886       5.19753215       0.00284721      -0.00578580      -0.00460878
Cl       4.24585425       7.42071164       2.63090401      -0.00648831      -0.00340148       0.00181514
Cl       4.18244262       5.56015037       4.85757558       0.00305405      -0.00241631       0.00422528
Cl       1.74617368       6.88145494       4.00633129      -0.00083536      -0.00736646       0.01502640
Cl       3.82723051       8.40025908       5.32921314       0.00279297       0.00177577      -0.00083795
C        3.50146607       7.06422114       4.20243555      -0.00041555      -0.00611120       0.00590971
Cl       0.13195888      14.92919013      10.31050887      -0.01119107       0.01897219      -0.04314279
Cl       2.74909412      15.90260839      11.07894853      -0.01547915      -0.02612164       0.01190388
Cl       0.65971870      17.78518000      10.37684947       0.01857077       0.01232934       0.01433181
Cl       1.87916605      16.12950968       8.32741577       0.02587526       0.02580395       0.00337708
C        1.35219654      16.18362571      10.02176114       0.00353489       0.00374278       0.00017329
Cl      13.93363649       7.91890085       9.07619246       0.00522819       0.00640959      -0.00127658
Cl      13.08209507      10.57968754       8.29220287      -0.00412202      -0.00125575      -0.01363413
Cl      12.89557122       8.38426191       6.41151240       0.01077101      -0.00900491      -0.00729433
Cl      15.49040283       9.43348167       7.15180486       0.00386369       0.00736825      -0.00113496
C       13.84177467       9.08130690       7.73410570       0.00428500       0.00177192      -0.00481990
Cl      16.50552982      12.04760338      13.02431881       0.00096157       0.00786193      -0.00920796
Cl      13.97737574      12.87775105      11.87723335      -0.00489667      -0.01609659      -0.01278018
Cl      14.59307183      10.06051648      12.10129613       0.01163751      -0.00982398       0.00787719
Cl      16.01921583      11.70464287      10.19343904       0.00173604      -0.01614922      -0.00568223
C       15.26694405      11.67157234      11.79865482       0.00273934      -0.00715272      -0.00525158
Cl      11.71017963       2.58284547       8.35880064      -0.01269724      -0.00431606      -0.02020881
Cl      11.05785772       5.40880545       8.31589041       0.00258698      -0.00107586       0.00595537
Cl      10.02297028       3.65369097       6.25661992      -0.00841591       0.02326627      -0.00908887
Cl      12.84531294       4.30447564       6.31717505      -0.00384420       0.00805662      -0.00580913
C       11.40947235       3.99040992       7.31145220      -0.00701869       0.00597984      -0.00579482
Cl      12.99484841       6.17078049       1.88311510       0.00366873      -0.00164782      -0.00691575
Cl      10.19409745       6.89452204       1.70372451       0.00251961      -0.00072020       0.00151186
Cl      10.95518674       4.25412265       2.62824744       0.00221643      -0.00461486      -0.01338530
Cl      11.32068708       4.98227464      -0.15802352      -0.00107675       0.00930049      -0.00996929
C       11.37187828       5.57226561       1.51633444       0.00127721      -0.00133023      -0.00739910
Cl       2.35333252      11.76262873      10.73403052       0.00025429      -0.03147562       0.00447041
Cl       4.08965542      12.76289013       8.64147274      -0.00205407      -0.00407094       0.01887140
Cl       1.54524553      11.55728669       7.95455726      -0.00323251       0.00540248      -0.00011554
Cl       3.71135916       9.90742125       8.96915091      -0.00269541      -0.00626177      -0.02889106
C        2.93064283      11.50013536       9.07734167       0.00221949      -0.00939725      -0.00341674
Cl       5.80267658      -0.15966262       5.85422378       0.00247486      -0.00665888      -0.01682672
Cl       6.45814975       2.62933395       5.42411502       0.00793220      -0.00081834       0.01297858
Cl       7.72554899       1.15881789       7.58087856      -0.00619811      -0.02097344       0.00887769
Cl       4.90984404       1.84677762       7.75434889      -0.00298280      -0.01840933      -0.00458410
C        6.22380481       1.37043067       6.66146620      -0.00446843      -0.01034292       0.00425022
Cl      11.55360009      15.16008853      14.75487814      -0.00440019       0.00715360       0.00158183
Cl      13.90113722      13.67530555      15.59181963      -0.00735837      -0.00593984      -0.00717172
Cl      13.38706278      16.30576074      16.69386966      -0.00108159      -0.01010224       0.00688288
Cl      14.19148759      16.03049754      13.91796573       0.00209630       0.00316051       0.00910515
C       13.25869453      15.28733971      15.24425176      -0.00277469      -0.00056303       0.00281173
Cl      11.97149468       9.80655044       3.10280778       0.00064501      -0.01401302       0.00372036
Cl      12.95598865      12.22405904       1.86603968      -0.02795003      -0.00726020      -0.00508887
Cl      14.81461022      10.38222996       3.12636947      -0.00542581       0.01729470      -0.00818328
Cl      13.01811195      11.95929914       4.75274016      -0.01507249       0.00321427      -0.00664300
C       13.19477279      11.09881702       3.20900578      -0.01126052       0.00221799      -0.00459429
Cl       7.40548007       2.01878581       1.79716711       0.02942407       0.01274288       0.02009754
Cl       5.04984187       3.60197103       1.15376987       0.01754785      -0.00456747       0.01698082
Cl       7.58936668       4.14792117      -0.14440054       0.00975271       0.00391744       0.00518882
Cl       7.20687150       4.77864568       2.66261983       0.01357800       0.01693797       0.00398576
C        6.82463482       3.63121961       1.36448734       0.01507461       0.00957794       0.01280688
Cl      16.38700889       4.68297008       2.41162870      -0.01487918      -0.00586745       0.00627244
Cl      15.46214889       2.89468010       0.32023506      -0.02052328      -0.00918848       0.01481709
Cl      14.63137604       2.46860800       3.05986524       0.01712433      -0.02529229       0.02116415
Cl      17.38722930       1.97263332       2.28374170       0.01188989       0.00611271      -0.01064893
C       15.94789778       3.01191626       2.02461782      -0.00400661      -0.00782598       0.00915525
Cl      13.94233255       7.46180210      15.39284089       0.00474223      -0.00886419       0.00384945
Cl      15.68350749       7.79216518      17.69500928      -0.00270230       0.00647911       0.00883621
Cl      13.82583215       9.89223116      16.96296942      -0.00443056      -0.00289634      -0.00611719
Cl      16.13498196       9.36155446      15.30944620       0.00314146      -0.00360954       0.00291130
C       14.89125293       8.63058140      16.33988360      -0.00006485      -0.00213184       0.00495598
Cl      16.26876166      14.62057872       6.40119153      -0.01479591      -0.00115752       0.01851615
Cl      16.97968688      17.05941236       5.02914203       0.01623863      -0.02052996       0.00309235
Cl      15.75185984      17.19995909       7.64095046      -0.00286000       0.01449290      -0.00762767
Cl      14.18558951      16.35344428       5.35940957       0.00644666       0.00514387      -0.00893864
C       15.78462349      16.30507997       6.10668611      -0.00062609      -0.00178314       0.00218017
Cl       1.44853220       4.60777088       7.72399244      -0.00330555       0.00792513       0.00104950
Cl      -0.93764949       5.78125985       6.56602301      -0.00721243      -0.00120318       0.00477526
Cl      -1.17684917       3.62423174       8.48768625       0.00580719      -0.01160930      -0.00218457
Cl      -0.14048687       3.08521647       5.84204786       0.01103961       0.00623071      -0.00700814
C       -0.19698043       4.27375217       7.15087701       0.00532164       0.00245434      -0.00025737
Cl      11.76676607       3.76038331      12.05128213      -0.00609303       0.00000204       0.00091201
Cl       9.78544073       3.43499931      14.14818722      -0.00241965       0.01924768       0.00791574
Cl       9.02807044       4.59645312      11.59911501      -0.00061363       0.01718524       0.00607932
Cl      10.71556738       6.08805788      13.42749485       0.01286598       0.01117036      -0.00299546
C       10.32414669       4.46997915      12.80175492       0.00096151       0.01207185       0.00186598
Cl       4.22487569      10.25391817      -0.69457059       0.00161859      -0.00770265       0.00821003
Cl       6.49719333       9.83147596       1.05947566       0.01926103       0.00948307      -0.01425584
Cl       4.21968562      11.37764677       1.98180611       0.01377201      -0.01846425       0.01539493
Cl       5.99190045      12.46481003      -0.03929154      -0.01650988       0.00668636      -0.00304046
C        5.22884505      10.98141457       0.57660719       0.00610462      -0.00108445       0.00214176
Cl       2.27579829       4.78964392      14.24744214      -0.00443077       0.01529332       0.00438222
Cl       1.59873763       4.23468326      17.00941166      -0.01269176      -0.00150087      -0.00153255
Cl      -0.47248222       4.97987948      15.11499366      -0.00432548       0.03954393       0.00706814
Cl       1.45808332       6.94467537      16.00751175       0.01587872       0.00969297       0.02233721
C        1.21785116       5.24148020      15.58851225      -0.00100146       0.01567864       0.00848421
Cl       8.22969787       9.32444932       8.54618040      -0.00594567      -0.00837766       0.00393713
Cl       8.71961881      11.14093791      10.74861509       0.00909413      -0.00290751      -0.00328329
Cl      10.49000565       8.88084583      10.30924743      -0.00831401      -0.01465125       0.00114229
Cl       7.79470152       8.44625584      11.28060185      -0.00689444       0.00389254       0.00578418
C        8.80482815       9.44513688      10.21904775      -0.00183196      -0.00642517       0.00260468
Cl       3.71767418       1.78498378      12.87980507      -0.00866521       0.00652629       0.00487250
Cl       4.15832139      -0.66335458      14.36654556       0.00258084      -0.00844866      -0.02066544
Cl       1.77678757       0.93254567      14.85088967      -0.01117402      -0.02616428      -0.01354174
Cl       4.37701551       1.89629750      15.70270043      -0.01907435      -0.02313676       0.01033115
C        3.52690166       0.99087975      14.45255275      -0.01046413      -0.01230132      -0.00500484
Cl       5.96479991      15.61560465       9.07857508      -0.00023198       0.00497909      -0.00397083
Cl       6.45621473      17.35206523      11.33583623      -0.00760081       0.00196642       0.00112337
Cl       8.45638127      15.41405754      10.54776095      -0.00808275       0.00335146       0.00553532
Cl       5.99238400      14.51854004      11.77048277      -0.00904372       0.00136641      -0.00583330
C        6.72382463      15.72506691      10.68104943      -0.00129223       0.00282785      -0.00000745
Cl      10.44690052      11.84534412      16.46526445       0.00036582      -0.01179355       0.01029211
Cl      11.13853652      10.75213880      13.87156116       0.01631105       0.00708276       0.00479731
Cl       8.36287289      10.85398807      14.71223525       0.01168883      -0.00942451      -0.00628918
Cl      10.19884642       9.00102640      15.98542073       0.01397289      -0.00980175      -0.00836767
C       10.03460613      10.61719031      15.25287995       0.00929273      -0.00514776       0.00098927
Cl       1.04121475       8.06468966      12.56701341      -0.00436095       0.01997840      -0.01739067
Cl       0.40424117       7.98089099       9.74191935      -0.01344323       0.00037640      -0.01739734
Cl      -0.03756600       5.64554097      11.39158540       0.00129420       0.01295596       0.00003643
Cl       2.66885811       6.47814656      10.76740601      -0.00306368       0.01994042      -0.01467629
C        1.01512771       7.04481215      11.11376977      -0.00598007       0.01165213      -0.01294853
Cl       9.09697715      16.75820320       3.83055465      -0.00856832       0.00004013      -0.00565323
Cl       9.35907282      16.04731934       1.02814371       0.01935700      -0.00984864       0.00086245
Cl      11.39067765      15.22241502       2.92339362       0.00877336       0.01115727       0.02159837
Cl      11.13939336      18.01740551       2.19536430      -0.00110081       0.00432241       0.00627591
C       10.25353586      16.50513739       2.50005947       0.00683808       0.00217450       0.00293387
Cl       2.38261096      15.80061188       3.04513312       0.01291972       0.00775842       0.00659400
Cl       4.28830361      17.81795005       2.21257648       0.00292196       0.01168358       0.00248528
Cl       3.63333950      15.62039055       0.44119671       0.00521274       0.01428792       0.00241143
Cl       5.19433488      15.13189477       2.84109922       0.01246828       0.01399344      -0.00513762
C        3.88250004      16.09888501       2.16036967       0.00882146       0.01432943       0.00209087
