149
Lattice="12.849643739130645 0.0 0.0 0.0 12.849643739130645 0.0 0.0 0.0 12.849643739130645" Properties=species:S:1:pos:R:3:forces:R:3 energy=-330953.5625 stress="-0.0005623786710202694 8.910240332227204e-06 0.0003772425989154726 8.910240332227204e-06 -0.001450617448426783 -0.00035339719033800066 0.0003772425989154726 -0.00035339719033800066 -0.0021604876965284348" pbc="T T T"
Ba      10.39332889      12.70288168       0.38692284      -0.01415360      -0.01169482       0.01350136
S        6.34106349      11.56832550       5.62383301       0.02621916       0.00274408       0.00415784
O        5.07387784      11.05656439       5.12789022       0.04064369      -0.00885230      -0.01908368
O        7.31940585      11.83663728       4.55748118       0.04150057       0.01512453       0.02228415
O        6.91585822      10.79141072       6.72393593       0.01334530       0.00584304       0.01282656
C        5.99557960      13.18438982       6.31072615      -0.00083905      -0.00220597      -0.00049144
H        5.27106332      13.08405998       7.11599897      -0.01428664      -0.01041568      -0.01443460
H        6.92544933      13.60276126       6.69416083      -0.01182254       0.00564572       0.01632053
H        5.58355492      13.81509338       5.52580619       0.00835655      -0.00431791      -0.00661395
S        9.04180539      12.94478246      10.43981777       0.00953490      -0.00140536       0.01989311
O        8.81613572      13.79675989       9.31073806       0.02249972       0.02292010       0.00705981
O        8.53045407      13.49277544      11.73957175       0.00129231      -0.00043018       0.00116864
O       10.46717880      12.57955111      10.69526457      -0.00666168      -0.01219177       0.01029207
C        8.18569758      11.42078804      10.22159404      -0.01276416       0.02290779      -0.01422527
H        8.49011675      10.99602570       9.26981559      -0.02562264       0.03379701      -0.02328601
H        8.44610995      10.75445720      11.04296731      -0.01949263       0.00328192      -0.02475618
H        7.11720799      11.61817939      10.23199573      -0.01070151       0.03590971      -0.00654559
C       11.04169593       7.61282181       3.98072348       0.00208716      -0.00704747      -0.00257239
C        9.93485388       6.77238016       3.94346508       0.00238221      -0.00688531      -0.00850499
C       10.86975033       8.96968855       4.24222170       0.00183706      -0.00962000       0.00919567
C        8.66045493       7.28945110       4.15421243       0.00265118      -0.00921629      -0.00246558
C        9.59362411       9.48010432       4.44094106       0.00215193      -0.01170662       0.01507411
C        8.48592929       8.64486129       4.39019203       0.00255300      -0.01158305       0.00975852
H       12.03591373       7.21044969       3.82453075       0.00188580      -0.00525440      -0.00730804
H       10.06734073       5.70886847       3.78006638       0.00241501      -0.00510398      -0.01814362
H       11.72839396       9.62877927       4.30724170       0.00148474      -0.00995473       0.01367044
H        7.80129143       6.63259333       4.14788711       0.00287585      -0.00906606      -0.00715521
H        9.43808001      10.52906898       4.64183450       0.00204059      -0.01341620       0.02275732
H        7.50036102       9.06324975       4.54631456       0.00212666      -0.01390246       0.01308936
C       10.75527621       2.39735846       4.14023378       0.01249032       0.00192428      -0.01453820
C       11.04128600       2.86177133       2.85831540       0.00840236       0.00723288      -0.01327600
C        9.61585440       1.63462867       4.36678566       0.01264334       0.00257659      -0.01359321
C       10.15375705       2.60557756       1.81143625       0.00471850       0.01330504      -0.01117804
C        8.74325861       1.34736624       3.32113187       0.00776114       0.01038862      -0.01138487
C        8.99482772       1.85826917       2.04960639       0.00366937       0.01593116      -0.00964977
H       11.40917992       2.64621851       4.96657660       0.01641753      -0.00350951      -0.01629112
H       11.92954780       3.45800445       2.68777882       0.00818237       0.00715195      -0.01384361
H        9.38889518       1.27242034       5.36153818       0.01614144      -0.00354109      -0.01531987
H       10.33100399       3.03881588       0.83070989       0.00158577       0.01748128      -0.00952329
H        7.86989553       0.74143780       3.52973828       0.00691637       0.01245648      -0.01059298
H        8.26580467       1.71509637       1.25574255       0.00038198       0.02234614      -0.00729068
C        8.65588517      10.90441373       1.83706361      -0.01768219      -0.01438961       0.01515466
C        9.36585260       9.86303204       1.23131717      -0.01325122      -0.00732443       0.00898285
C        7.31524920      11.12205232       1.53221405      -0.01595549      -0.01398869       0.00948465
C        8.70597101       9.00139520       0.35807924      -0.00624184       0.00233150      -0.00526677
C        6.66818928      10.26520221       0.64969637      -0.00947349      -0.00465608      -0.00383283
C        7.35523853       9.19848187       0.08353292      -0.00448090       0.00347929      -0.01219174
H        9.11038777      11.50618865       2.62213978      -0.02362020      -0.02072363       0.02291682
H       10.39450689       9.65654617       1.51962512      -0.01544385      -0.00959554       0.01471064
H        6.77636609      11.91180703       2.03619809      -0.02040812      -0.02081822       0.01495821
H        9.22586076       8.15797936      -0.07737125      -0.00215878       0.00783911      -0.01050725
H        5.62236985      10.41426754       0.41461661      -0.00843564      -0.00323481      -0.00671227
H        6.83513455       8.51578598      -0.57551107       0.00055959       0.00976357      -0.02232875
C        2.87970365       3.01355725       6.07356464      -0.00395636      -0.00268581       0.00329712
C        4.17298221       3.50757472       6.21235374      -0.00548049       0.00022592       0.00484641
C        2.00769009       3.60295542       5.16620701      -0.00328210      -0.00644683       0.00048244
C        4.59024287       4.58285849       5.43926601      -0.00643809      -0.00019714       0.00398425
C        2.42572035       4.68538429       4.39890501      -0.00416823      -0.00724657      -0.00068582
C        3.71826563       5.17214301       4.53311350      -0.00577984      -0.00392777       0.00123394
H        2.55596399       2.16821696       6.66822969      -0.00344039      -0.00196349       0.00434460
H        4.85583946       3.04812347       6.91640656      -0.00594755       0.00302503       0.00693864
H        0.99820020       3.22387283       5.06363474      -0.00197313      -0.00901504      -0.00092328
H        5.60027663       4.96061949       5.53370887      -0.00779103       0.00256114       0.00565310
H        1.74256879       5.16182917       3.70644449      -0.00376351      -0.01048734      -0.00315493
H        4.04563659       6.01603731       3.94101293      -0.00678246      -0.00416562       0.00059634
C       10.59099575       5.95980659       7.53495009       0.01067644      -0.00965515      -0.00384464
C       10.97609861       4.63939053       7.74136176       0.00884815      -0.01006524      -0.00407979
C        9.26443957       6.26521463       7.26341128       0.01114021      -0.00784852      -0.00306500
C       10.03145657       3.62101897       7.68506613       0.00734960      -0.00845127      -0.00354056
C        8.32146046       5.24678920       7.19807674       0.00960147      -0.00631405      -0.00232743
C        8.70218770       3.92781877       7.41230088       0.00797251      -0.00664984      -0.00244683
H       11.32314422       6.75475335       7.58721665       0.01180639      -0.01085205      -0.00388842
H       12.01231996       4.40798146       7.95862077       0.00837515      -0.01167480      -0.00451699
H        8.96638356       7.29265662       7.09753063       0.01249816      -0.00753337      -0.00265579
H       10.31295228       2.59454301       7.88327265       0.00615241      -0.00860156      -0.00339064
H        7.28377148       5.48892509       7.00354758       0.01003014      -0.00500975      -0.00158438
H        7.96295261       3.13630083       7.39514150       0.00677417      -0.00543466      -0.00185275
C        3.58129357       9.18277990      10.14291493      -0.00013822       0.00447620       0.01392365
C        4.70973413       9.66603650       9.49295770      -0.00338967       0.00309005       0.00778398
C        2.52292030      10.04014949      10.42069826      -0.00179768       0.00306143       0.01095665
C        4.78655883      11.00494820       9.12809091      -0.00850172       0.00038251      -0.00206692
C        2.60439245      11.38340103      10.07306916      -0.00660995       0.00069138       0.00162670
C        3.73964513      11.86624785       9.43226156      -0.01013858      -0.00088122      -0.00525309
H        3.50665676       8.13526353      10.40882472       0.00379344       0.00628519       0.02103367
H        5.52157336       8.99914632       9.22598421      -0.00197633       0.00381874       0.01099076
H        1.63237240       9.65493707      10.89885284       0.00083502       0.00401115       0.01605035
H        5.64659984      11.34201519       8.56601657      -0.01085751      -0.00124606      -0.00620559
H        1.77544489      12.04840646      10.28469952      -0.00785888      -0.00051797      -0.00074686
H        3.80072704      12.91197634       9.15480612      -0.01418415      -0.00273751      -0.01272172
C        3.03055084       7.64281852       1.47498813      -0.00160159       0.00266039       0.00402856
C        2.02468844       6.77602692       1.06002296      -0.00070979       0.00384615      -0.00055364
C        2.82701854       9.01693747       1.43034377      -0.00384304       0.00242220       0.01155165
C        0.81514299       7.28257810       0.59618251      -0.00222060       0.00269525       0.00211238
C        1.62150589       9.52505135       0.95845437      -0.00546077       0.00274132       0.01480496
C        0.61668010       8.65827442       0.54137852      -0.00447004       0.00275599       0.01001054
H        3.97476737       7.24533370       1.82561787      -0.00084476       0.00267525       0.00180330
H        2.18894726       5.70576923       1.09779589       0.00002972       0.00440857      -0.00495230
H        3.60612219       9.69003860       1.76478120      -0.00460675       0.00213158       0.01431746
H        0.03184053       6.60813024       0.27238495      -0.00184402       0.00350529      -0.00200125
H        1.48386082      10.59777859       0.89600743      -0.00601670       0.00350542       0.02160918
H       -0.31841480       9.04826890       0.15255479      -0.00510378       0.00409757       0.01212044
C        1.62990434       8.23612848       5.45316055       0.00462671       0.00441653      -0.00590681
C        2.93216867       8.71709569       5.51618681       0.00226381       0.00954910       0.00071649
C        1.20370321       7.24714561       6.33195356       0.00479297       0.00166850      -0.00924746
C        3.81603142       8.19873584       6.45575300      -0.00012690       0.01204658       0.00410220
C        2.08564855       6.73116274       7.27381426       0.00226887       0.00430486      -0.00579080
C        3.39187735       7.20240841       7.32736106      -0.00020747       0.00963311       0.00099161
H        0.94225633       8.64092410       4.72129445       0.00668433       0.00195065      -0.00892271
H        3.27022170       9.50651194       4.85896838       0.00234431       0.01071948       0.00231212
H        0.18792272       6.87661517       6.27454995       0.00693752      -0.00278932      -0.01472564
H        4.82356669       8.59346180       6.50382630      -0.00188817       0.01537094       0.00859718
H        1.76047268       5.95348402       7.95456984       0.00253231       0.00174921      -0.00882358
H        4.08263816       6.78564136       8.05053823      -0.00210840       0.01168535       0.00373683
C        9.04972920       6.12090743      10.85254386      -0.00280182      -0.00193556      -0.01028930
C        7.91719092       6.78400781      10.39357037      -0.00216846       0.00037268      -0.00790044
C        9.00884810       4.74952526      11.07352235      -0.00510326      -0.00176589      -0.01103087
C        6.74665928       6.07218156      10.15573656      -0.00402814       0.00305787      -0.00567307
C        7.84128308       4.03549513      10.83370379      -0.00708699       0.00099865      -0.00869270
C        6.71166916       4.69951913      10.37230097      -0.00658429       0.00325506      -0.00572479
H        9.97248473       6.66637321      11.01203290      -0.00154436      -0.00384412      -0.01191321
H        7.95415072       7.84974838      10.20032587      -0.00013025       0.00006881      -0.00825385
H        9.90037281       4.23347865      11.41029401      -0.00565930      -0.00428895      -0.01403622
H        5.86527981       6.58595684       9.79074627      -0.00359374       0.00479387      -0.00375980
H        7.81835705       2.96548610      10.99089402      -0.00825779       0.00111523      -0.00895949
H        5.80330298       4.14276352      10.17773731      -0.00832985       0.00556736      -0.00341821
C        7.32273366       5.34152636       1.79050442      -0.01233797      -0.00063662      -0.00397781
C        7.15912281       4.34112826       2.74201527      -0.01003568      -0.00025416      -0.00340563
C        6.37331129       5.50948465       0.79261352      -0.01264185      -0.00330690      -0.00391118
C        6.05686916       3.49744517       2.68047118      -0.00803357      -0.00255781      -0.00265208
C        5.26663051       4.67104353       0.73448816      -0.01048878      -0.00587517      -0.00336406
C        5.11045465       3.66067592       1.67562864      -0.00815350      -0.00553270      -0.00276361
H        8.18617809       5.99288871       1.82775539      -0.01380669       0.00112468      -0.00462608
H        7.89330223       4.21276429       3.52940836      -0.00961041       0.00167186      -0.00373585
H        6.50791148       6.27939344       0.04609137      -0.01458858      -0.00306341      -0.00388891
H        5.92784067       2.72116470       3.42375095      -0.00633395      -0.00213994      -0.00209106
H        4.53496165       4.80386308      -0.05272947      -0.01076263      -0.00826370      -0.00330799
H        4.24795076       3.00730454       1.63664821      -0.00649415      -0.00746267      -0.00238003
C       11.18404749       9.72598658       8.00885433       0.01284978      -0.00302745       0.00328203
C       12.44612437      10.27262123       7.80013967       0.01279505      -0.00170223       0.00765496
C       10.05708986      10.36309452       7.50724750       0.01327991      -0.00024913       0.00653748
C       12.57424334      11.46301888       7.09391988       0.01313831       0.00259714       0.01549153
C       10.18128774      11.57141959       6.83212417       0.01368421       0.00316028       0.01303025
C       11.44093814      12.11723247       6.62061750       0.01361782       0.00485763       0.01803623
H       11.08077972       8.79182767       8.54845366       0.01262486      -0.00629553      -0.00294589
H       13.33099515       9.76519582       8.16200209       0.01231721      -0.00359194       0.00549340
H        9.07203986       9.92161948       7.59339222       0.01367338      -0.00109265       0.00382704
H       13.55931637      11.87221852       6.90696430       0.01310082       0.00416569       0.01990215
H        9.28627535      12.04217396       6.44487192       0.01457915       0.00532123       0.01375263
H       11.54523946      13.04231306       6.06599519       0.01363322       0.00865892       0.02466227
