141
Lattice="12.399719022508007 0.0 0.0 0.0 12.399719022508007 0.0 0.0 0.0 12.399719022508007" Properties=species:S:1:pos:R:3:forces:R:3 energy=-301509.34375 stress="-0.0011394217144697905 1.6990804397210013e-05 -7.171704055508599e-05 1.6990804397210013e-05 -0.0009525042260065675 -2.4356259018532e-05 -7.171704055508599e-05 -2.4356259018532e-05 -9.534157288726419e-05" pbc="T T T"
Ba      12.42698314      11.82884864      -0.34530119       0.02276029      -0.04181322       0.00406296
S       11.45479629      10.81009620       2.06781783      -0.01332624      -0.01820889       0.02842280
O       12.26370324      12.06141645       2.26447750       0.00986409      -0.01266158      -0.00146067
O       10.92390655      10.22277824       3.26079831      -0.01731840       0.02180499      -0.00412083
O       10.39700245      11.20593301       1.05602969       0.00993341      -0.00755009      -0.00901538
O       12.37324062       9.89457619       1.27668815      -0.00657839      -0.03081530       0.02912086
O        4.36588540       3.38768938       5.19350716      -0.00130541      -0.00338614      -0.00352246
C        3.20202542       2.58805519       5.16553097      -0.00258422      -0.00156522       0.00535133
C        5.54215353       2.60968918       5.32839403      -0.00251031      -0.00354704       0.00461260
C        1.99365880       3.47709479       5.00681238      -0.00085154      -0.00162339      -0.00568636
C        6.72910459       3.53333386       5.40974398      -0.00160649      -0.00442174      -0.00059427
H        3.26292952       1.86495316       4.33766691      -0.00341091      -0.01138639       0.01422048
H        3.13917264       2.00770206       6.09963422      -0.00406878       0.00972131       0.01206005
H        5.47033447       1.98739124       6.23408967      -0.00481535       0.00405261       0.00934917
H        5.63131547       1.92735747       4.46945844      -0.00184704      -0.01051837       0.01040587
H        1.08238115       2.87867987       4.98812292      -0.00184338       0.00000976       0.00182828
H        1.92635239       4.18641031       5.83180396       0.00058943       0.00847934      -0.01450053
H        2.05517470       4.04088165       4.07641089       0.00009948      -0.01349726      -0.01250543
H        7.65496238       2.96342697       5.49180425      -0.00228640      -0.00477970       0.00415161
H        6.79794650       4.14827470       4.51251474      -0.00030633      -0.01074409      -0.00470567
H        6.63332244       4.18797678       6.27592081      -0.00157387       0.00126490      -0.00499125
O        9.13562020      10.78218178       9.56032610       0.00087403       0.00290445      -0.00697701
C       10.51832735      10.54195050       9.56967606       0.00029570       0.00232728      -0.01048926
C        8.69730932      11.46779411      10.72935961       0.00306451       0.00107385      -0.00489175
C       10.94126284       9.79670301       8.32627488      -0.00312342       0.00970778      -0.01596972
C        7.21850832      11.73807804      10.62766791       0.00215316      -0.00291541      -0.00037785
H       11.05039027      11.52165545       9.60360749       0.00149000       0.00155832      -0.00291396
H       10.78662619       9.96853802      10.48175435       0.00063919      -0.00501187      -0.01520693
H        8.93581022      10.88155064      11.62367987       0.00660512       0.00058091      -0.00635254
H        9.24706216      12.42359027      10.81252040       0.00153789       0.00165820      -0.00558091
H       12.00662015       9.56270256       8.35927593      -0.00167969       0.01612869      -0.02516209
H       10.40211206       8.85637908       8.23812807       0.00174706       0.00697559      -0.01630005
H       10.74809209      10.38757514       7.43223965      -0.01271896       0.01192510      -0.01219173
H        6.88886841      12.29398818      11.50630708       0.00303825      -0.00586385       0.00176756
H        6.99230120      12.32487891       9.73661662      -0.00204426      -0.00145656       0.00168267
H        6.66001746      10.80196546      10.58369814       0.00438899      -0.00427404      -0.00137528
O        5.37106743       4.68766635       8.79860175       0.00087138      -0.01219036      -0.00115159
C        6.33429649       4.33786957       9.77569830       0.00096297      -0.01174128      -0.00124140
C        4.28140307       5.40195166       9.35709894       0.00293398      -0.00843950      -0.00229961
C        7.45404041       3.57764712       9.10954847       0.00045526      -0.01226944      -0.00112742
C        3.24699618       5.62259706       8.28226362       0.00234255      -0.00968380      -0.00196242
H        6.72028368       5.24744749      10.25697737       0.00130405      -0.01159772      -0.00182664
H        5.86009713       3.73203843      10.56252411       0.00098565      -0.01112926      -0.00078255
H        3.85507033       4.83188207      10.19571597       0.00267260      -0.00474107      -0.00013089
H        4.63620569       6.35904083       9.77042634       0.00535353      -0.00790352      -0.00596149
H        8.19300476       3.27531121       9.85340985      -0.00037050      -0.01406276      -0.00114693
H        7.06768748       2.68497967       8.61611784      -0.00015904      -0.01118988      -0.00232033
H        7.95295795       4.19680077       8.36298179       0.00128041      -0.01216526      -0.00041984
H        2.41869571       6.21907873       8.66659955       0.00472151      -0.00585674      -0.00301684
H        3.68364836       6.14361415       7.43125789       0.00291334      -0.01436660      -0.00443579
H        2.86074520       4.66680317       7.92985297      -0.00122654      -0.00968432       0.00221114
O        3.77916183      10.19689099       8.55644970       0.00575007       0.00818178       0.00233081
C        4.98818133      10.13070538       7.80324215       0.00079601       0.00488430      -0.00487277
C        3.44280371      11.51742533       8.90139508       0.00684452       0.00924530      -0.00160950
C        5.20844699       8.70434202       7.37895457      -0.00393758       0.00329426      -0.00149200
C        2.06139050      11.49265656       9.52371291       0.01225919       0.00696883       0.00888709
H        4.90376284      10.79180956       6.92843848      -0.00494902       0.00208348      -0.00611544
H        5.82443801      10.49515645       8.41211372       0.00455534       0.00641300      -0.01127031
H        4.17951379      11.93738524       9.60331087       0.00983238       0.01221541      -0.00692737
H        3.43580803      12.15854582       8.00872406       0.00007873       0.00595102      -0.00360018
H        6.12727306       8.62321386       6.79947075      -0.00840847       0.00011682      -0.00798327
H        5.29345823       8.05069598       8.24698900       0.00133886       0.00596342      -0.00014718
H        4.37794979       8.35548778       6.76474886      -0.00910673       0.00285365       0.00592658
H        1.76162908      12.51410669       9.78734359       0.01417086       0.00503786       0.01827963
H        1.33972812      11.08830361       8.81133223       0.00563212       0.00861119       0.01474643
H        2.08281429      10.84106278      10.40612862       0.02532624       0.00194050       0.00443491
O        1.06138356       9.45511234       5.12429127      -0.00903809       0.00288932       0.00818696
C        2.00062522      10.45507541       5.44137917      -0.01042829       0.00411952       0.00773978
C        1.66904815       8.27864536       4.62570358      -0.00760847       0.00365281       0.00807744
C        1.25011453      11.74259819       5.68228919      -0.01123980       0.00407487       0.00437699
C        0.59480085       7.36146525       4.09998228      -0.00721759      -0.00048342       0.01535030
H        2.58743589      10.15881891       6.32483997      -0.01127732       0.00591582       0.00886834
H        2.70862663      10.58282357       4.60574025      -0.00950009       0.00314690       0.00850177
H        2.36632672       8.53596624       3.81929545      -0.01192448       0.00432406       0.00459135
H        2.25276040       7.78967629       5.42426826      -0.00276965       0.00712058       0.00654590
H        1.93434856      12.53391502       5.99041561      -0.01187810       0.00545403       0.00226037
H        0.73532464      12.04835153       4.77225932      -0.01102850       0.00121821       0.00338235
H        0.49975150      11.60107430       6.46213839      -0.01154187       0.00604850       0.00445352
H        1.04528110       6.48293382       3.63546026      -0.00733968       0.00021842       0.01410890
H       -0.06449263       7.03309747       4.90306725      -0.00137833      -0.00137741       0.01975757
H        0.00216095       7.89001450       3.35422969      -0.01281853      -0.00339679       0.01786935
O        9.05186321       6.59151914       7.34088987       0.00446984       0.00191018      -0.00199580
C        8.38432380       7.10296332       8.48229693       0.00296056      -0.00298746      -0.00092280
C        8.37697078       6.92673211       6.13824742       0.00364061       0.00165963      -0.00146830
C        9.17664747       6.74386278       9.71594392       0.00499654      -0.00318387      -0.00242195
C        9.09680478       6.30323560       4.96943120       0.00483027       0.00354710      -0.00182453
H        8.27607397       8.19507131       8.39631276      -0.00077725      -0.00322348       0.00185723
H        7.36866987       6.68208233       8.53355618       0.00463647      -0.00689280      -0.00166008
H        7.33778574       6.56884829       6.19429127       0.00428587       0.00015281      -0.00147800
H        8.34362590       8.02212947       6.02760956       0.00199698       0.00151515      -0.00083207
H        8.70632025       7.15246532      10.60984642       0.00244635      -0.01067274      -0.00045359
H        9.24532879       5.66328512       9.83729574       0.01215552      -0.00329623      -0.00776437
H       10.19256452       7.13588774       9.65319308       0.00223789       0.00395862      -0.00060118
H        8.56661293       6.52272528       4.04054388       0.00509092       0.00392368      -0.00182025
H       10.10470303       6.70460500       4.88099580       0.00415719       0.00491679      -0.00056237
H        9.15762517       5.22066818       5.08180270       0.00619798       0.00352822      -0.00303543
O        4.21137135       7.95338383       2.42470178      -0.00403875       0.01208594      -0.00161205
C        4.39652111       9.24703440       1.89216719      -0.00287768       0.01246713      -0.00150532
C        4.97101556       7.73911996       3.60392571      -0.00118492       0.00954980      -0.00390026
C        3.55873724       9.37231762       0.63917843      -0.00673974       0.01279026       0.00282452
C        4.68541802       6.35195124       4.11728903      -0.00104471       0.00923860      -0.00592943
H        4.09635110      10.00453117       2.63122458       0.00165722       0.01285115       0.00211433
H        5.46157761       9.41374680       1.67068760      -0.00418293       0.01168515      -0.00816250
H        6.04252388       7.86308812       3.38307434      -0.00277847       0.01040618      -0.00834513
H        4.70324863       8.49867063       4.35355531      -0.00015146       0.00956094      -0.00427401
H        3.73778745      10.34792813       0.18059140      -0.01080156       0.01519489       0.00614249
H        3.83116123       8.60489211      -0.08669491      -0.01223046       0.01479751      -0.00159696
H        2.50031407       9.26731370       0.88583421      -0.00561804       0.01419954       0.00732039
H        5.22804545       6.15882151       5.04245417       0.00230068       0.00963116      -0.00860734
H        3.62313184       6.22013806       4.31900622      -0.00028554       0.01017004      -0.00263350
H        4.98055403       5.59353606       3.39273829      -0.00343882       0.01038134      -0.00777802
O        8.97284953       6.79981535       0.79922938       0.00328396       0.00245404      -0.00122780
C       10.19987543       7.50695411       0.90957393       0.00250435       0.00340298       0.00123465
C        7.84808629       7.65120086       0.79923872       0.00404215       0.00345054      -0.00256254
C       11.32407390       6.50224808       0.88851342       0.00457618       0.00585827      -0.00102338
C        6.62105245       6.78926151       0.63872572       0.00326356       0.00535113      -0.00606198
H       10.29107583       8.21343638       0.07083190       0.00150769       0.00574020       0.00301534
H       10.21205713       8.10310947       1.82949618       0.00115247       0.00114968       0.00232655
H        7.81484386       8.23632692       1.73134230       0.00268922       0.00237411      -0.00211465
H        7.92763665       8.37933539      -0.02517030       0.00679169       0.00414765      -0.00162363
H       12.28221231       7.01851606       0.92890273       0.00298278       0.00825982       0.00307365
H       11.25597982       5.83361972       1.74734996       0.00466775       0.00238563      -0.00384058
H       11.28026121       5.89797746      -0.01935860       0.00764967       0.00956134      -0.00332418
H        5.71771007       7.38588501       0.54897129       0.00393887       0.00693130      -0.00342528
H        6.72152307       6.16787864      -0.25078719       0.00235070       0.00898321      -0.00858426
H        6.49879297       6.12831647       1.49611392       0.00288874       0.00199133      -0.00871278
O        9.18930054       2.25995774       3.21344402      -0.00220734      -0.00845218       0.00260696
C        8.28384873       2.39930248       2.14002845       0.00052436      -0.01093864       0.00034663
C        9.17736600       0.94279547       3.74798124      -0.00427717      -0.00483873       0.00903618
C        8.41205161       3.79198332       1.58137952       0.00255829      -0.01213884      -0.00320090
C       10.19309097       0.86412986       4.85862115       0.00047207      -0.00410479       0.00368953
H        8.50263034       1.64225847       1.37002199       0.00246745      -0.01260000       0.00309423
H        7.25607949       2.21120616       2.49174178      -0.00038630      -0.00895260      -0.00215328
H        8.16714870       0.70676065       4.12031352      -0.00232100       0.00224780       0.01609592
H        9.41137967       0.22286696       2.95660037      -0.00998771      -0.00825262       0.01048785
H        7.70432783       3.95401593       0.76799636       0.00242412      -0.01380681      -0.00355224
H        8.21798515       4.53764631       2.35167931       0.00334061      -0.00977498      -0.00533730
H        9.41662009       3.97362819       1.20228193       0.00255927      -0.01421436      -0.00425335
H       10.22787998      -0.15097709       5.25330672       0.00467833      -0.00301856       0.00503413
H       11.18165356       1.10765912       4.47137194      -0.00310272      -0.00271322      -0.00315501
H        9.94640103       1.55906436       5.66346376       0.00554238      -0.00414614       0.00384758
