147
Lattice="12.952669916669386 0.0 0.0 0.0 12.952669916669386 0.0 0.0 0.0 12.952669916669386" Properties=species:S:1:pos:R:3:forces:R:3 energy=-279499.75 stress="-0.0001266263279831037 0.0001796962897060439 0.0001320751107414253 0.0001796962897060439 -0.00030978998984210193 -0.00016054495790740475 0.0001320751107414253 -0.00016054495790740475 0.000417805218603462" pbc="T T T"
Ba      13.47982164      13.13104115       0.69712808       0.01279216       0.00080905      -0.01307951
O        2.45522255      11.84811273       0.07247174      -0.00320542      -0.00957194      -0.02714968
N        4.30043688      11.23784517       1.52141235      -0.03237712       0.00989264      -0.00694513
C        3.41648791      11.52837327       0.81116012       0.03079689      -0.01620218       0.02123970
O       -1.27207949      12.68546459       3.07429975      -0.02532691      -0.00798312      -0.01095288
N        0.99038112      13.42819847       3.30628061      -0.03434932       0.02914034      -0.01872033
C       -0.14720992      13.06015098       3.32455627      -0.04364558       0.00769481      -0.01906829
C        1.38333993       5.11117415       7.52547264       0.00322080      -0.00317574      -0.00059237
C        1.73782639       4.37105027       6.24269861       0.00127810      -0.00329190      -0.00108481
C        1.98836911       4.49500525       8.78171910       0.00353992      -0.00403202      -0.00119346
C        1.09339646       4.98472696       5.00472556       0.00022113      -0.00252900      -0.00014287
C        1.64545912       5.26977243      10.04819312       0.00549693      -0.00366944      -0.00091779
C        1.44907688       4.24084608       3.72460747      -0.00127848      -0.00196216      -0.00086164
H        1.70955280       6.15556502       7.44196039       0.00429448      -0.00354064      -0.00066899
H        0.29164098       5.14437989       7.63003467       0.00333753      -0.00202449       0.00030151
H        1.42908405       3.32246862       6.32637279       0.00062688      -0.00309208      -0.00089218
H        2.82690313       4.35678241       6.11640583       0.00110230      -0.00397972      -0.00237873
H        1.64085141       3.45984887       8.87404070       0.00225855      -0.00363928      -0.00100303
H        3.07575965       4.43796177       8.66898989       0.00336504      -0.00549378      -0.00205700
H        0.00571997       4.99276184       5.13541029       0.00036272      -0.00253321       0.00093365
H        1.39677391       6.03452285       4.92322511       0.00025955      -0.00252929       0.00030001
H        2.02365495       6.29335867       9.99733752       0.00744663      -0.00442258      -0.00079457
H        2.07118310       4.80464844      10.93980738       0.00497819      -0.00460945      -0.00111067
H        0.56343916       5.33649138      10.18728224       0.00567856      -0.00160067      -0.00049645
H        2.52406288       4.27868160       3.53475103      -0.00130114      -0.00313337      -0.00126512
H        1.16801001       3.18809885       3.79653359      -0.00309198      -0.00149998      -0.00205395
H        0.94239562       4.67384121       2.86087272      -0.00100313      -0.00042190      -0.00025931
C        9.64615556      11.99016631       9.96449494       0.00102319       0.00414062       0.00693735
C        8.42135661      11.36447584       9.31038215       0.00338643       0.00394976       0.00258599
C       10.84593530      11.05348107      10.03294136       0.00152545       0.00479615       0.00944281
C        7.23770980      12.32239263       9.23860676       0.00241117       0.00279951       0.00153261
C       11.98694021      11.60781707      10.88298913      -0.00200054       0.00446050       0.01463081
C        5.98611662      11.67668946       8.66309882       0.00436485       0.00218627      -0.00212455
H        9.92512009      12.89900187       9.41715437       0.00193643       0.00488827       0.00867124
H        9.37589826      12.31088251      10.97814082      -0.00217396       0.00292616       0.00638685
H        8.13043701      10.47166126       9.87686807       0.00296729       0.00261244       0.00013664
H        8.67618318      11.01829816       8.30171058       0.00631398       0.00627382       0.00256440
H       10.53040177      10.09073780      10.44609215       0.00093453       0.00395459       0.00691521
H       11.20920144      10.84728648       9.02169734       0.00534008       0.00683941       0.01054212
H        7.02512537      12.69969027      10.24443224      -0.00012973       0.00099140       0.00160533
H        7.51627494      13.19323845       8.63538741       0.00263748       0.00404701       0.00344187
H       12.31898716      12.57933686      10.50243638      -0.00182135       0.00536738       0.01697243
H       12.85336158      10.94212088      10.90357663      -0.00137652       0.00504413       0.01620075
H       11.61702229      11.73897562      11.91007521      -0.00598934       0.00226903       0.01344720
H        6.16542159      11.29399925       7.65584319       0.00676520       0.00402021      -0.00233015
H        5.66474574      10.83648317       9.28241156       0.00407401       0.00083700      -0.00404403
H        5.15646154      12.38274041       8.60545342       0.00364438       0.00137258      -0.00255180
C       11.13244369       7.93059283       7.59047611      -0.00082606      -0.00047302       0.00147686
C       11.99411355       8.62484839       6.54541783       0.00095928      -0.00126313       0.00233284
C       11.86456407       7.72486460       8.91051566      -0.00202936      -0.00120761       0.00209275
C       11.28605152       8.89295557       5.22384365       0.00350213      -0.00226152       0.00070427
C       11.02054844       7.02254412       9.96355053      -0.00297537      -0.00177251       0.00099739
C       12.18442604       9.61648417       4.23132552       0.00692514      -0.00759709      -0.00026649
H       10.22305006       8.51879695       7.76510396      -0.00058097       0.00013845       0.00075192
H       10.79564512       6.96092645       7.20464827      -0.00115225      -0.00023878       0.00120232
H       12.89322069       8.02439271       6.35975705       0.00107437      -0.00179982       0.00450756
H       12.35166789       9.57794056       6.95276114       0.00049672      -0.00107345       0.00231354
H       12.77672340       7.15227543       8.72676855      -0.00191104      -0.00115383       0.00254569
H       12.19610360       8.69562825       9.29115579      -0.00237052      -0.00137824       0.00297822
H       10.93705150       7.94628746       4.79675474       0.00109564      -0.00233760       0.00284955
H       10.38775500       9.49083462       5.41166932       0.00506061       0.00093381      -0.00190674
H       10.09783019       7.57302179      10.16312015      -0.00292943      -0.00169426       0.00086541
H       11.55661931       6.92194602      10.90913821      -0.00362189      -0.00267779       0.00125444
H       10.73461307       6.02130419       9.63054191      -0.00303168      -0.00144620       0.00000054
H       12.54809443      10.55501190       4.65209627       0.00931413      -0.00746177      -0.00234766
H       13.05710091       9.00982873       3.97791397       0.00531662      -0.01109999       0.00248899
H       11.66222949       9.86455796       3.30795547       0.00906239      -0.00827023      -0.00162801
C        2.53612200      10.46087045       6.52906361      -0.00081421       0.00294895      -0.00191462
C        3.44751780       9.33737414       7.00550159      -0.00165828       0.00171733      -0.00337565
C        1.81472736      11.17421876       7.66692421       0.00037415       0.00295892      -0.00116479
C        4.23780702       8.67791492       5.88118837      -0.00396724       0.00117220      -0.00464326
C        0.90148436      12.29183119       7.18082026      -0.00005153       0.00300828      -0.00042975
C        5.24117705       7.64908218       6.38604031      -0.00605994      -0.00176579      -0.00650048
H        3.12461362      11.19161666       5.96357288      -0.00030997       0.00268978      -0.00177367
H        1.79935108      10.06283860       5.82328294      -0.00158530       0.00408864      -0.00171833
H        2.85112870       8.57857568       7.52814502      -0.00216062       0.00229469      -0.00299522
H        4.14690378       9.73334517       7.74948935      -0.00023729       0.00052430      -0.00400777
H        1.23555723      10.44181666       8.24169222       0.00073543       0.00304452      -0.00075826
H        2.55890126      11.58049367       8.36040065       0.00103906       0.00284401      -0.00180149
H        3.54256774       8.20452844       5.18003146      -0.00562680       0.00339325      -0.00456457
H        4.75848521       9.44979487       5.30596762      -0.00278604       0.00054154      -0.00426136
H        1.45323534      13.01561016       6.57861365      -0.00062370       0.00334731      -0.00058006
H        0.43778426      12.82724130       8.01235852       0.00050902       0.00293288      -0.00003877
H        0.09935846      11.90043038       6.55131882      -0.00049371       0.00303362       0.00015162
H        5.95948131       8.10956926       7.06860922      -0.00473672      -0.00440672      -0.00615063
H        4.74286988       6.84425950       6.93205998      -0.00756918      -0.00154287      -0.00760210
H        5.80374693       7.19902114       5.56651182      -0.00735109      -0.00178857      -0.00746408
C        8.43242892       2.80989324      12.01692616       0.00148830      -0.00228280       0.00187489
C        9.87928505       3.28378077      12.07806282       0.00110210      -0.00127190       0.00538507
C        7.43519022       3.96257813      12.07687716       0.00098098      -0.00289321       0.00448659
C       10.89483553       2.16390288      11.87860984       0.00225684       0.00066453       0.00060203
C        5.98551165       3.49737606      12.08295903       0.00097570      -0.00293545      -0.00020246
C       12.33942855       2.65475184      11.93790078       0.00162160       0.00242957      -0.00048975
H        8.27172976       2.23982049      11.09388101       0.00316801       0.00104542      -0.00045174
H        8.23834881       2.11473990      12.84220887       0.00091921      -0.00538491      -0.00092849
H       10.06035187       3.78154328      13.03618241      -0.00003392      -0.00575310       0.00785580
H       10.04689977       4.04254736      11.30455773       0.00076580       0.00257036       0.00908178
H        7.63326522       4.56497247      12.96965129      -0.00086948      -0.00632858       0.00722173
H        7.60743385       4.62482421      11.22156430       0.00254797       0.00043829       0.00739881
H       10.70963746       1.38185589      12.63243544       0.00472223      -0.00166342      -0.00135228
H       10.71515511       1.68833883      10.91117476       0.00127233       0.00339043      -0.00055784
H        5.75823285       2.90943160      11.19095584       0.00284215       0.00022778      -0.00280765
H        5.29560443       4.34230372      12.11030378       0.00098865      -0.00297846       0.00126179
H        5.77930288       2.86873261      12.95129969      -0.00097488      -0.00595498      -0.00286019
H       12.48550983       3.51675067      11.28531133      -0.00030572       0.00404346       0.00115041
H       12.61924275       2.99561989      12.94457551       0.00306338      -0.00037487       0.00006671
H       13.05494287       1.90472799      11.57175557       0.00169928       0.00403273      -0.00382552
C        9.95881021       7.53402048       0.96324308       0.00244474       0.00009960      -0.00170232
C        9.49327742       8.97819038       1.09468910       0.00413015       0.00095356      -0.00452787
C       11.46539224       7.38895810       1.14800279       0.00253010      -0.00122842      -0.00338350
C        8.00164260       9.19586480       0.87658634       0.00388676       0.00188360      -0.00224342
C       11.97082540       5.96888901       0.94275716       0.00082985      -0.00190544      -0.00296135
C        7.62174562      10.66831455       0.92073388       0.00494815       0.00218916      -0.00416674
H        9.43597686       6.90844651       1.69648660       0.00275961       0.00227517       0.00041059
H        9.67357849       7.14869795      -0.02326052       0.00079709      -0.00190223      -0.00043100
H       10.04869816       9.59155551       0.37145520       0.00339013      -0.00166081      -0.00735497
H        9.76746790       9.36139918       2.08438416       0.00668772       0.00353958      -0.00622690
H       11.97459558       8.06017823       0.44697908       0.00233643      -0.00224620      -0.00453886
H       11.74075741       7.73580546       2.14768729       0.00416671      -0.00079203      -0.00402352
H        7.71128524       8.76459241      -0.08804833       0.00177144       0.00039419      -0.00097486
H        7.43519529       8.64749085       1.63669357       0.00481117       0.00361362      -0.00017184
H       11.52826221       5.28582531       1.67279841       0.00106457      -0.00095642      -0.00197473
H       13.05613577       5.91095399       1.04325057       0.00085348      -0.00304458      -0.00433170
H       11.70704520       5.60362113      -0.05190998      -0.00092304      -0.00233897      -0.00232568
H        7.89787269      11.10952039       1.88105063       0.00690933       0.00376027      -0.00552195
H        8.15120442      11.22328778       0.13941664       0.00397411       0.00030055      -0.00621723
H        6.55065374      10.82148995       0.79458114       0.00469521       0.00285598      -0.00289233
C        8.20875080       2.45000469       4.55597883      -0.00340002       0.00335240       0.00294590
C        6.95934815       1.58405451       4.45972570      -0.00145770       0.00048143       0.00252058
C        9.49401834       1.64325445       4.69244701      -0.00261234       0.00520968       0.00685493
C        5.66790506       2.38576302       4.34780648      -0.00358407      -0.00341690      -0.00060722
C       10.73521749       2.51520000       4.83075535      -0.00311831       0.00639215       0.00415292
C        4.42832065       1.50391178       4.30618936      -0.00081682      -0.00756902      -0.00031303
H        8.27643878       3.09127153       3.66836512      -0.00296682       0.00165872       0.00174108
H        8.11301079       3.12983107       5.41148385      -0.00603972       0.00486153       0.00142586
H        6.90240980       0.93459721       5.34190478      -0.00100852       0.00181453       0.00356013
H        7.04049324       0.91049587       3.59969431       0.00151083      -0.00075220       0.00380871
H        9.41242119       0.98270065       5.56276404      -0.00290443       0.00860451       0.00942853
H        9.60753100       0.98263310       3.82977069      -0.00116291       0.00204113       0.00955820
H        5.60552757       3.08098571       5.19294984      -0.00685709      -0.00197372      -0.00207815
H        5.71259740       3.00907562       3.44766367      -0.00448120      -0.00510743      -0.00182429
H       10.87382798       3.14561338       3.94797907      -0.00269136       0.00248565       0.00145580
H       11.63944769       1.91702906       4.95246603      -0.00279200       0.00747555       0.00733217
H       10.65577490       3.17826868       5.69574088      -0.00384492       0.01008165       0.00123678
H        4.46121527       0.80792279       3.46511239       0.00248469      -0.00908603       0.00094353
H        4.34927360       0.90609658       5.21712177       0.00072458      -0.00618196       0.00079246
H        3.51093454       2.08566862       4.22016093      -0.00259210      -0.01046072      -0.00195441
