142
Lattice="12.417943701765335 0.0 0.0 0.0 12.417943701765335 0.0 0.0 0.0 12.417943701765335" Properties=species:S:1:pos:R:3:forces:R:3 energy=-299970.875 stress="-0.0008538502734154463 8.730722038308159e-05 0.00014083895075600594 8.730722038308159e-05 -0.0003381543792784214 -0.00016435653378721327 0.00014083895075600594 -0.00016435653378721327 -8.110391354421154e-05" pbc="T T T"
Ba      10.24825955      11.83486409       2.10410891      -0.00429993      -0.02232464      -0.00793900
P        7.87082424      10.51799940       3.83204211      -0.01070297      -0.01788035       0.01699346
O        7.82557851      11.02870842       2.13926455      -0.01083553       0.00180911       0.01582736
O        7.01596948      11.50994859       4.54014928       0.00125319      -0.00508410       0.01821524
O        9.40406804      10.79099848       3.97006029      -0.00278497       0.00328001       0.00790311
O        7.53464404       9.07160724       3.82080293       0.00403559       0.01770067       0.01127460
H        6.91713598      11.12312436       1.84409451      -0.01315325      -0.01503571       0.01597988
O        4.28127202       3.29177063       5.34828936      -0.00208290      -0.00439447       0.00133518
C        3.24350461       2.33822009       5.38717198      -0.00243574      -0.00388180       0.00056747
C        5.55919566       2.71637290       5.56941587      -0.00328809      -0.00312936       0.01109700
C        1.92697540       3.06651360       5.25301095      -0.00176415      -0.00404093      -0.00624909
C        6.57739926       3.83042279       5.56379725      -0.00406012      -0.00270090       0.01410097
H        3.37916619       1.60383197       4.57649780      -0.00004052      -0.00655630       0.00337473
H        3.28557747       1.78131965       6.33617954      -0.00607631      -0.00094827       0.00232953
H        5.56201526       2.19573759       6.53817894      -0.00950431       0.00011277       0.01270312
H        5.77183233       1.95874680       4.80047160       0.00186205      -0.00543436       0.01497823
H        1.09166735       2.36508203       5.25860575      -0.00203767      -0.00365362      -0.00566502
H        1.79212178       3.76042393       6.08271972      -0.00344958      -0.00056319      -0.00948232
H        1.89854842       3.63773528       4.32462293       0.00102161      -0.00791603      -0.00863454
H        7.56546952       3.45003695       5.82220126      -0.00509189      -0.00157503       0.01945027
H        6.62885781       4.30933136       4.58433305       0.00053560      -0.00445995       0.01382235
H        6.30473694       4.58344148       6.30209481      -0.00838362      -0.00168565       0.01139489
O        9.36344317      11.01259247       9.46570446       0.00017256       0.00518227       0.00089294
C        9.77140117      10.31172855      10.61030399      -0.00336504       0.00275551       0.00008541
C        8.01407771      11.45027409       9.54168861      -0.00074807       0.00331911      -0.00321144
C       11.19478323       9.84968648      10.41887037      -0.00284025       0.00289585       0.00286485
C        7.67584649      12.18320714       8.26921653       0.00408198       0.00747342      -0.00197959
H        9.69009986      10.98134654      11.49663919      -0.00605971       0.00057499       0.00174220
H        9.09903706       9.46328815      10.80785920      -0.00406277       0.00279433      -0.00300912
H        7.35421853      10.58221456       9.69149482      -0.00004050       0.00193405      -0.00924589
H        7.89430308      12.10831126      10.41862588      -0.00500667      -0.00005558      -0.00149283
H       11.53292866       9.26142965      11.27380935      -0.00573702       0.00020301       0.00211896
H       11.25919838       9.22494283       9.52864908      -0.00061278       0.00555423       0.00114439
H       11.86229494      10.70127079      10.28600868      -0.00180244       0.00266615       0.00676899
H        6.66049805      12.57669356       8.31997716       0.00326072       0.00545959      -0.00526968
H        8.36179551      13.01823007       8.12575139       0.00308004       0.00941709       0.00483709
H        7.74008510      11.52962422       7.39885839       0.00912340       0.01138191      -0.00426975
O        5.35734590       4.92182412       8.68551277       0.00132113      -0.00048465       0.00170448
C        6.25386171       4.45627638       9.67610942       0.00011587       0.00135240       0.00345317
C        4.28671783       5.66586076       9.24261150       0.00027961       0.00016451      -0.00142625
C        7.33630343       3.64309359       9.00904205       0.00158441       0.00121725       0.00583276
C        3.32026049       6.03140419       8.14445623       0.00346318       0.00046778      -0.00401616
H        6.68432621       5.31157169      10.21759015      -0.00117132       0.00230882       0.00285749
H        5.70696768       3.84886225      10.41314471      -0.00045493       0.00196353       0.00340146
H        3.78703070       5.06503809      10.01702914      -0.00209820       0.00061327      -0.00260422
H        4.68084821       6.56649960       9.73828388      -0.00058745       0.00010964      -0.00072630
H        8.02038179       3.23813134       9.75679029       0.00072333       0.00272249       0.00731306
H        6.89753757       2.81076700       8.45912300       0.00255762       0.00047407       0.00622507
H        7.90852744       4.25529757       8.31100978       0.00160803       0.00083627       0.00541361
H        2.48152218       6.59592777       8.55266644       0.00213890      -0.00015032      -0.00631914
H        3.80307670       6.64905653       7.38853698       0.00551133       0.00115135      -0.00216834
H        2.94333290       5.12951898       7.66256661       0.00525638       0.00065915      -0.00583219
O        3.45701065       9.81372232       7.37511836       0.00189909       0.00593787      -0.00439223
C        4.82351896      10.20626246       7.31571327       0.00176960       0.00691175      -0.00412204
C        2.60899880      10.91405823       7.63248494       0.00138569       0.00465231      -0.00185592
C        5.68297823       8.97793376       7.17887938       0.00286812       0.00829428      -0.00703979
C        1.18618431      10.42486661       7.73878671       0.00179237       0.00408028      -0.00060429
H        4.99138731      10.88757427       6.47058993       0.00118871       0.00875267      -0.00270808
H        5.07419124      10.75050684       8.23837840       0.00135986       0.00529605      -0.00298715
H        2.92231100      11.40772970       8.56604072       0.00225575       0.00391769      -0.00169367
H        2.71182151      11.65973921       6.82768852      -0.00017838       0.00597900      -0.00105566
H        6.73163202       9.26306676       7.10625292       0.00254063       0.00958269      -0.00669101
H        5.55269232       8.31269377       8.03432893       0.00347032       0.00636380      -0.00846957
H        5.43791238       8.43267386       6.26788389       0.00363853       0.01013454      -0.00832844
H        0.51773853      11.24554326       8.00310539       0.00165719       0.00367416      -0.00038319
H        0.84722329      10.00033772       6.79444661       0.00142104       0.00354388      -0.00023669
H        1.11473272       9.65976778       8.51206681       0.00266031       0.00413696      -0.00038370
O        0.80272229       9.49809982       4.42437659      -0.00122830      -0.00124338       0.00285305
C        1.51844738      10.54256826       3.80812800      -0.00456670      -0.00086975       0.00019450
C        1.62017473       8.34666689       4.66004769      -0.00051829      -0.00161514      -0.00146197
C        0.65173036      11.79476633       3.90561440      -0.00292157      -0.00108877       0.00757216
C        0.76381373       7.27371422       5.28256919       0.00095955      -0.00206950      -0.00036639
H        2.48596321      10.69628083       4.30512737      -0.00138453      -0.00242156      -0.00585324
H        1.74060646      10.27970471       2.76167734      -0.01195659       0.00092083      -0.00169715
H        2.05538737       8.01262096       3.70992550      -0.00373411      -0.00055628      -0.00327080
H        2.44119675       8.62957743       5.33157019       0.00161684      -0.00276527      -0.00367230
H        0.75773665      12.44378094       3.03035976       0.00351157       0.00751731       0.01546523
H       -0.38152254      11.46699087       4.05827529      -0.00432950      -0.00000516      -0.00247684
H        0.90372787      12.39451753       4.77979322      -0.00766996      -0.01158105       0.01573285
H        1.38381827       6.43054717       5.58816868       0.00143701      -0.00338911      -0.00468931
H        0.24489534       7.65261968       6.16380389       0.00477017      -0.00325572       0.00233224
H        0.01712947       6.91237019       4.57671545      -0.00229110       0.00028858       0.00174792
O        9.28587041       6.55470110       7.38688152       0.00095057      -0.00422940      -0.00112772
C        8.76916089       7.10507479       8.58143142       0.00444049      -0.00031604      -0.00172520
C        8.64719683       7.09959490       6.23482599       0.00043696      -0.00486724      -0.00146729
C        9.52537145       6.52497734       9.75384325       0.00583291       0.00119996      -0.00194034
C        9.26610854       6.50395483       4.99690236      -0.00290868      -0.00916964      -0.00100330
H        8.86790875       8.20245585       8.55920515       0.00640927      -0.00057995      -0.00462597
H        7.69304860       6.88078819       8.65971769       0.00422764       0.00198963       0.00109673
H        7.57020047       6.88490746       6.27491891       0.00010937      -0.00192143       0.00070522
H        8.75752601       8.19093117       6.22267064       0.00313610      -0.00529975      -0.00391917
H        9.15412721       6.92333903      10.69978973       0.00840607       0.00374633      -0.00211243
H        9.42408495       5.43957158       9.77673978       0.00413477       0.00143957       0.00068041
H       10.58742251       6.75981161       9.67774382       0.00605175      -0.00079598      -0.00489648
H        8.77341829       6.92841455       4.12192361      -0.00308582      -0.00979514      -0.00110538
H       10.32662542       6.74925943       4.95414841      -0.00235291      -0.01212248      -0.00311713
H        9.16141841       5.41740359       4.99416103      -0.00569844      -0.00892401       0.00164585
O        4.02804272       7.71913955       2.21898923       0.00055310      -0.00015584      -0.00746125
C        4.35017824       8.91800671       1.54987918      -0.00080264       0.00145590      -0.00476426
C        4.77414283       7.56977174       3.42757952      -0.00169680      -0.00046992      -0.00582701
C        3.45931250       9.04155253       0.33681384       0.00089809       0.00193486      -0.00594735
C        4.38986164       6.26655040       4.07419997       0.00050202      -0.00297683      -0.00972739
H        4.21581024       9.77505757       2.22983454      -0.00401993       0.00018045      -0.00355247
H        5.41174750       8.91259319       1.25742871      -0.00044519       0.00411240      -0.00325480
H        5.84660725       7.61533183       3.21924793      -0.00155246       0.00372675      -0.00267370
H        4.56377334       8.42384528       4.08719641      -0.00657293      -0.00274113      -0.00451505
H        3.67916739       9.95775832      -0.21315501       0.00118744       0.00252996      -0.00491377
H        3.60664292       8.19322019      -0.33218528       0.00265336       0.00269102      -0.00643363
H        2.40898732       9.05628127       0.63420209       0.00050491       0.00106626      -0.00752253
H        4.93168269       6.13486109       5.00984994      -0.00312345      -0.00242145      -0.00762667
H        3.32425211       6.22286944       4.29706131      -0.00024690      -0.00720301      -0.01474226
H        4.62759745       5.42002157       3.43032394       0.00654298      -0.00099345      -0.01005544
O        9.35068444       7.22185111       0.98907779       0.00176036      -0.00172770       0.00742634
C       10.16126330       8.27675485       1.45718227      -0.00078273      -0.00073275       0.00754066
C        7.96412227       7.56686149       0.93079062       0.00114754      -0.00302252       0.00666481
C       11.58599425       7.78445369       1.55467034       0.00090793       0.00419191       0.00399512
C        7.16502091       6.29031184       0.83368730       0.00256068      -0.00342011       0.00343236
H       10.09836665       9.12418929       0.73852297      -0.00476192       0.00000948       0.00824043
H        9.79240751       8.63218696       2.43041069      -0.00023362      -0.00302088       0.00881976
H        7.69325288       8.13449235       1.82721819       0.00015886      -0.00476620       0.00751477
H        7.78644094       8.20709811       0.05088837       0.00175967      -0.00157884       0.00761878
H       12.24862462       8.56435876       1.93915479      -0.00148375       0.00448130       0.00756453
H       11.63987492       6.94596849       2.24848651       0.00410965       0.00103159      -0.00011595
H       11.95401787       7.44940237       0.58384227       0.00129650       0.01022527       0.00230879
H        6.10010091       6.51241234       0.74244445       0.00249419      -0.00383118       0.00266717
H        7.47460121       5.69792555      -0.02928922       0.00383848      -0.00173941       0.00283314
H        7.30745830       5.69259187       1.73590236       0.00179341      -0.00481886       0.00264879
O        9.84511710       2.04261129       2.85652143      -0.01525500      -0.02831319      -0.02087076
C        9.35102581       2.83081838       1.75751248       0.00179613      -0.01282437      -0.01709239
C        8.83483796       1.67829878       3.83969792      -0.00772360       0.00975117      -0.00156541
C       10.26825672       3.99962285       1.50162242       0.00991520      -0.01586714      -0.00061447
C        9.49978609       1.35200888       5.15333961       0.00210316       0.01563653      -0.00587624
H        9.27032746       2.19223715       0.86153091       0.00513130      -0.00358883      -0.02351741
H        8.33982119       3.17133225       1.99049418       0.00396705      -0.00577144      -0.02168021
H        8.14058729       2.51212212       3.94084497       0.01547481       0.02776116      -0.00908406
H        8.24207527       0.82081839       3.49237093      -0.02704787       0.01633018       0.02089056
H        9.95038260       4.54582326       0.61347918       0.00819105       0.00152756       0.01152025
H       10.23892363       4.69644656       2.33897579       0.01735782      -0.03095435       0.01102751
H       11.29508680       3.66113923       1.35809717       0.00687833      -0.01827908      -0.01417810
H        8.81381381       0.73999483       5.73672520      -0.00342134       0.04649578       0.01531953
H       10.39994687       0.75128265       5.00790071      -0.02177766      -0.01571701      -0.00325906
H        9.77155573       2.25237747       5.70426383       0.03554371       0.01571776      -0.02817084
