142
Lattice="12.017416771424493 0.0 0.0 0.0 12.017416771424493 0.0 0.0 0.0 12.017416771424493" Properties=species:S:1:pos:R:3:forces:R:3 energy=-297658.9375 stress="0.0010729371570050716 7.998459113878198e-05 8.57106497278437e-05 7.998459113878198e-05 -2.2573958631255664e-05 -0.000637886201729998 8.57106497278437e-05 -0.000637886201729998 0.0016639529494568706" pbc="T T T"
Ba      10.86603535      11.30332339      -0.80340978      -0.00340757       0.03719694       0.01786421
O        9.71879297      10.32605289       9.12256111       0.00435966       0.01889002       0.02224228
N        8.77293084      11.65782237       7.34329198       0.00978807      -0.01100236       0.00122809
C        9.20816981      10.99082920       8.20914778       0.00310320       0.01074848       0.00248253
O        8.78527577      12.32547188      12.23226971      -0.00560492       0.02882309       0.02044073
N        6.58575281      11.34638774      12.38775451       0.02348632       0.01839006       0.00239179
C        7.65880194      11.82575365      12.29883661      -0.04721236      -0.00198552       0.01512205
O       12.06195523       2.47303355       4.13737624      -0.00226229      -0.00851771       0.00753719
C       11.68435302       2.92896973       2.84485993       0.00276895      -0.00471583       0.00779700
C       11.36623763       1.78507924       1.88808386       0.00506134      -0.00242448       0.00327915
H       10.83424402       3.61560660       2.89804380       0.00274807      -0.00457293       0.00603695
H       12.53528437       3.48762961       2.45005230       0.00457332      -0.00445983       0.01180899
H       11.14171971       2.19642347       0.89679565       0.00744482       0.00173022       0.00418736
H       12.23378638       1.12331012       1.81680000       0.00566903      -0.00190666       0.00352293
H       10.49830752       1.21461416       2.22439967       0.00401510      -0.00273184       0.00027885
H       11.28342235       2.38013380       4.70378211      -0.00376381      -0.00831259       0.00570104
O        8.25791598       3.47587270       2.48156903       0.00192625      -0.02404906      -0.01450104
C        8.25317726       2.66999395       3.65919496       0.00107637      -0.00976789      -0.00480747
C        7.14104282       1.64301455       3.65466849       0.00097680      -0.00970253       0.00698632
H        9.21889970       2.17157381       3.79179443       0.00104222      -0.00846961       0.00183204
H        8.14151652       3.36583832       4.49244151       0.00107492       0.00025877      -0.01331142
H        7.18305949       1.03198739       4.56022101       0.00157504      -0.00043085       0.01329759
H        6.16472664       2.12675130       3.58477916       0.00074205      -0.01063678       0.00181881
H        7.23020017       0.97144413       2.79685624       0.00069238      -0.01913832       0.01432684
H        8.33621040       2.88319512       1.72612183       0.00246160      -0.03358686      -0.00704205
O        2.67519532       2.17300537       1.00989438       0.00207663      -0.00402254      -0.00540060
C        3.32754599       2.60025468       2.20939659       0.00542647      -0.00502948      -0.00722736
C        3.36862382       1.48729340       3.23830899       0.00006701      -0.00382656      -0.00556031
H        4.32875842       2.97613848       1.98369455       0.00773776      -0.01184128      -0.00871882
H        2.75636144       3.44401197       2.61106860       0.01165307      -0.00035506      -0.00755514
H        3.75890963       1.85875283       4.18926585       0.00017615      -0.00405946      -0.00548480
H        2.36240409       1.11077903       3.42815725      -0.00160480      -0.00013914      -0.00627113
H        4.00541842       0.66797762       2.90327395      -0.00264195      -0.00669570      -0.00391663
H        3.32150442       2.08104124       0.29180591      -0.00084366       0.00477841      -0.01012760
O        5.95927245       3.60435165       6.31833000       0.02808401       0.00105053       0.00221656
C        5.09747254       4.49238881       5.59992643       0.01712095      -0.00376615       0.01024446
C        5.80104915       5.18854811       4.45393877      -0.00002223      -0.00578102      -0.00134379
H        4.21243346       3.95480160       5.23932741       0.01465645      -0.00841647       0.02420001
H        4.75095945       5.21775673       6.33863492       0.02485399      -0.00225145       0.01223767
H        5.12301566       5.88611925       3.96184084      -0.00911961      -0.00999880       0.00528742
H        6.66143369       5.75051570       4.82084427       0.00285667      -0.00138397      -0.01479775
H        6.14444942       4.48268352       3.69727460      -0.00779255      -0.00739035      -0.00349981
H        6.12522004       2.83878111       5.75976911       0.02122438      -0.00196831       0.00444540
O       10.16452926       2.04121095       6.57996079       0.00553459      -0.00977531      -0.00515395
C       11.02770155       2.48579019       7.62429537       0.00498596      -0.00362763      -0.00853556
C       11.11297791       1.52699765       8.80262872       0.00297684       0.00456542      -0.00155142
H       12.02532603       2.62725914       7.19698649       0.00543135      -0.00913265      -0.00944959
H       10.68168236       3.46064957       7.97646203       0.00669405      -0.00026822      -0.01563334
H       11.77907510       1.95780167       9.55867085       0.00342023       0.00923751      -0.00460969
H       10.11491422       1.38372776       9.23326476       0.00246145       0.00941223      -0.00093440
H       11.51110751       0.55879300       8.47908283       0.00158294       0.00146806       0.00573552
H        9.65433808       1.25188426       6.86544870       0.00754070      -0.01079256      -0.00329998
O        6.81452954       2.49017226       9.84375785      -0.01141132      -0.00155966       0.00843430
C        7.18862483       3.41392127      10.87134361      -0.00543350       0.00350998       0.00211400
C        8.68746050       3.61325339      10.96656420      -0.00473034       0.00074357      -0.00592584
H        6.68513304       4.37349389      10.71863924      -0.00400048       0.00363877      -0.00138840
H        6.79227353       2.98559770      11.79479658      -0.00239018       0.00966004       0.00625977
H        8.92553596       4.32392129      11.76185278       0.00086072       0.00110704      -0.00807439
H        9.17565474       2.66521716      11.19510581      -0.00640447      -0.00030544      -0.00588382
H        9.08971959       4.00946138      10.03132100      -0.00859531      -0.00271590      -0.00904895
H        7.04272991       2.87085731       8.98726001      -0.01841559      -0.00484794       0.00509472
O        9.03429821       5.02646436       7.40151224      -0.00622340      -0.00301713       0.00126362
C        8.81639207       6.31804359       6.83624484      -0.00292857      -0.00257102       0.00063229
C        9.48921211       6.49287021       5.48935983       0.00150484      -0.00363263       0.00238723
H        7.74380543       6.53118892       6.76154714      -0.00236529      -0.00129126      -0.00245709
H        9.23163612       7.02286297       7.55829085      -0.00397691      -0.00300571       0.00181639
H        9.31431304       7.50420419       5.11447046       0.00291810      -0.00370711       0.00113274
H       10.56432050       6.32436052       5.56744840       0.00129160      -0.00370169       0.00607891
H        9.08830017       5.79444477       4.75001876       0.00408397      -0.00430377       0.00167397
H        8.72265329       4.36224994       6.77578576      -0.02582549      -0.00080158       0.00904997
O        4.74172669       5.49706297       1.09945396      -0.00219971       0.00069243       0.01809049
C        3.52095130       6.21219090       0.94582175      -0.00373721      -0.00317837       0.01175576
C        3.01606742       6.78514849       2.25404594      -0.00900882       0.00250353       0.00736034
H        3.63886497       7.00355960       0.19163012      -0.00402358      -0.00698969       0.00763968
H        2.80947668       5.48769812       0.54710502      -0.00085631      -0.00728437       0.01405405
H        2.07492546       7.32101341       2.11185607      -0.00957906      -0.00012921       0.00095190
H        2.85049093       5.98612444       2.97726709      -0.01037834       0.00591825       0.01096237
H        3.73695004       7.49003204       2.67456898      -0.01193571       0.00619617       0.00635645
H        5.43235898       6.12366285       1.33436354      -0.00436153       0.00367662       0.01682738
O        6.37807980      10.07017460       9.83020926      -0.00072581       0.00355977       0.00987244
C        5.11624715      10.37923941       9.26407975       0.00144392       0.00355843       0.00528528
C        4.16304840       9.19889493       9.36693156      -0.00150776       0.00580651       0.00662313
H        4.68958187      11.26360666       9.75010126       0.00156887       0.00631645       0.00123644
H        5.27193831      10.62659895       8.21118464       0.00451428      -0.00030253       0.00512350
H        3.18708649       9.43680568       8.93456088       0.00019202       0.00647460       0.00312838
H        4.57400896       8.34124705       8.83034548      -0.00180027       0.00315313       0.01026145
H        4.02481710       8.90985102      10.41250107      -0.00504247       0.00900992       0.00716421
H        6.41579248      10.48607276      10.71107899      -0.00265358       0.00470638       0.01020935
O        1.28781800      10.27130647       0.04000737      -0.01150000       0.01072127      -0.00550699
C        2.51854928      11.00143846       0.33919512      -0.00479984       0.00233829      -0.01159158
C        3.37438403      10.25610881       1.32921872      -0.00741804      -0.00013161      -0.01127076
H        3.05674038      11.17638285      -0.59477162      -0.00660470      -0.00481258      -0.01390079
H        2.20246545      11.96618735       0.73263819       0.00341092       0.00601402      -0.01396601
H        4.30271065      10.80370309       1.49234426      -0.00338003      -0.00531207      -0.01543602
H        2.85484832      10.11821774       2.27896231      -0.00612918       0.00676396      -0.00946966
H        3.65939425       9.27674033       0.93548235      -0.01528344      -0.00360811      -0.00830603
H        1.53320918       9.35020301      -0.09533122      -0.01861560       0.00949723      -0.01116282
O        3.96643648       2.27625951      10.42137570       0.00314769       0.01080060       0.02429572
C        3.69988629       3.68230803      10.48321656      -0.00181611       0.01078975       0.00122085
C        3.93245178       4.41186952       9.17597952      -0.00296189      -0.01172586      -0.01114255
H        2.65246684       3.76308170      10.78179730      -0.00250489       0.01215749      -0.00077555
H        4.30294632       4.13351415      11.27647307      -0.00376740       0.02600108      -0.00584596
H        3.75030698       5.48057033       9.32063634      -0.01530036      -0.01129900      -0.03355011
H        4.96000299       4.28945270       8.82962948       0.00008422      -0.00704984      -0.00387148
H        3.26793106       4.05057504       8.39042186       0.00496598      -0.03429128      -0.00690228
H        4.89877227       2.17195119      10.16001257       0.00361319       0.00913533       0.02519609
O        6.24356979       9.06525649       6.23309908       0.00593540      -0.01239842       0.00412931
C        5.20866505       8.56525066       5.39347673       0.00241917       0.00403544      -0.00133353
C        3.90049661       9.32231337       5.49834183       0.01020312       0.01712370       0.00184821
H        5.54613699       8.53202569       4.34771086       0.00405097       0.00749362      -0.00099421
H        5.06644138       7.53344763       5.71718370      -0.00922612       0.00334084      -0.00859846
H        3.12526161       8.82965129       4.90708844       0.00572239       0.02946006      -0.00233555
H        3.55405980       9.35696888       6.53028909       0.00909926       0.01383915       0.00168204
H        3.99739998      10.34608228       5.12928261       0.02198274       0.01843996       0.00878709
H        6.39232374       9.99741627       6.04347828       0.01696309      -0.01308441       0.00967973
O        9.11194670       7.83428036      10.41812507      -0.02189565       0.03165323       0.00034413
C        7.86290166       7.21167645      10.04682835      -0.01169670       0.01240538       0.00025138
C        6.95201069       7.13084974      11.24634617      -0.00971335      -0.00390928       0.00055915
H        7.39258401       7.80703030       9.26479438      -0.02120614       0.00503922       0.00025177
H        8.08685051       6.21758299       9.65078431       0.00489478       0.01622444       0.00016257
H        5.99678400       6.68548808      10.96226375      -0.00033084      -0.02458750       0.00254461
H        7.39338258       6.50872877      12.02970250       0.00299861       0.00661455       0.00140564
H        6.76176644       8.13150045      11.63540354      -0.03008500      -0.00749837      -0.00083646
H        9.24470145       8.58694194       9.82166906      -0.03226204       0.03719816       0.00471079
O        9.92721432       9.24477145       0.49969501      -0.00552297       0.02347100      -0.01372913
C        9.60078763       9.30794043       1.90454933       0.00124353      -0.00093434      -0.01167019
C        8.25562546       8.71757263       2.25411123       0.00276339      -0.00771460      -0.01711040
H       10.40145328       8.82056925       2.46936178       0.00382683      -0.01049757      -0.02359076
H        9.61082047      10.36862232       2.16439343       0.00203482      -0.00584283       0.00733656
H        8.05114574       8.91082443       3.30982910       0.00711033      -0.02923618      -0.01262315
H        7.46553979       9.18463093       1.66590371       0.00046664       0.00310861      -0.00530769
H        8.24262662       7.63615745       2.10728527       0.00306110      -0.00433785      -0.03898808
H        9.46877423       8.53274501      -0.00547096      -0.00768250       0.02912354      -0.02245073
O       12.22700036       9.66174510       5.83551627       0.01461846      -0.00328690       0.00261305
C       11.80358741      11.02084693       5.71718740       0.01081783      -0.00461942       0.00043073
C       10.78621123      11.21639763       4.61637325       0.01143032      -0.00917250      -0.00112551
H       11.38521094      11.37227280       6.66432492       0.00865063      -0.00452965      -0.00032836
H       12.70668167      11.59743289       5.51208330       0.00946885      -0.00221840       0.00073414
H       10.45151516      12.25347591       4.59779755       0.00976339      -0.00977799      -0.00423773
H       11.22541531      10.96682585       3.65076556       0.01290022      -0.01120742      -0.00024295
H        9.90603304      10.59285961       4.79154857       0.01237786      -0.01029345      -0.00034163
H       11.45288929       9.14283967       6.07496495       0.01493759      -0.00591476      -0.00151853
