149
Lattice="12.624801019388816 0.0 0.0 0.0 12.624801019388816 0.0 0.0 0.0 12.624801019388816" Properties=species:S:1:pos:R:3:forces:R:3 energy=-341618.0 stress="0.0007775957346893847 0.0010986285633407533 -0.0001979224252863787 0.0010986285633407533 0.00022340239956974983 0.00019383931794436648 -0.0001979224252863787 0.00019383931794436648 -0.0007862010970711708" pbc="T T T"
Ba      11.13170492      12.14586071       0.18627296      -0.01039746       0.00052021       0.00850034
O       10.26662962      13.14025271       2.61154931      -0.01945531       0.02611525      -0.00517005
H        9.47980053      13.03898059       2.00342171      -0.01544502       0.02627312      -0.01322757
O        8.85744238      12.71783981       0.40642748      -0.00985429       0.02475178       0.00086541
H        8.03832993      13.17469509       0.21482309      -0.00161630       0.03630769      -0.00752933
O        3.39039990       0.44674072       3.20816295      -0.00031239       0.02464798      -0.01298252
O        4.24158982       2.51553415       3.05924452       0.02483013       0.01606375       0.01990341
C        5.74635417       0.63183166       3.11959946       0.00124681      -0.00266716      -0.01370763
C        4.42368958       1.32537387       3.12342945       0.01016219       0.01235932      -0.00069769
H        5.87644704       0.12770096       4.07785931       0.00440939      -0.00053187      -0.01293349
H        5.79364026      -0.11691960       2.32815603      -0.01580256      -0.00552177      -0.01143134
H        6.53922444       1.36095324       2.98202049       0.00842583      -0.01251380      -0.02304108
H        2.57906127       0.97669229       3.20356843       0.00593013       0.03402835       0.00310176
O        8.20844967       5.91483330       4.51240428       0.01276970       0.02201110      -0.01478714
O        9.26773699       5.12728577       2.70365068       0.01836097      -0.00184639      -0.00061911
C        6.93484547       4.59014782       3.03363147       0.01882046      -0.00074607       0.00109205
C        8.25361740       5.20959669       3.35875171       0.01687801       0.00677188      -0.00497380
H        6.69383906       3.82980019       3.77773427       0.02301072       0.00200504       0.00539990
H        6.14753629       5.34043562       3.10806607       0.01567329      -0.00401308      -0.00264420
H        6.95026604       4.14579802       2.04413042       0.02044430      -0.00652298       0.00394170
H        9.07273830       6.35136851       4.61721502       0.01322138       0.02156662      -0.01444923
O       11.52075959       1.58423869       7.48303808       0.00978091       0.00263493      -0.02291518
O       12.91590430       2.93680221       8.60689269       0.00097227       0.01219648      -0.02344795
C       10.93973634       2.08687736       9.69717465       0.00830281      -0.00235514      -0.02176744
C       11.90918865       2.26537760       8.56576629       0.00611204       0.00531584      -0.02219532
H       10.03495380       2.65864859       9.48020475       0.00902170       0.00105760      -0.01543076
H       10.62743988       1.04669591       9.77227232       0.00885285      -0.00303623      -0.02756665
H       11.37514933       2.46022515      10.62142255       0.00962734      -0.00633247      -0.02095345
H       12.10735182       1.82823572       6.75386735       0.00741848       0.00869870      -0.02273130
O        8.69934056       5.62270539       7.50164758      -0.02840108      -0.01136339      -0.01101005
O       10.28227063       4.13671849       6.94385421      -0.01906792      -0.00297093      -0.00932871
C       10.95460983       6.37191257       7.49037581      -0.03029412      -0.00468636       0.01158091
C        9.98585051       5.25417835       7.28039929      -0.02571528      -0.00495619      -0.00311998
H       10.77209510       7.14925308       6.75217916      -0.02558992       0.00132574       0.01616530
H       10.82069478       6.82095850       8.47158625      -0.04037090      -0.01355631       0.01415309
H       11.96909075       5.99988823       7.37937288      -0.02842218      -0.00154941       0.01788144
H        8.14626201       4.84572058       7.30332116      -0.02494231      -0.01223290      -0.01789187
O        2.37988360       6.53292465       0.61136121       0.02189815      -0.02602661       0.00351515
O        3.72019797       8.08596672      -0.29452766       0.00219202      -0.00848347       0.00525594
C        3.92698228       7.57408892       2.04325035      -0.00094396       0.00050574       0.00758028
C        3.34949194       7.44443443       0.66781585       0.00773648      -0.01152316       0.00504100
H        3.15424130       7.83632750       2.76716445      -0.00935033      -0.01195667       0.00289416
H        4.32854494       6.61191236       2.35871115       0.01432399       0.00853115       0.01164080
H        4.71739379       8.31712487       2.04245360      -0.01421345       0.01418938       0.00940101
H        2.23645771       6.30862668      -0.34481253       0.02116184      -0.02432187       0.00300144
O        6.37436853       9.37883957       8.55953560      -0.01678193      -0.01244433       0.00646257
O        7.26991453      11.42781330       8.72048539       0.00530380      -0.02254510       0.00863224
C        5.77427327      10.65323117      10.44669320      -0.00883788      -0.00442829       0.00389618
C        6.54365995      10.57106557       9.17147335      -0.00574094      -0.01448500       0.00653580
H        4.73587900      10.36715830      10.28674748      -0.01110187       0.00541205       0.00147105
H        6.20042179       9.93606118      11.15163697      -0.01814196      -0.00727896       0.00651452
H        5.84707563      11.65688036      10.85409566       0.00025539      -0.00440904       0.00228004
H        6.92017801       9.35999564       7.75571958      -0.01356110      -0.01932353       0.00851139
O        3.31404380      11.50102093       0.51912148      -0.00728765       0.00610816      -0.00543262
O        1.31021453      12.47894689       0.62121045      -0.01166280      -0.00560337      -0.00083292
C        1.48269191      10.11193454       1.02911439       0.00502148      -0.00500447       0.01485449
C        1.99697696      11.47167412       0.71337328      -0.00607765      -0.00124475       0.00289674
H        1.62776096       9.45528726       0.16962690       0.00444464       0.00520077      -0.00088179
H        2.05149931       9.68158902       1.85076912       0.01260716       0.01275337       0.02247697
H        0.43248531      10.13337749       1.30820007       0.00535008      -0.00354938       0.02522081
H        3.56908549      12.42235823       0.35668314      -0.01499180       0.00703096      -0.01307547
O        6.78964387       3.52000693       9.69472918       0.02799749      -0.00256276       0.02197015
O        6.01083942       2.78711487      11.66863043       0.01251525      -0.01738824       0.00991237
C        5.25583198       1.71421772       9.65077902       0.02249861       0.00631624      -0.00720811
C        6.02817795       2.70359666      10.46428103       0.02033514      -0.00591518       0.00894833
H        4.71628358       2.19485999       8.83510955       0.04115859       0.01783143      -0.01271728
H        5.94140998       0.99545887       9.19499938       0.02248320       0.00146322       0.00013289
H        4.55844507       1.18869482      10.29702719       0.00743315       0.00995466      -0.02112523
H        7.25793589       4.12991076      10.29139538       0.02598970      -0.00730120       0.02847886
O        2.77448974      10.60940471       8.44531769      -0.01257196       0.02605337      -0.01915732
O        1.35348243      10.36427346       6.73101412      -0.01088274       0.00180757      -0.01707846
C        3.38353058       9.06619359       6.76629749      -0.01076585       0.00113940       0.00216085
C        2.38732748      10.05801778       7.26755502      -0.01219344       0.00841376      -0.01063165
H        4.38018657       9.50311981       6.78616242      -0.01108296       0.00114162       0.00585975
H        3.39782151       8.20808726       7.43884219      -0.01477193       0.00223504       0.00393753
H        3.11828689       8.74609818       5.76435300      -0.00705027       0.00000201       0.00149302
H        2.06947066      11.22589171       8.68983616      -0.01672310       0.01558730      -0.00096554
O        8.26212515       6.01550264      11.03137276      -0.00527984      -0.01009866      -0.00320704
O        7.74055798       8.15898182      11.40464098      -0.01242101      -0.01175988      -0.00598672
C        6.02062130       6.66358094      10.64046801      -0.00637448      -0.01663555      -0.01004702
C        7.39605451       7.04720522      11.06476050      -0.00876325      -0.01220816      -0.00605965
H        6.04540662       6.35123442       9.59531929      -0.00260616      -0.01255667      -0.01122615
H        5.66702858       5.81442790      11.22850853      -0.00393618      -0.02049920      -0.01439725
H        5.34267006       7.49964471      10.76813213      -0.00994363      -0.01979354      -0.00828578
H        9.14464395       6.35933940      11.30409093      -0.00703219      -0.00610366      -0.00210476
O       10.59438320      10.27973573       2.00969886      -0.02028334       0.00187820       0.00190657
O       10.71504939       9.42903948      -0.02405542      -0.01096901      -0.00116169       0.00339216
C        9.40865075       8.24102818       1.59577836      -0.00989240      -0.00393784       0.00168869
C       10.29337567       9.38268822       1.19725570      -0.01401931      -0.00075758       0.00177891
H        9.95134936       7.29664861       1.53729678      -0.00797947      -0.00256021      -0.00513697
H        9.04462654       8.37535731       2.60931540      -0.00575615      -0.00743151       0.00363867
H        8.58084749       8.17405534       0.89056648      -0.01305658      -0.00254643       0.00500457
H       10.25885279      12.34712114       3.15833529      -0.03359814       0.03566724       0.00762079
O        6.47520511       3.13598086       6.32202892       0.01146746      -0.00307184       0.01357406
O        5.86351360       0.97695014       6.29396685       0.00261128       0.00014329      -0.01279724
C        8.19316205       1.52081576       6.52570141       0.00390869      -0.01311980       0.00176800
C        6.73657009       1.81192870       6.38246699       0.00577331      -0.00506830      -0.00032651
H        8.65045142       1.54060894       5.53164554       0.00491408      -0.01202802       0.00225469
H        8.70158124       2.28467511       7.10828606       0.00722224      -0.01750502       0.00430306
H        8.33751633       0.53627606       6.96066119      -0.00292733      -0.01521043      -0.00032307
H        5.50577306       3.24802598       6.20681798       0.01239645       0.00147343       0.00896898
O        2.04557178       6.93846744       9.20859260      -0.01351428      -0.00793496       0.00204384
O        2.52474886       5.48548189      10.84859903      -0.00290948      -0.00963408      -0.00382715
C        3.37132606       5.06564436       8.66243139       0.00104710       0.00475127      -0.00550616
C        2.63174110       5.85225551       9.68957762      -0.00505611      -0.00490689      -0.00263256
H        2.66418443       4.34534988       8.24436176       0.00965776      -0.00640883      -0.00004433
H        3.74589618       5.68648378       7.85194042      -0.01335786       0.00851876      -0.00897513
H        4.17838650       4.50626674       9.12529885       0.01206069       0.01735766      -0.00955459
H        1.41693271       7.30908102       9.89792916      -0.01323190      -0.01264366       0.00525343
O        9.84017623      11.48078838      10.35490236      -0.00434697      -0.00268915       0.01222622
O       10.67487585      11.46201424       8.30149711       0.03770930       0.00614280       0.02526915
C        9.85437824       9.37997171       9.14910782      -0.00884645       0.00829965      -0.00655542
C       10.13539294      10.84618522       9.17211132       0.00624393      -0.00502217       0.01993495
H       10.79319633       8.89790576       9.43603616      -0.01486707      -0.00982627      -0.01822345
H        9.08680639       9.06521308       9.85398845      -0.01201949       0.00615390      -0.00922188
H        9.60518418       9.06896117       8.13842996      -0.01617132       0.02596121      -0.00996581
H        9.19285486      10.97243376      10.86707053      -0.01451465      -0.00295645      -0.00034285
O        7.22364376       8.11750648       6.07783314       0.01688377       0.01357257       0.00351012
O        5.50505908       7.36936184       4.83792385       0.00967473       0.00989199       0.01404619
C        6.33373048       9.60709701       4.48460814      -0.00170790       0.01446569       0.01354599
C        6.27408251       8.25178525       5.11427289       0.00948507       0.01381922       0.01089555
H        6.28287550      10.38957534       5.24366688       0.01176797       0.01368117       0.01521719
H        7.28938015       9.72473578       3.97051872      -0.01090163       0.01533912      -0.00312910
H        5.51974161       9.72275198       3.77675792      -0.01319477       0.01541105       0.02713417
H        7.23647595       7.18633964       6.35486743       0.02436587       0.01231539      -0.00036310
O        1.82158244       2.69097320       5.18604003       0.01966992      -0.00745565       0.00757462
O        3.74273782       3.34612526       6.10055298       0.00943318       0.00772977       0.00863990
C        2.58310784       4.88143121       4.65536013       0.00387748      -0.01002812      -0.00835925
C        2.81036937       3.59484432       5.37013626       0.01212454      -0.00123729       0.00310999
H        2.26201884       4.71333926       3.62943192       0.01080905      -0.02370907      -0.00705570
H        1.78985550       5.43399717       5.16585639      -0.00272273      -0.01655475      -0.01453723
H        3.49338862       5.47427159       4.67761953       0.00037980      -0.00752385      -0.00685277
H        2.05831348       1.92779034       5.73722828       0.02380595      -0.00161362       0.01388681
O       10.76571363       7.25232383       4.33435946       0.01877280       0.00046575       0.00136435
O       12.68900717       8.25090751       3.76536237       0.01126730       0.00691126      -0.01432535
C       11.07603968       9.48413934       5.08054966       0.01830137       0.00157470      -0.00003093
C       11.63480851       8.31625823       4.33735236       0.01389360       0.00408112      -0.00385115
H       10.29593399       9.92029581       4.45280179       0.02181894       0.00790113      -0.00042416
H       10.61224265       9.18277770       6.01798970       0.01510123      -0.00186302      -0.00246735
H       11.84956330      10.21996611       5.27666709       0.02129808      -0.00335714       0.00571080
H       11.11673003       6.57321326       3.73563790       0.01566893       0.00220373      -0.00245011
O       10.73894249       7.18750337      11.58591512      -0.01292512      -0.00001931      -0.00021253
O       12.74871425       7.73783459      10.80514427      -0.00837591      -0.00794470       0.00645468
C       12.00745162       5.45634219      10.60347560      -0.01086269      -0.00857455       0.01833464
C       11.87665732       6.89396715      10.99912441      -0.01054958      -0.00539559       0.00759339
H       12.55451789       4.93088127      11.38875816      -0.00593700      -0.00110237       0.02015421
H       11.03014821       4.99407545      10.48619613      -0.01056989      -0.01192985       0.02629006
H       12.58598334       5.34264983       9.69211494      -0.01410317      -0.01476840       0.01688161
H       10.72108816       8.19926242      11.97118970      -0.01244315       0.00031209      -0.00006817
