150
Lattice="12.053815962465928 0.0 0.0 0.0 12.053815962465928 0.0 0.0 0.0 12.053815962465928" Properties=species:S:1:pos:R:3:forces:R:3 energy=-115052.421875 stress="0.00048450997564941645 0.00023129829060053453 -0.00048445713764522225 0.00023129829060053453 -0.000401044700993225 -0.0002828426659107208 -0.00048445713764522225 -0.0002828426659107208 0.0007778698345646262" pbc="T T T"
Be      13.82515811      13.18884670       1.48774030       0.00956422      -0.01919833      -0.00021246
P        8.77703032      10.50104258       7.07672627      -0.00492829      -0.00050797      -0.00192076
F        8.83418858      10.02060765       5.56192530      -0.00714278      -0.00247417      -0.00149286
F        8.13202822       9.10964984       7.56518877      -0.00047037      -0.00118607       0.00157620
F       10.25168526       9.95971972       7.37277685      -0.00316548       0.00354408      -0.00463568
F        9.39528198      11.95534413       6.66059387      -0.01051711       0.00033295      -0.00301970
F        7.28094903      11.10125130       6.84202882      -0.00714582      -0.00437950       0.00014569
F        8.69665666      11.05531901       8.65022105      -0.00308892       0.00208525      -0.00262398
P        8.57302811      10.16731068       0.42835407       0.01133306       0.00569277      -0.00257704
F        9.06484987      10.62629103       1.85896364       0.01634983       0.00564927      -0.00396882
F        9.61804088      11.11502044      -0.34826417       0.00740409       0.00812195      -0.00564705
F        9.63342674       8.97211174       0.35995490       0.01353100       0.00760078      -0.00725289
F        4.72607904      12.10817665       2.06611455       0.02002268      -0.00952344      -0.00947767
F        7.47219651      11.32740820       0.35581946       0.00958723       0.00377092       0.00225949
F        7.47202772       9.15315539       0.98640087       0.01537275       0.00334913       0.00103063
O        4.62806662       8.32119192       3.23674065      -0.00379412       0.00252602      -0.00590372
C        4.71601218       9.08240836       4.44294345       0.00319025       0.00545743      -0.00794977
C        3.49006845       9.94660882       4.65681601       0.00479501       0.00690073      -0.00408964
H        4.81572185       8.34992338       5.24690265       0.00649694       0.00742957      -0.00658321
H        5.62619229       9.68918993       4.43887101       0.00361270       0.00464889      -0.01412645
H        3.55068500      10.47526808       5.60981343       0.00937154       0.00885569      -0.00544548
H        3.41733281      10.69687272       3.86665688       0.00191644       0.00531793      -0.00535296
H        2.58321977       9.33799087       4.65605123       0.00443950       0.00729130       0.00133098
H        4.56554074       8.91325530       2.46417132      -0.00505446       0.00102027      -0.00667315
O        5.23655753       0.13308885       8.63672346      -0.00346929       0.00182158       0.01303750
C        6.09609253       0.90437652       9.48408086       0.00075266       0.00255698       0.00121693
C        6.98423771       1.85331972       8.70922939      -0.00884494       0.00650182      -0.00387475
H        5.44000708       1.45032711      10.16465543       0.00224143       0.00105432       0.00448242
H        6.70783912       0.24675943      10.11119736       0.00603470       0.00750196      -0.00144523
H        7.55530122       2.47284275       9.40176173      -0.00704446       0.01122803      -0.00988546
H        7.68174571       1.29486686       8.08554381      -0.00982976       0.00888574      -0.00886727
H        6.40074883       2.50309603       8.05670745      -0.01433131       0.00422967      -0.00143304
H        5.79342930      -0.21302226       7.92926759       0.00311324      -0.00560161      -0.00014675
O       12.42215301       1.64495920       1.11180108       0.01524493      -0.00275958      -0.00327186
C       11.33985809       1.81786363       2.12109060       0.00814086      -0.00674459      -0.01157445
C       11.45565812       3.15135579       2.80731102       0.00106998      -0.00797108      -0.00786674
H       10.40302489       1.68469436       1.58202091       0.01242587      -0.00760624      -0.01884590
H       11.45130947       0.98271000       2.81276821       0.00484782      -0.00798886      -0.01354447
H       10.73603806       3.19979668       3.62402458      -0.01010562      -0.00719995      -0.01783247
H       12.44448309       3.28229502       3.24623710      -0.00491087      -0.00917757       0.00590394
H       11.25707537       3.97516417       2.12150741       0.01146569      -0.00756209      -0.01041874
H       12.42230511       2.40409785       0.38726430       0.01486512      -0.00292438      -0.00248694
O        7.20332147       3.11854029       5.05884080      -0.00326747       0.01352638      -0.01938069
C        7.91024905       2.14980500       4.29999740      -0.00339862      -0.00120866      -0.00033951
C        6.99548880       1.23799750       3.51476694      -0.00281781      -0.00083572      -0.00121635
H        8.60915802       2.65080456       3.61490701       0.00972265      -0.01577583       0.00231022
H        8.49651185       1.55944172       5.00505003      -0.01706332       0.00119022       0.01282048
H        7.55958446       0.52732048       2.90806902      -0.00306108      -0.01262397       0.01261354
H        6.35085450       0.67147280       4.18712153      -0.01604010       0.01300202      -0.00243792
H        6.36398758       1.82279598       2.84360701       0.01078165      -0.00214885      -0.01488125
H        6.82267589       3.74184539       4.41588983      -0.00065079       0.00362863      -0.03060551
O        0.71179093       3.41728601      11.46569492       0.00311810       0.00234200      -0.00176096
C        2.06388717       3.19569895      10.96237838       0.00258315       0.01200894      -0.00671890
C        2.15147616       2.05420904       9.97534838       0.00572497       0.00936830      -0.00314918
H        2.42507867       4.13131644      10.53387849      -0.00723982       0.01340231      -0.01200143
H        2.65136630       2.99663665      11.86059522       0.00848226       0.01950195      -0.00881504
H        3.19340104       1.78654883       9.79015788       0.00635347       0.01921133      -0.01286593
H        1.63487690       1.16532692      10.34520070       0.01853758       0.00541106       0.00521314
H        1.71058261       2.32038423       9.01604910      -0.00719847       0.00143592       0.00056517
H        0.10643605       3.58617022      10.73160153      -0.00071603      -0.00435045      -0.00051188
O        2.97355308       1.70063034       2.07492410       0.00678867      -0.02611473       0.01285795
C        3.16129690       2.63221465       3.17222610       0.00670257      -0.00957745      -0.00187139
C        2.81617131       1.96258181       4.48088860       0.00855523       0.01271987       0.01024348
H        4.20739917       2.93862968       3.15217513       0.00610808      -0.00788514      -0.00959601
H        2.56255458       3.52569496       2.98728558       0.00595504      -0.01266125      -0.01373119
H        2.99183266       2.64199485       5.31443479       0.01367759       0.02757326      -0.00300430
H        1.76563790       1.65905925       4.50954485       0.00747092       0.01760237       0.02096232
H        3.43989081       1.08066969       4.62966161       0.00536497       0.01278575       0.02387551
H        4.04358132       0.77711623       2.06521776       0.01267236      -0.01577343       0.00511687
O        6.43250949       4.78212949       2.89665111      -0.00434101      -0.00735724      -0.02946063
C        7.20798489       5.97751511       2.72409611      -0.00351185      -0.00520132      -0.01158854
C        8.63476318       5.60130937       2.41070092       0.00004441      -0.00179879       0.00050546
H        6.78034151       6.57588722       1.91463292       0.00450091       0.00090352      -0.01141265
H        7.16468803       6.59188465       3.63102066      -0.01370968      -0.01281023      -0.00695872
H        9.21346850       6.49574699       2.17342603       0.00217953       0.00045338       0.01463144
H        9.09923249       5.10663431       3.26442205      -0.00909021      -0.00903350       0.00121145
H        8.66510639       4.92565588       1.55313761       0.00999017       0.00607522      -0.00525333
H        5.50099232       5.03567449       2.74376153      -0.00582270      -0.00235103      -0.01457129
O       10.74442261       2.37311374       6.32801272      -0.00904679       0.00199634       0.00415421
C       11.57525852       2.22534494       7.48181442      -0.00618245      -0.00836297       0.00053462
C       10.75666719       2.08103760       8.75067706      -0.00217366      -0.00726284       0.00340503
H       12.23982674       1.36325549       7.35233171      -0.01265088      -0.01236582      -0.00519537
H       12.19079267       3.12825504       7.50619260       0.00013335      -0.01263955       0.00147131
H       11.40875446       1.96345129       9.61840945       0.00037726      -0.01926113      -0.00020970
H       10.10927024       2.94760850       8.89496117       0.00703783      -0.00163470       0.01112746
H       10.13140213       1.18992866       8.70672780      -0.01150240      -0.00064313       0.00056283
H       10.15367796       1.60815951       6.31126818      -0.01144660       0.00329089       0.00041439
O        8.77655318       5.51086669       9.45871571      -0.01062170      -0.00897493       0.00246769
C        9.39971843       5.46415636      10.72190004       0.00087482      -0.00674361      -0.00332814
C       10.66221563       6.30325444      10.80744593       0.00091618      -0.00539398      -0.01695014
H        8.66339274       5.84093231      11.43586024       0.00711790      -0.00758013       0.00350901
H        9.60756695       4.42129577      11.01739060       0.00548433      -0.00620711      -0.00446533
H       11.06104066       6.28742649      11.82505649       0.01498097      -0.00854968      -0.02257666
H       11.43458186       5.93262384      10.12652361      -0.00858302      -0.00280467      -0.02905367
H       10.44825941       7.33829886      10.54388015      -0.00354557      -0.00471398      -0.01092072
H        9.39206443       5.23390112       8.75044419      -0.01405708      -0.00562908      -0.00241919
O       10.01351709       4.96070085       7.09910951      -0.00434172      -0.00018531       0.00694948
C        9.05378050       5.72708376       6.34396423       0.00380527       0.00294173      -0.00034425
C        9.72467830       6.90138303       5.67293253       0.01390019      -0.00443071      -0.00358154
H        8.55638914       5.06789781       5.62915421       0.00186148       0.00283498       0.00099340
H        8.29122068       6.08419701       7.04303793       0.00394920       0.01127525      -0.00454056
H        8.98473196       7.52824677       5.17473418       0.02029821      -0.00443968      -0.01316764
H       10.22934830       7.52361762       6.41151334       0.01158296      -0.00165838      -0.00418699
H       10.45667783       6.57003550       4.93400044       0.01757113      -0.01306250       0.00394863
H       10.06148523       4.06462916       6.72563843      -0.00222281       0.00042041       0.00568345
O        3.93851862       5.86167732       2.50439604      -0.01098737      -0.00386713       0.01726490
C        3.12156653       6.20821006       1.38841144      -0.00593561      -0.00861640       0.01177447
C        1.70774137       6.53529152       1.82770038      -0.00877899      -0.00740790       0.00163513
H        3.56732310       7.05153435       0.84623635      -0.00332697      -0.01089332       0.01038517
H        3.12267108       5.35413253       0.70852890      -0.00203378      -0.01144016       0.01533762
H        1.09554398       6.86493445       0.98577237      -0.00213684      -0.00977513      -0.00417627
H        1.23370628       5.66173261       2.27729724      -0.01262475      -0.00580771       0.00059650
H        1.72059431       7.32856503       2.57686140      -0.01449341      -0.00536521      -0.00040786
H        4.17813654       6.71582548       2.92971578      -0.00824381      -0.00145438       0.01079414
O        8.02683225       9.63415146      10.77746009       0.00611436       0.00543135      -0.00048378
C        6.61448625       9.36365969      10.42090065       0.00522554       0.00470981       0.00381983
C        6.42711093       7.88600035      10.22730022       0.00349394       0.00378662       0.01195597
H        6.00182545       9.76677439      11.22189652       0.00678721       0.00989206       0.00262284
H        6.43013282       9.92792560       9.50907688       0.00418730      -0.00016084       0.00113794
H        5.39559683       7.69793430       9.92285538       0.00235221       0.00315889       0.01593815
H        7.09710321       7.49483911       9.46266686       0.00095549      -0.00077027       0.01210839
H        6.60703175       7.34591739      11.15680254       0.00565042       0.00842582       0.01428156
H        8.43826891      10.17667868      10.06596615       0.00341007       0.00589544      -0.00194347
O        4.03981435       9.87460607       0.93720916      -0.00973266       0.00559169      -0.00547652
C        2.63236536       9.84840901       0.81328672      -0.00905666      -0.00131446      -0.00499544
C        1.94777869      11.22005546       0.72664884      -0.02520284      -0.00738251       0.02502038
H        2.39100604       9.29415105      -0.09559072      -0.00603962       0.01477581      -0.01561633
H        2.18468026       9.30583401       1.65275425      -0.00367069      -0.02188836      -0.01574928
H        0.94607343      11.12870643       0.30437696      -0.02429506      -0.01014740       0.02303359
H        1.84069074      11.54862415       1.78904481      -0.03344308      -0.02286270       0.02851617
H        2.54991601      11.90152903       0.10136122      -0.03583525       0.01147032       0.03180765
H        4.33626149      10.73010348       1.31092260      -0.00874202       0.00500345      -0.00351578
O        6.66416239       3.19640706      11.90064562       0.00741690       0.01908416       0.01742429
C        5.71093348       4.24622451      11.76984445      -0.00021747       0.00990790       0.01202804
C        5.47214177       4.52141922      10.30524969      -0.00257217       0.00139659       0.01053369
H        4.77558432       3.95978754      12.27014269       0.00194484       0.00551343       0.01353234
H        6.07155992       5.15383923      12.26770849      -0.00779217       0.01572317       0.00637180
H        4.75830199       5.33858101      10.18869685      -0.00646877      -0.00189963       0.00804205
H        6.40584339       4.80064517       9.81454587      -0.00433651       0.00361674       0.00898885
H        5.07361007       3.64175191       9.79895774       0.00063811      -0.00226879       0.01474233
H        6.78521785       3.03434664      12.84160640       0.01585643       0.03546662       0.02235131
O        3.30458213       6.73094407       8.26036904      -0.00538546       0.00125501       0.01523507
C        2.59660810       7.90817821       7.86890961      -0.00100715       0.00101918       0.00675317
C        3.27794393       9.17908914       8.33440198       0.00133297       0.00163370       0.00159791
H        2.45664972       7.92160841       6.78133020       0.00217298      -0.00466582       0.00625914
H        1.60679929       7.81259135       8.31742130      -0.00260410       0.00623320       0.00454435
H        2.68883631      10.05870043       8.06890079       0.00385775       0.00203647      -0.00327386
H        3.40857334       9.16991075       9.41777258      -0.00008024       0.00666483       0.00173068
H        4.26453587       9.29438054       7.87863326       0.00220612      -0.00311618       0.00221807
H        4.15792671       6.73663392       7.81600880      -0.00280674      -0.00200844       0.01964429
