139
Lattice="12.096929472078955 0.0 0.0 0.0 12.096929472078955 0.0 0.0 0.0 12.096929472078955" Properties=species:S:1:pos:R:3:forces:R:3 energy=-101148.3984375 stress="-0.0011329615954309702 -0.0002782028022920713 -0.00010200096221524291 -0.0002782028022920713 -0.00029901330708526075 1.0994077847215067e-05 -0.00010200096221524291 1.0994077847215067e-05 -0.000774167594499886" pbc="T T T"
Be      12.50741736      10.58138517      -0.43494145      -0.00721934      -0.00518805       0.00343454
Cl      11.20844838      10.68563427       6.25601105       0.01780475      -0.03697980       0.00487471
O       11.61929514       9.33466914       6.75371016       0.02524269      -0.01152444       0.00386882
O        9.86982695      10.98958099       6.82070842       0.00409770      -0.04147130       0.00588250
O       12.17370921      11.67270731       6.81513499       0.01290131      -0.00618863       0.02172410
Cl       4.57893960      11.34517157       7.38902621      -0.00659156      -0.01109648       0.00164032
O        4.22140990      12.38227510       8.40283721      -0.01523674      -0.01191139       0.00206983
O        5.26628150      12.01863217       6.26241237      -0.01682270      -0.00766611      -0.00020039
O        5.55488148      10.41596085       8.03970267      -0.00454473      -0.00917387      -0.00305772
O        8.52196743       7.41666464       6.90090189      -0.00955588      -0.00656408       0.00720564
C        6.61266858       6.79819071       5.63975556      -0.00142658      -0.00687818      -0.00590163
C        6.40370573       8.18255332       6.24470624      -0.00326908      -0.00542346      -0.00920825
C        7.76073666       6.27804535       6.49865493      -0.00525826      -0.00655107      -0.00013411
C        7.83374408       8.61369178       6.48956920      -0.00400841      -0.00730150      -0.00282826
H        5.73699881       6.15027798       5.67989977      -0.00203852      -0.00582521      -0.00927761
H        6.92537731       6.88322976       4.59441796       0.00326179      -0.00904454      -0.00466391
H        5.86101162       8.88929804       5.61952241       0.00082421      -0.00572839      -0.01241808
H        5.87193804       8.12054715       7.19491499      -0.00779602      -0.00299722      -0.01173386
H        7.38135331       5.76883849       7.39406304      -0.00925827      -0.00950426      -0.00330836
H        8.41022337       5.58086560       5.96696291      -0.00083423      -0.00450763       0.00227657
H        8.30194152       9.00227342       5.57689877       0.00171238      -0.01203336      -0.00163406
H        7.93774210       9.37456650       7.25748657      -0.00656830      -0.00419748      -0.00535744
O        1.89174992       7.09644953       5.35974555       0.00004663      -0.00754038      -0.00283104
C        3.13612901       6.54879204       7.25224083      -0.00346035       0.01574707       0.00415677
C        1.67076923       6.26247946       7.57602288      -0.00266802       0.01359135       0.00504714
C        2.97864790       7.58106664       6.15116990      -0.00643444       0.00695413      -0.00354898
C        1.01501340       6.32099645       6.19522093      -0.00308397       0.00341342       0.00441557
H        3.71374790       6.90662260       8.10403464      -0.00489627       0.02386507       0.00236262
H        3.61692678       5.65038156       6.85917062      -0.00001882       0.01601955       0.00956684
H        1.51091052       5.30565846       8.07193935       0.00062297       0.01438436       0.00968957
H        1.27232971       7.05425606       8.21254202      -0.00600728       0.01424077       0.00048047
H        2.73768383       8.56697941       6.57072936      -0.01505864       0.00797433      -0.01146078
H        3.84613578       7.67540102       5.49928304      -0.00519708       0.00782266      -0.00160027
H        0.93878509       5.32501048       5.75124355      -0.00802013       0.00113100       0.01249149
H        0.02862010       6.78962475       6.21494525      -0.00041217       0.00998583       0.00185454
O        1.00236282       2.83717624       2.51794424      -0.00116351       0.00234562      -0.00159775
C        2.06085082       4.67955995       1.49794037      -0.00505224       0.00397590      -0.00108129
C        3.13749479       3.68404145       1.92322609      -0.00236934       0.00792903       0.00093544
C        0.90985075       4.26388948       2.40025548      -0.00333405       0.00231317       0.00003901
C        2.32068139       2.41968276       2.13282191       0.00148970       0.00576076       0.00384830
H        2.34725156       5.72138884       1.63868431      -0.00778010       0.00494209      -0.00309199
H        1.79795105       4.53080208       0.44736822      -0.00525960       0.00144014      -0.00059032
H        3.93456111       3.53460494       1.19957467      -0.00159138       0.00883856       0.00148973
H        3.59459808       4.00021589       2.86355240      -0.00341115       0.01151821       0.00007576
H        1.01492957       4.72376666       3.39111265      -0.00248666       0.00198421      -0.00011748
H       -0.07746338       4.50990610       2.00570754      -0.00415513       0.00057787       0.00144102
H        2.24602486       1.84671539       1.19858493       0.00574660       0.00165029       0.00618050
H        2.73264784       1.76866845       2.90691329       0.00163564       0.01037198       0.00761461
O        1.34207859       9.07476638       1.57267216      -0.00172017       0.00085116       0.00222033
C        1.14844712      10.30042474       3.57714575       0.01059127      -0.00173968       0.00570899
C        1.33596004      11.28279708       2.42394737       0.00023308       0.00025082       0.00577678
C        1.70178692       9.01928575       2.99664368       0.00430992      -0.00185868       0.00056148
C        1.03232067      10.37994315       1.24149936      -0.00043558       0.00116032       0.00376701
H        1.64166960      10.61590822       4.49530513       0.01625754      -0.00427549       0.00167117
H        0.08587478      10.18368845       3.80035095       0.01025048      -0.00236863       0.01273108
H        0.70281518      12.16662024       2.47164442       0.00037913      -0.00254881       0.01194601
H        2.37358304      11.61495960       2.35455030       0.00113145       0.00272803       0.00657587
H        2.79277128       8.96296000       3.05863288       0.00677001       0.00053666      -0.00947748
H        1.26863545       8.11459283       3.40764920       0.00916784       0.00045124       0.00386927
H       -0.11125946      10.47433324       0.98936120      -0.00156009      -0.00115258       0.00477958
H        1.67998275      10.73619240       0.29707068      -0.00420785      -0.00036162      -0.00004980
O        6.59239175      10.03949916      11.46648447      -0.00949076      -0.00233646       0.01260830
C        4.66443947      11.35673041      11.36304405      -0.01018578      -0.00482181       0.01914999
C        4.28076555       9.95406557      10.88057341      -0.01160502      -0.00378605       0.01733992
C        6.16211242      11.36258313      11.10792007      -0.01100951      -0.00298321       0.01419093
C        5.54208762       9.12133168      11.15738717      -0.00537151      -0.00214875      -0.00228305
H        4.15879348      12.13509556      10.79491732      -0.01191185      -0.00315239       0.02255213
H        4.46804143      11.47844553      12.43305259      -0.00651859      -0.00659647       0.01958504
H        3.41061220       9.54075865      11.39465120      -0.00361982      -0.00876918       0.02670349
H        4.08527239       9.98539332       9.81152590      -0.02516011      -0.00091176       0.01997221
H        6.36498442      11.56063754      10.05066716      -0.01573781      -0.00258188       0.01350659
H        6.71683233      12.06061021      11.73795003      -0.00982219      -0.00355077       0.01299185
H        5.42515591       8.45853113      12.02097164       0.00192741      -0.01947930      -0.01516190
H        5.82036813       8.51642056      10.28850177      -0.00581601       0.01832539      -0.01598847
O        7.14074869       2.61276345       9.16276693       0.00604451       0.01454258       0.00003674
C        5.21286096       3.60384544       8.22279960      -0.00169945      -0.00904572      -0.00623964
C        4.87691290       3.10954662       9.62902065       0.00171608       0.00220971      -0.00163409
C        6.45812878       2.79193837       7.90305622       0.00137937      -0.00599101       0.00005129
C        6.26646679       2.96297348      10.23360839       0.00259370       0.00999430      -0.00101320
H        4.41526350       3.42021396       7.50428573      -0.00167435      -0.01807473      -0.00355996
H        5.43764531       4.67521454       8.23981948      -0.00503606      -0.00816169      -0.01572101
H        4.24546640       3.79196896      10.19960547       0.00137184       0.00585526      -0.00696737
H        4.38663494       2.13945852       9.55344472       0.00286469       0.00079149       0.00742827
H        6.19611372       1.81661269       7.48754374       0.00417706      -0.01273143       0.01288736
H        7.14464188       3.29054276       7.21570070      -0.00299323      -0.01205251      -0.00771841
H        6.60479776       3.91024404      10.67593603      -0.00164074       0.01148999      -0.00184609
H        6.32091411       2.19697153      11.00917375       0.00509134       0.01063055      -0.00067839
O       11.72626982      10.12673894      10.46247232      -0.00124121       0.00617683      -0.00625622
C       10.08152383       8.61706307       9.61341789      -0.00929667       0.01033461      -0.00626796
C        9.44523698       9.98238733       9.89686100      -0.00160569       0.01431818      -0.02501020
C       11.38061131       8.65285727      10.38205922       0.00150044       0.00559187      -0.02869994
C       10.60399632      10.92340533       9.79370634      -0.00787807       0.01664382       0.01787704
H        9.45959942       7.79021014       9.95459188       0.00011015       0.01590285      -0.02903232
H       10.27111793       8.50441848       8.54723180       0.00023177       0.02293787      -0.02644807
H        8.68877113      10.24400765       9.16054259       0.00231512       0.01754069      -0.00235674
H        8.98384832      10.01081232      10.88616427      -0.00441618       0.00335826      -0.00208706
H       11.29518868       8.31276014      11.41700840      -0.00663795      -0.00370866      -0.02025023
H       12.22781097       8.18389427       9.88947710      -0.00658345       0.01291792      -0.02096225
H       10.95604532      11.10199498       8.78289099      -0.00009137       0.02240073      -0.00411603
H       10.52866379      11.84853404      10.36354796       0.00025955       0.00024723       0.00714856
O        9.26039954       2.03702787       6.12348085       0.00170982      -0.01914310      -0.00414566
C       10.37525781       3.76379387       7.28017768       0.00408408      -0.01896244      -0.00669724
C       10.61192306       3.94580147       5.78022858       0.00111163      -0.01840761      -0.00637752
C        9.98202636       2.29224318       7.33909340       0.00580883      -0.01781720      -0.00533521
C        9.50831844       3.07466919       5.18811482      -0.00143021      -0.01449662      -0.00400633
H       11.25145122       3.99075384       7.88786526       0.00604592      -0.01972204      -0.00958090
H        9.55672452       4.40103904       7.62355375       0.00552478      -0.02013727      -0.00442811
H       10.56017330       4.98237331       5.44607916      -0.00169556      -0.01800945      -0.00465949
H       11.58947395       3.54458397       5.50293709       0.00019932      -0.01490235      -0.01036774
H       10.86499665       1.64448178       7.36701011       0.00600636      -0.01740712      -0.00945171
H        9.32474059       2.05036086       8.17523233       0.00778478      -0.01983009      -0.00388288
H        8.58383287       3.65343344       5.04483687      -0.00263906      -0.01587886       0.00415385
H        9.78083487       2.63976913       4.22107324      -0.00656450      -0.01271552      -0.00628805
O        7.21162297      12.15671805       3.28912823       0.01029770       0.01483697      -0.03397151
C        8.14147730      10.27586642       2.31752636       0.01738639      -0.00468805       0.01445770
C        6.74512434       9.86388789       2.79298686       0.00705004       0.00887567      -0.00314302
C        8.43585467      11.43417128       3.25919845       0.00847191       0.01195991      -0.00444141
C        6.14630140      11.19216850       3.30190009       0.01095588       0.01444137      -0.01314560
H        8.87129167       9.46647144       2.37167134       0.01301590      -0.00569551       0.04368685
H        8.08196128      10.63110101       1.28684044       0.03662389      -0.02289483       0.00739905
H        6.15333372       9.41643877       1.99504274       0.01626784       0.01431426      -0.01218721
H        6.82191445       9.14272892       3.60789688      -0.01141255       0.00773194      -0.00206408
H        8.70781140      11.08109929       4.26367757      -0.00217618       0.02994573       0.00393963
H        9.21467731      12.11557880       2.90943491       0.01402667       0.00553223      -0.00739525
H        5.36506381      11.57869917       2.64046677       0.00605917       0.00919758      -0.01062727
H        5.74059351      11.11567003       4.31406404       0.01889384       0.02402996      -0.00981396
O        6.34536948       3.60281357       1.27720289      -0.00248510       0.01157677       0.00773771
C        8.38273922       4.52839358       1.98673943       0.00362748       0.00398432       0.00152886
C        7.60749005       5.60708029       1.23131761       0.00860369       0.00253397      -0.00511792
C        7.72914973       3.26571174       1.44760117      -0.00452304       0.00417078       0.01154719
C        6.19834085       5.02566501       1.23974254       0.00530702       0.01210654       0.00503694
H        9.45784155       4.55698626       1.81449790       0.00362861      -0.00356916      -0.00023964
H        8.20556588       4.61648644       3.06085693       0.00616065       0.01284841       0.00115547
H        7.65094774       6.59271454       1.69425250       0.01721469       0.00638558      -0.01436116
H        7.98009875       5.69365770       0.20757583       0.00377358      -0.01142236      -0.00780988
H        8.16099000       2.99812768       0.47295594      -0.00631976      -0.00621239       0.01372856
H        7.78371334       2.40150718       2.11061942      -0.01018994       0.00898853       0.01781857
H        5.64561972       5.34471287       2.13174551       0.01270652       0.01887113       0.00710815
H        5.61116402       5.30263955       0.35878348       0.00228429       0.01309781       0.00740692
