139
Lattice="12.207898973721543 0.0 0.0 0.0 12.207898973721543 0.0 0.0 0.0 12.207898973721543" Properties=species:S:1:pos:R:3:forces:R:3 energy=-108197.3828125 stress="-0.0020937169902026653 0.0007913706649560481 2.7184760256204754e-06 0.0007913706649560481 -0.003517810022458434 0.00023175260866992176 2.7184760256204754e-06 0.00023175260866992176 -0.003318755654618144" pbc="T T T"
Be      13.41695879      11.94444155       0.23620263       0.03488358      -0.03183993       0.01147408
Cl       4.75017575      11.00522382       7.46562002      -0.01691693       0.00111580      -0.00819021
O        6.13865084      11.25611783       6.93945071      -0.01938939      -0.01833023      -0.02100921
O        4.33099165      11.92408998       8.57519517       0.01400167      -0.00408638       0.00950742
Cl       3.77422583      12.02147709       5.12751812      -0.01633930       0.01780367      -0.01239559
O        2.57893538      12.87426812       5.35979708      -0.02054632       0.01926547      -0.03153008
O        3.52505856      10.80763340       4.28810130      -0.00772883       0.01527989      -0.01149786
O        4.99372411       1.40310408       3.11695544       0.01344496       0.01641231      -0.00980508
N        3.40610274       2.35416109       1.78713630       0.00888215       0.00726338      -0.00954200
C        3.04671633       3.37598481       2.74912378       0.00233123       0.00396349      -0.00849241
C        2.80122578       2.41200684       0.47571919       0.01027294       0.00565044      -0.01029637
C        4.35437518       1.45384227       2.07006366       0.01283777       0.01283908      -0.00928438
H        1.96707003       3.51120990       2.74020781       0.00295371       0.00632810      -0.01836831
H        3.51137306       4.32821797       2.47093623       0.00762852       0.00367057       0.00037666
H        3.39312750       3.07507340       3.73414258      -0.00813398      -0.00109212      -0.00685865
H        1.74790914       2.11465305       0.51483745       0.01254237      -0.00330232      -0.01336013
H        3.33824283       1.76884612      -0.21687392       0.01592074       0.01148394      -0.01081672
H        2.83478388       3.43049707       0.08597050       0.00266225       0.00660914      -0.00741830
H        4.50852456       0.73225639       1.25054634       0.01879016       0.01518622      -0.00991172
O        0.73828314       8.98817337       6.34565282       0.01816317      -0.02919221      -0.00456405
N        0.52056736       9.20183526       4.07712729      -0.00788452      -0.01458040      -0.00072047
C        0.31125434      10.63151802       4.08280514      -0.01806365      -0.01615763       0.01241217
C        0.50175054       8.53958395       2.79802175      -0.01991474      -0.00447502      -0.00649646
C        0.68848578       8.51239122       5.22575283       0.00984734      -0.02262506      -0.01110792
H       -0.67958090      10.85761635       3.68110490      -0.02587017      -0.02007707       0.03046679
H        1.07471878      11.12123127       3.47332573      -0.03070411      -0.00644670       0.00477701
H        0.38139585      10.99799029       5.10337613      -0.00453015      -0.02392109       0.01434514
H       -0.44577703       8.72798795       2.28574075      -0.02946725      -0.01079060       0.00946695
H        0.61054343       7.46455965       2.93665201      -0.00589263      -0.00417000      -0.01649418
H        1.31718955       8.90504721       2.16334839      -0.03301880       0.00977685      -0.01471955
H        0.77479862       7.42545564       5.04325151       0.01767939      -0.01935649      -0.01862251
O        7.65777567       8.71700816      12.11140532      -0.00817609       0.00769900      -0.00280949
N        6.14324302       9.02477484      10.43015104      -0.00311453       0.00205275       0.00339273
C        7.08903916       9.67208866       9.54125737      -0.00862335      -0.00059934      -0.00099725
C        4.76841903       8.88290506       9.99725411       0.00619790      -0.01895616       0.00730026
C        6.52612812       8.63602652      11.65466258      -0.00409704       0.00446049       0.00248277
H        6.86915686      10.73719093       9.45145115      -0.01226445      -0.00346670      -0.00627883
H        7.02860170       9.23657542       8.54512260      -0.01135083      -0.00413851       0.00156453
H        8.08906763       9.53789752       9.94396100      -0.01400417       0.00274733      -0.00660974
H        4.28374267       9.85456280       9.90794060      -0.03576197       0.02903503       0.01194958
H        4.22936253       8.27562422      10.72140547      -0.00895947       0.00454943       0.01079915
H        4.73093496       8.38196611       9.02861627      -0.00839925      -0.00846243       0.00759375
H        5.68847466       8.20878932      12.23323244       0.00108844       0.00853057       0.00394630
O       11.45040431      11.47472052       8.16351194       0.03049153       0.00809142      -0.01356459
N       11.07281129      10.09237492       9.94605053       0.00545818      -0.00124735      -0.00729118
C       11.39683701       8.87688090       9.23386923       0.00188693      -0.00079388      -0.00657955
C       10.75248447       9.98286465      11.34527084       0.00069799      -0.00766503      -0.00253558
C       11.15275987      11.29624550       9.32455944       0.00902626      -0.00060475       0.03205347
H       10.54346590       8.19302444       9.24781283       0.00156409       0.00202632      -0.01011495
H       12.24430834       8.37779225       9.71177033       0.00195763      -0.00264587      -0.01252174
H       11.66744243       9.12024943       8.20980019       0.00082494       0.00505111      -0.00705320
H        9.85793967       9.37357367      11.50480461      -0.00105947      -0.00582042      -0.00849167
H       10.57392495      10.97981824      11.74821302       0.00229985      -0.00961122      -0.00018736
H       11.58376302       9.53709023      11.90476618      -0.00189129      -0.01280908      -0.00398381
H       10.90420167      12.12797029      10.01456596       0.01770012      -0.00432128       0.00669348
O       10.04462943       4.63474825       4.35699359       0.01019859       0.01269662       0.00263065
N        7.76689274       4.69506842       4.22455888       0.01029095       0.01038837       0.00546959
C        7.65872259       6.00584189       4.81766365       0.00827815       0.00937173       0.00701663
C        6.55043385       4.04973474       3.78993248       0.01116857       0.00926548       0.00571943
C        8.97842391       4.12211898       4.05225145       0.01030612       0.01215234       0.00376362
H        7.02452308       5.96733510       5.70638432       0.00585246       0.00768290       0.00489992
H        7.21163718       6.70519526       4.10644626       0.01056950       0.01059833       0.00717229
H        8.65438476       6.35813545       5.07364929       0.00721964       0.00909693       0.01029760
H        5.89367325       3.83274004       4.63291272       0.01157594       0.00899907       0.00559431
H        6.77745380       3.11720580       3.28016635       0.01192111       0.00971559       0.00594348
H        6.00674812       4.69632455       3.09666728       0.01053727       0.00834116       0.00577581
H        8.89924314       3.11877013       3.60673364       0.01106875       0.01247978       0.00318164
O        4.58166939       5.66636053       6.53238038       0.00782630       0.00431672       0.00899255
N        4.58603837       7.24338811       4.87824826      -0.01018022      -0.00102487       0.00459573
C        5.31203753       8.23305276       5.64257574      -0.01322503       0.00605129      -0.00240149
C        4.22798565       7.60400254       3.52645666      -0.01982508      -0.00670092       0.00610384
C        4.26020802       6.05237183       5.41828985       0.00024427      -0.00123513       0.00963378
H        4.73966687       9.15831811       5.64325699      -0.01346621       0.00561354      -0.01347902
H        6.29044056       8.43605059       5.20166161      -0.01207900       0.00276824      -0.00083162
H        5.44135284       7.85875848       6.65415846      -0.01623258       0.01614754       0.00132176
H        3.64515186       8.52655283       3.52106540      -0.02145486      -0.00791407       0.00699123
H        3.64690194       6.80230532       3.07421097      -0.02134150      -0.00897238       0.01300788
H        5.13070142       7.76900011       2.92829820      -0.02439049      -0.00699525      -0.00067392
H        3.65907142       5.43700133       4.72723240       0.00066665      -0.00681281       0.01467171
O        4.01045719       2.59855287       9.92223302      -0.00300479       0.01517904      -0.02072006
N        6.19469123       3.23957414      10.14013913      -0.00286511       0.00869082      -0.00875916
C        6.69320688       1.90492058      10.40479943      -0.00870532       0.00895080       0.00188417
C        7.15606237       4.31177032      10.02544109       0.00182915       0.00416014      -0.00843850
C        4.87816836       3.45204834       9.90621199       0.00044084       0.01213139      -0.02052977
H        7.26763724       1.90770800      11.33136279      -0.01566018       0.01201545       0.00582880
H        7.33889518       1.56525502       9.58926797      -0.00367719       0.00338770       0.00864562
H        5.84264986       1.22986798      10.46956186      -0.01087922       0.01167575      -0.00132875
H        7.82257040       4.30053603      10.88587118      -0.00245418       0.00499822      -0.00531855
H        6.62713814       5.26305762       9.98743259       0.00620301       0.00601186      -0.01498005
H        7.75612028       4.21971854       9.11933632       0.00610241      -0.00213163      -0.00464246
H        4.65984291       4.51439012       9.69617280       0.00593802       0.01069629      -0.03081067
O        8.25492554       3.26648284       0.78873371      -0.00577033      -0.00431406       0.00390723
N        8.38413928       5.51564883       1.19258410       0.00041416      -0.00377354      -0.00550131
C        7.00827949       5.77556239       0.84833897       0.00080401      -0.00198595      -0.00355256
C        9.23426149       6.61417762       1.61947407       0.00145219      -0.00372446      -0.00916803
C        8.87362070       4.26918124       1.13716074      -0.00279959      -0.00488710      -0.00277731
H        6.93643830       6.25370717      -0.12555373       0.00104933       0.00042157      -0.00214943
H        6.56732933       6.44562079       1.58801565       0.00220306      -0.00344703      -0.00187984
H        6.47084520       4.83024179       0.82223040       0.00021508      -0.00127083      -0.00514033
H        9.42585480       7.29708395       0.79219425      -0.00428582      -0.00298110      -0.00934538
H       10.16856668       6.20615539       1.99987424       0.00398710      -0.00252675      -0.01450127
H        8.75694203       7.18454165       2.41367814       0.00495879      -0.00523372      -0.00642195
H        9.91930708       4.24775228       1.45954018      -0.00111389      -0.00614571      -0.00852276
O       12.35192617       3.79998326       1.34333113       0.00537050      -0.00528467       0.01400736
N       11.20391090       1.97151505       2.09487076       0.00698884      -0.00629732       0.01406461
C       11.70468077       2.04644556       3.45640864       0.00654976      -0.00603873       0.01341382
C       10.29692883       0.89473185       1.76806860       0.01017474      -0.00778450       0.01126393
C       11.60204677       2.84922119       1.15928308       0.00670218      -0.00642586       0.01359600
H       12.56070616       1.38064263       3.59562862       0.01127559       0.00013614       0.01193215
H       10.90859326       1.74909335       4.13734261       0.00850943      -0.01363488       0.01208781
H       11.99350074       3.07029092       3.67267664      -0.00073429      -0.00478119       0.01614792
H       10.82298071      -0.06622791       1.75794471       0.01396810      -0.00569129       0.00241566
H        9.86109411       1.08318613       0.78945043       0.00471871      -0.00344545       0.01495764
H        9.49587252       0.84739697       2.50781763       0.01435560      -0.01539004       0.01484257
H       11.15598629       2.63534323       0.17094167       0.00864637      -0.00749563       0.01398569
O        8.44957652       1.04494986       4.73643037       0.00767970      -0.00057536      -0.00537127
N        7.15434742       2.12105470       6.28749185       0.01051181      -0.00376186      -0.00161615
C        8.24915335       2.83797656       6.89358141       0.01185663      -0.00795734       0.00042406
C        5.82345763       2.33161079       6.82187905       0.01086272      -0.00276123      -0.00135192
C        7.36802141       1.26398027       5.27048275       0.00736034      -0.00025046      -0.00407141
H        8.38971873       2.52377134       7.92939828       0.01038407      -0.01001106      -0.00044659
H        8.04714863       3.91121046       6.88052825       0.01539090      -0.00760752       0.00158811
H        9.15753312       2.64184395       6.33240241       0.01142105      -0.01032537       0.00055900
H        5.67335824       1.81786283       7.77149988       0.00748339      -0.00969306      -0.00595620
H        5.08943131       1.95317075       6.11297961       0.01087102       0.00602944      -0.00580408
H        5.63529286       3.40045348       6.95249156       0.01522741      -0.00338292       0.00672268
H        6.44015047       0.78571998       4.94027448       0.00714082       0.00266036      -0.00500029
O        9.00935424       9.33164141       3.29014264      -0.01009294      -0.00610566       0.00252354
N        7.68457372      10.81096980       2.16018309      -0.00675815       0.00231521       0.00793123
C        6.61009033      10.76600926       3.12569860      -0.00580546       0.00285603       0.00791314
C        7.45607659      11.57706156       0.95942389      -0.00384141       0.00750577       0.01079025
C        8.78448526      10.05955258       2.33357531      -0.00865459      -0.00015283       0.00261557
H        5.82225153      10.08079114       2.79681301      -0.00354040      -0.00166011       0.01237512
H        6.17351031      11.75781205       3.22258876      -0.00924435       0.00167659       0.00240231
H        7.00370750      10.43301022       4.08164042      -0.00530176       0.00958976       0.00986594
H        6.53628218      11.24812946       0.46652087      -0.00506139       0.01251750       0.00999971
H        8.27636726      11.41919977       0.26198492      -0.00493833       0.00712364       0.01039657
H        7.36757482      12.64212385       1.18805777       0.00000459       0.00676879       0.01487780
H        9.49676432      10.17080893       1.49964843      -0.00932449       0.00010078       0.00466168
