140
Lattice="12.764260207920836 0.0 0.0 0.0 12.764260207920836 0.0 0.0 0.0 12.764260207920836" Properties=species:S:1:pos:R:3:forces:R:3 energy=-61798.234375 stress="-0.0007270987844094634 -9.050077778738341e-06 -0.00026586593594402075 -9.050077778738341e-06 -0.0005317956674844027 -0.00018640559574123472 -0.00026586593594402075 -0.00018640559574123472 -0.00017739667964633554" pbc="T T T"
Be      13.49474724      12.45211952       1.85347072      -0.00243357       0.00856561      -0.01240210
O        1.30602448      12.13906457       0.57838921      -0.03094593      -0.02039053       0.03194249
H        2.18153353      12.38349392       0.29172720       0.01271185       0.01661793      -0.00151842
O        0.09141649      12.71670379       3.10139447      -0.02377558       0.04359569      -0.00258157
H       -0.34447858      13.56076494       3.26847036      -0.01096725       0.03852887      -0.02043739
O        8.03534654      10.65600703       9.80690096      -0.00533035       0.00123405       0.01011117
C        9.18851214      10.91024112      10.58858574      -0.00108004       0.00018299       0.00399235
C        7.36245038      11.83955485       9.43822566      -0.00013828       0.00233599       0.00390425
C        9.86443591       9.59843451      10.89819203      -0.00652054      -0.00143844       0.00801187
C        6.27669939      11.48228867       8.45399110      -0.00300956       0.00175914       0.00747877
H        9.86589098      11.57675809      10.03275004      -0.00007939      -0.00643295      -0.00245565
H        8.90076649      11.43028275      11.51348926       0.00534183       0.00653264       0.00233197
H        6.94392715      12.33223529      10.33091058       0.00333638       0.00949992       0.00145042
H        8.07377388      12.54775026       8.98504813       0.00261146      -0.00385505      -0.00071891
H       10.78117155       9.77165696      11.46334565      -0.00270131      -0.00292585       0.00274110
H        9.20895904       8.96341518      11.49422374      -0.00644714       0.00549543       0.01497141
H       10.10502579       9.07575390       9.97320779      -0.01323066      -0.00741071       0.00991276
H        5.72473649      12.37262986       8.14970163       0.00065425       0.00266011       0.00313952
H        6.71489632      11.02243462       7.56948853      -0.00629191      -0.00517924       0.00945657
H        5.57683045      10.77069562       8.89269902      -0.00553195       0.00768487       0.01252192
O        9.14422796       8.26035340       7.72571396       0.00248685       0.00400403       0.00284240
C        8.44993235       7.04350146       7.51510189       0.00268045       0.00374261       0.00349870
C        9.95109757       8.62313553       6.62545547       0.00241449       0.00377291       0.00289828
C        7.52808937       6.80484447       8.68639602       0.00429559       0.00408142       0.00482821
C       10.60796714       9.94931237       6.92028159       0.00291897       0.00344211       0.00388320
H        7.87881213       7.09108321       6.57847698       0.00174567       0.00356525       0.00408232
H        9.17077288       6.21627532       7.41080493       0.00281522       0.00409073       0.00291085
H       10.70828229       7.84450312       6.43828332       0.00197607       0.00376639       0.00261230
H        9.33134345       8.69386897       5.71888931       0.00231364       0.00454265       0.00299546
H        6.97073216       5.87779039       8.54055132       0.00393777       0.00422277       0.00592297
H        8.09321261       6.73009358       9.61564890       0.00577654       0.00410764       0.00385037
H        6.82118553       7.62897714       8.78492791       0.00481121       0.00425448       0.00579948
H       11.20666310      10.27457822       6.06867255       0.00371208       0.00374732       0.00435495
H        9.84808991      10.70452305       7.12515221       0.00322138       0.00369798       0.00359535
H       11.25703383       9.87313565       7.79285457       0.00205161       0.00245927       0.00426893
O        7.68399104      10.49544123       1.18284975      -0.00006649       0.00038171      -0.00032926
C        8.16343289      11.79349408       1.48559140      -0.00062501      -0.00099269       0.00481957
C        6.31178610      10.50675714       0.83403022       0.00106141       0.00267994      -0.00609343
C        9.64436910      11.72597289       1.75924816      -0.00163865      -0.00235640       0.01019087
C        5.86706264       9.09235033       0.55993730       0.00082477       0.00395858      -0.01175227
H        7.95008776      12.47050503       0.64269645       0.00313328       0.00146452       0.00590798
H        7.62359500      12.19242220       2.35815511      -0.00347787      -0.00283121       0.00381717
H        5.72310487      10.94945007       1.65227756      -0.00167699       0.00102991      -0.00748736
H        6.16088979      11.13844959      -0.05471432       0.00573184       0.00501826      -0.00494137
H       10.02709290      12.71025429       2.03040354      -0.00203173      -0.00381468       0.01538464
H        9.85536924      11.04655387       2.58510094      -0.00522174      -0.00534473       0.00855134
H       10.18573779      11.37503798       0.87931208       0.00161079       0.00052264       0.01113348
H        4.80405736       9.06985289       0.31657420       0.00204545       0.00612112      -0.01686569
H        6.42637263       8.67305042      -0.27652091       0.00414936       0.00553510      -0.01033978
H        6.03202071       8.46683464       1.43781131      -0.00417145       0.00138552      -0.01269627
O        3.73721567       9.31705909       5.22919700      -0.00277184       0.00039744       0.00015160
C        4.50167423       9.89406939       4.18938914      -0.00295210      -0.00007483      -0.00044927
C        2.64269066       8.56372603       4.73810874      -0.00583190       0.00473645       0.00108284
C        5.70143390      10.57486181       4.80167024      -0.00051498      -0.00358224      -0.00139007
C        1.91223644       7.95669950       5.91081074      -0.00586569       0.00557704       0.00127852
H        4.81874002       9.11269195       3.48276400      -0.00578162      -0.00004107      -0.00172207
H        3.88195273      10.60654360       3.62230816      -0.00228941       0.00169969       0.00133310
H        1.97474982       9.20996254       4.14974781      -0.00472331       0.00779089       0.00310101
H        3.01364318       7.77934603       4.06086437      -0.00975500       0.00448039      -0.00077692
H        6.34545343      10.99148241       4.02552397      -0.00027253      -0.00521753      -0.00202574
H        5.38978186      11.37957273       5.46786741       0.00247422      -0.00284503      -0.00087059
H        6.28346328       9.85864060       5.38348178      -0.00187873      -0.00518614      -0.00225870
H        1.10725945       7.30881170       5.56077957      -0.01000533       0.01062195       0.00185825
H        2.59670210       7.36189706       6.51651103      -0.00744504       0.00066282      -0.00182968
H        1.48165551       8.73384014       6.54189931      -0.00028536       0.00618395       0.00431177
O       11.65984558       2.66466008       3.26145213      -0.00249879      -0.00013328       0.00061956
C       11.53581555       3.50054414       2.11700219      -0.00197494       0.00016621       0.00025001
C       11.70712071       3.41853092       4.46819001       0.00140709      -0.00233099       0.00233716
C       11.47588140       2.64932366       0.87406436       0.00052252      -0.00071394       0.00083849
C       11.80697728       2.46978055       5.63546272       0.00749307      -0.00539991      -0.00085121
H       10.62848494       4.11110660       2.21310515      -0.00279522      -0.00162236      -0.00027086
H       12.38432077       4.19512608       2.07677201      -0.00253567       0.00059626       0.00153438
H       12.56810984       4.10049534       4.44010552       0.00067759      -0.00181451      -0.00009853
H       10.80514705       4.04116023       4.53892379       0.00090513      -0.00419800       0.00691953
H       11.41078080       3.28621666      -0.00878960      -0.00511628      -0.00130151       0.00092101
H       12.36718816       2.02885131       0.77348330       0.00408286       0.00452975      -0.00097185
H       10.60265409       1.99610534       0.89268836       0.00492112      -0.00622377       0.00292258
H       11.83040484       3.03100737       6.57021014       0.01293189      -0.00772798       0.00050128
H       10.94949357       1.79632244       5.65855067       0.00838809      -0.00627548       0.00148255
H       12.71237216       1.86556145       5.57074040       0.00719962      -0.00491001      -0.00729604
O        7.17353022       3.14303335       3.85721137       0.00406498      -0.00530785      -0.00005148
C        8.00107053       2.56309169       4.84519407       0.00120319      -0.01088487      -0.00128603
C        7.61236915       2.87467556       2.54168789       0.00197594      -0.00614402      -0.00052553
C        7.55882157       3.06744331       6.19782405       0.00450574      -0.00992587      -0.00076932
C        6.77653020       3.68695728       1.58293672       0.00387606      -0.00326809       0.00045019
H        7.94527872       1.46366623       4.79206219      -0.00462076      -0.01043808      -0.00244274
H        9.04462562       2.84102022       4.65049334       0.00284499      -0.01650420      -0.00151586
H        8.67845963       3.13031920       2.45085154       0.00276637      -0.00947291      -0.00111814
H        7.52252455       1.79946743       2.32599699      -0.00148959      -0.00563747      -0.00082219
H        8.20882272       2.67544876       6.98132201       0.00330021      -0.01297496      -0.00138758
H        7.59362769       4.15690164       6.21322322       0.00884308      -0.01012012      -0.00003227
H        6.53518015       2.75762421       6.41137924       0.00337599      -0.00578246      -0.00027328
H        7.06090026       3.46999055       0.55199048       0.00367748      -0.00245361       0.00032669
H        5.71917971       3.45808650       1.71552914       0.00342134      -0.00132448      -0.00018073
H        6.91881465       4.75331567       1.76676930       0.00602046      -0.00385201       0.00202206
O        3.50523912       3.88687623      10.78205901       0.00044405      -0.00159723      -0.00143544
C        3.85848955       2.51750522      10.80522019      -0.00080553      -0.00216317       0.00173983
C        4.47974059       4.69641999      11.41335712       0.00138801      -0.00104696      -0.00427887
C        2.78256263       1.72779870      10.10153247      -0.00172952      -0.00246426       0.00347976
C        4.04661848       6.13840284      11.32514156       0.00212163      -0.00099850      -0.00705092
H        4.83212833       2.37897122      10.30943520      -0.00141546      -0.00412684       0.00136492
H        3.97525908       2.18391467      11.84904022      -0.00044982       0.00062446       0.00241357
H        4.59739710       4.38387840      12.46102192       0.00223508       0.00118592      -0.00376421
H        5.45577126       4.55489462      10.92375461       0.00091723      -0.00259423      -0.00482318
H        3.04300484       0.66848782      10.07616384      -0.00309478      -0.00279421       0.00662732
H        1.82706601       1.83552949      10.61536512      -0.00144050      -0.00004704       0.00342950
H        2.66416063       2.07911870       9.07591283      -0.00221786      -0.00459297       0.00281048
H        4.76867617       6.77794642      11.83293685       0.00279075      -0.00011066      -0.00932390
H        3.97337363       6.45574258      10.28477961       0.00125966      -0.00339734      -0.00768009
H        3.07135956       6.27583402      11.79390476       0.00271562       0.00048719      -0.00648917
O        3.51169049       3.03650503       2.66330335       0.00062063      -0.00322869      -0.00678811
C        3.33456270       1.71438976       3.13721929       0.00002205      -0.00268936      -0.00513027
C        2.27437643       3.71576980       2.57609352       0.00177821      -0.00175852      -0.00603044
C        4.66808342       1.01638140       3.17034723      -0.00037268      -0.00342315      -0.00567798
C        2.51595139       5.13569791       2.13045209       0.00359228      -0.00177637      -0.00496092
H        2.87332239       1.73540188       4.13526103       0.00112197      -0.00087574      -0.00459665
H        2.63018201       1.18603663       2.47791461      -0.00099850      -0.00293180      -0.00340751
H        1.61902634       3.18739364       1.86855332       0.00068673      -0.00021622      -0.00618029
H        1.77796714       3.69193478       3.55746222       0.00188290      -0.00172312      -0.00587884
H        4.54666894       0.00826033       3.56355968      -0.00022349      -0.00262928      -0.00383874
H        5.09223288       0.94873939       2.16662022      -0.00192000      -0.00561842      -0.00607869
H        5.37044797       1.56346264       3.79940028       0.00066410      -0.00281794      -0.00746337
H        1.57458807       5.68480068       2.07547867       0.00448170      -0.00033758      -0.00431423
H        3.17160589       5.64687078       2.83436965       0.00455095      -0.00335217      -0.00479789
H        2.98233807       5.15541992       1.14663538       0.00332588      -0.00161282      -0.00507069
O        6.95191857       6.14351686       4.51345093       0.00088201       0.00145802      -0.00145763
C        5.56774461       6.44261186       4.52803769       0.00078493       0.00090897       0.00030500
C        7.69853188       7.03354947       3.71225714      -0.00073928       0.00178768      -0.00259848
C        4.83807942       5.35034510       5.27189050       0.00216760      -0.00040561      -0.00049943
C        9.11722344       6.52434717       3.64134595      -0.00063372       0.00247128      -0.00475726
H        5.39593174       7.41873062       5.00249139       0.00070573       0.00017375       0.00158340
H        5.20435627       6.50796784       3.49029681      -0.00027752       0.00214777       0.00079113
H        7.26270595       7.08384981       2.70391301      -0.00237265       0.00155318      -0.00186867
H        7.65916697       8.05294053       4.12741069      -0.00047538       0.00169700      -0.00268343
H        3.76696332       5.55792993       5.28359912       0.00211090      -0.00077673       0.00102553
H        5.00613764       4.38812236       4.78983133       0.00204758       0.00036117      -0.00198892
H        5.18250369       5.29511796       6.30530325       0.00340970      -0.00178877      -0.00106962
H        9.74006273       7.19835852       3.05230412      -0.00256866       0.00154941      -0.00775550
H        9.54396197       6.44010504       4.64105465       0.00181857       0.00487678      -0.00568959
H        9.12879612       5.53664514       3.17911838      -0.00124279       0.00154400      -0.00266342
