142
Lattice="13.24460378645886 0.0 0.0 0.0 13.24460378645886 0.0 0.0 0.0 13.24460378645886" Properties=species:S:1:pos:R:3:forces:R:3 energy=-997001.125 stress="-0.00031854689586907625 0.00040745525620877743 1.0124438404091052e-05 0.00040745525620877743 -9.689338185125962e-06 -1.3411636246019043e-05 1.0124438404091052e-05 -1.3411636246019043e-05 -0.0005327127873897552" pbc="T T T"
Bk      12.87004558      12.59996111       0.76509920      -0.00407338      -0.01997048       0.01804963
O        1.50554115      13.10894994       0.04272606      -0.01358131      -0.00838520       0.01665495
H        2.37167125      13.03330566       0.44602880       0.01245183       0.03037250      -0.03427564
O        0.50314059      11.95250929       2.53269538      -0.00267929      -0.02076413       0.01391000
H        1.39380328      11.61068046       2.40723674      -0.00121001      -0.00604061      -0.00951098
O       11.43143706      12.81887847      12.43970897      -0.00833300      -0.00336808       0.02543217
H       11.28502448      12.16791328      11.74909404       0.00984433       0.02185580      -0.00175482
C        6.94785888       3.41370686       7.51348405      -0.00220153       0.00052724      -0.00269680
C        7.48774860       4.32614019       8.41985936       0.00126687       0.00248253      -0.02046819
C        6.07271164       2.43876568       7.99591086       0.00079784      -0.00107937      -0.01864400
C        7.30876198       3.46238769       6.05852937      -0.00278621      -0.00094037      -0.00807378
C        7.16667586       4.26514166       9.76977867      -0.00912156      -0.00173316       0.00561722
C        5.75250712       2.37229200       9.34534338      -0.00135944       0.00620545       0.01001345
C        6.30106046       3.28566215      10.23716104       0.00162426       0.00427884      -0.02649629
H        8.16055418       5.09747760       8.06000064      -0.00394786      -0.00034813      -0.00835573
H        5.63390999       1.73087355       7.30087065       0.00123192       0.00035657      -0.00357679
H        6.45458290       3.20770008       5.42830288      -0.00318635      -0.00142176      -0.00688416
H        7.66680838       4.44951801       5.76530430      -0.00333554      -0.00092459      -0.00860947
H        8.10767610       2.75332754       5.83238309      -0.00283027      -0.00090851      -0.00839320
H        7.59827996       4.97834367      10.46127592      -0.00284063       0.00442266      -0.01093373
H        5.06714491       1.61398055       9.70437774      -0.00101845       0.00219414      -0.00659291
H        6.04483920       3.23966163      11.28566201      -0.00543669       0.00569659      -0.00013083
C       10.04941441       8.75536438       8.62471906      -0.01402768      -0.00426344       0.01241116
C        9.19920774       7.86556110       9.28347239       0.03084285      -0.00400671      -0.01056567
C        9.63750857      10.08188251       8.48135376       0.03031659      -0.00148556      -0.00915994
C       11.35602780       8.29223690       8.05073388       0.00460631       0.00112283       0.00331463
C        7.96328336       8.28389847       9.76418096      -0.02781599       0.00791661       0.01459772
C        8.40618510      10.50485028       8.96416271      -0.03272773      -0.00312804       0.02181879
C        7.56034604       9.60473672       9.60341977       0.03180833      -0.00108790      -0.01027966
H        9.51492832       6.83661972       9.42104064      -0.00085065       0.00248167       0.00223089
H       10.29338386      10.78871181       7.98380721      -0.00334761      -0.00441420       0.00880367
H       12.12979101       9.05348935       8.15522939       0.00327200      -0.00231385       0.01064167
H       11.69737313       7.37782081       8.53422343      -0.00108726      -0.00291002      -0.00007178
H       11.25782930       8.07885762       6.98276923       0.00495622       0.00699759       0.00289747
H        7.31140187       7.57568190      10.26210444       0.00645400       0.00161573      -0.00030110
H        8.10484341      11.53823465       8.84388840       0.00451479      -0.00139873       0.00492894
H        6.59757118       9.93219947       9.97407513      -0.00798180       0.00181078       0.00835849
C        3.01521203       9.47500631       3.70160240      -0.00575260      -0.00134528       0.00969911
C        3.86834951      10.50808393       3.31020488      -0.00468384       0.00971006      -0.02914330
C        2.26768004       8.82568547       2.71917964       0.00344688       0.00405274      -0.02813552
C        2.90049244       9.08951201       5.14609087      -0.00905507       0.00787239      -0.00256932
C        3.96299301      10.88845859       1.97655791      -0.00300033      -0.00608166       0.02662618
C        2.36914360       9.19384008       1.38215750      -0.00061698      -0.01901343       0.02436545
C        3.21241474      10.23209396       1.00579311       0.00376408       0.00138297      -0.02747624
H        4.47146283      11.00842920       4.05862852      -0.00571182       0.00706496       0.00145233
H        1.59286814       8.02612123       3.00359196      -0.00131334      -0.00739343       0.00045139
H        2.52894457       8.07065053       5.25662630      -0.01282402       0.00879307       0.00109901
H        3.86630391       9.15995380       5.64708540      -0.00963700       0.00514257       0.00021614
H        2.20593598       9.75023015       5.67083989      -0.00734906       0.01154254      -0.00501567
H        4.63565073      11.68982930       1.69395260      -0.00311869       0.00303824      -0.00630273
H        1.78936824       8.66593493       0.63538302       0.00806448      -0.01309775      -0.00741135
H        3.27751504      10.53379946      -0.03185353       0.00273662      -0.01068151       0.00477900
C       11.13738920       4.97973467       4.17257373       0.00297482      -0.00017130       0.00311145
C       11.55687621       4.38184570       2.98345159       0.00422725       0.00963598      -0.00517178
C       10.99669539       6.36719330       4.19929203       0.00695231       0.01091370      -0.00739387
C       10.87433478       4.15666360       5.39933269       0.00244064       0.00548305       0.00074980
C       11.85623649       5.14719724       1.86300864       0.00250501      -0.00710978       0.00743838
C       11.29457384       7.13785230       3.08254872       0.00413245      -0.00287235       0.00733486
C       11.73245967       6.53071959       1.91117782       0.00709050       0.00877793      -0.00594546
H       11.64214426       3.30317330       2.93331213       0.00104440       0.00064272       0.00203035
H       10.62943107       6.84521498       5.09970953       0.00529918       0.00568449       0.00072116
H       10.11041972       4.61038929       6.03016774       0.00250702       0.00550371       0.00065397
H       10.55661126       3.14578223       5.14171612       0.00150424       0.00496431       0.00107665
H       11.77851068       4.06798977       6.00912982       0.00213137       0.00433806       0.00099848
H       12.18157827       4.66086269       0.95160012       0.00367662       0.00088706       0.00035626
H       11.17349968       8.21275429       3.12528340       0.00729591       0.00519477      -0.00195881
H       11.96665344       7.13181775       1.04088148       0.00606088      -0.00084045       0.00188883
C        9.06627798       1.19671106       2.45613975       0.01475829      -0.00783248      -0.00238000
C        8.63017822       0.93678256       3.75389038      -0.01786213      -0.00457830      -0.00878960
C       10.40080416       0.92926693       2.13538424      -0.01023902       0.00613580      -0.00397581
C        8.13546720       1.79910032       1.44794010       0.00490212      -0.00869970      -0.00595757
C        9.49640253       0.43390398       4.71841161       0.01894552      -0.01698818       0.00233963
C       11.26932474       0.44605999       3.10320348       0.01684424      -0.00667597       0.01620905
C       10.82422414       0.19350116       4.39617414      -0.02262720       0.00069779      -0.00168546
H        7.59711118       1.14168189       4.01134228       0.00150606      -0.01646501      -0.00983810
H       10.74385367       1.11543267       1.11890012       0.00869763       0.00326946       0.00758696
H        8.31494406       1.39807690       0.45237004       0.01268148      -0.01067224      -0.00483471
H        7.09560555       1.61707870       1.71688853       0.00616063      -0.01057528      -0.01181081
H        8.27862349       2.88232589       1.39845908       0.00459056      -0.00868565      -0.00851966
H        9.13609515       0.24406697       5.72268110      -0.00918422      -0.01289312      -0.00337063
H       12.32713590       0.28138660       2.91235649       0.00054144       0.00528035       0.00963510
H       11.51697017      -0.18532191       5.13580543      -0.00064115      -0.00813134       0.00990076
C        2.66010025       3.71856630      11.39441846      -0.00255033      -0.00035496      -0.00082924
C        2.59668524       4.90800469      10.66233534       0.00198275      -0.00360201      -0.00363451
C        3.55419855       3.65428721      12.46115079      -0.00503904       0.00536734       0.00614053
C        1.80465994       2.54327388      11.02897482      -0.00097129      -0.00119403       0.00211061
C        3.40434836       5.99116183      10.97959491      -0.00355191      -0.00241147      -0.00691567
C        4.37432628       4.73225898      12.77454114      -0.01099743       0.00656034       0.00342399
C        4.30434459       5.90538938      12.03704394      -0.00636294       0.00363933       0.00078420
H        1.90328385       4.97929309       9.83141040       0.00407095      -0.00855611      -0.00860012
H        3.60837071       2.74415537      13.04814405      -0.00849926       0.00773638       0.00980400
H        1.90448711       1.72925928      11.74534909       0.00334812      -0.00222674      -0.00046352
H        0.75093390       2.82224979      10.97848447      -0.00182617      -0.00252759       0.00860758
H        2.07872414       2.16251641      10.04107618      -0.00693574       0.00125279      -0.00035319
H        3.33583702       6.90411755      10.40026819       0.00009915      -0.00464967      -0.00973663
H        5.07711851       4.64875733      13.59270338      -0.01436503       0.01184906       0.00985640
H        4.94328314       6.74450059      12.28342681      -0.01046464       0.00544875      -0.00078336
C        2.07784645       3.00161346       4.02040267      -0.00369306      -0.01221220       0.00924211
C        3.14915850       2.31736957       3.44676942       0.02326994       0.00275642       0.00284623
C        2.10959277       4.39714509       4.03188892       0.01478018      -0.00133792      -0.00197014
C        0.93950372       2.24908538       4.64040987       0.00474453      -0.01224732       0.00129604
C        4.24384538       3.00571136       2.93837374      -0.00780214      -0.01441173       0.02099170
C        3.20185324       5.08743654       3.52109101      -0.01910629      -0.01276462       0.01800577
C        4.28109875       4.39342076       2.98941047       0.01749729       0.00460909       0.00694980
H        3.11606861       1.23435938       3.40046328       0.01097893      -0.00927646       0.01087928
H        1.26507070       4.94507116       4.43618095      -0.00685521      -0.01048762       0.00345828
H        0.00463175       2.79931959       4.55063336       0.00103982      -0.01873678      -0.00787715
H        0.81594028       1.26766372       4.18258512       0.01321011      -0.01550815       0.00596908
H        1.12195545       2.08970307       5.70726436      -0.00342865      -0.00518383       0.00365978
H        5.06633298       2.45933182       2.49257938       0.01424760      -0.00093012       0.01677252
H        3.20641326       6.17084912       3.52482934      -0.00315378      -0.00368430       0.00920137
H        5.13887119       4.93155541       2.60635419      -0.00175454      -0.00306513       0.01917427
C        6.48592135       7.56202431       5.35063867      -0.00695013       0.00427452       0.00514297
C        6.23341122       7.61676429       3.97927641       0.00371748       0.01151695      -0.00424884
C        7.60241630       8.24121722       5.84372122       0.00247920       0.01336223      -0.00487152
C        5.58725577       6.79056670       6.27234721      -0.00257277       0.00699931       0.00202748
C        7.07147291       8.32019363       3.12282776      -0.01197282      -0.00132982       0.00765337
C        8.43970531       8.95014564       4.99066640      -0.01026984       0.00173282       0.01032543
C        8.17848801       8.99115618       3.62613581       0.00251128       0.01151168      -0.00465079
H        5.35997552       7.11519809       3.58063481      -0.00484177       0.00410489       0.00190094
H        7.80819534       8.22407387       6.90778411      -0.00441471       0.00851605       0.00393760
H        5.53575138       7.25546285       7.25783128      -0.00503978       0.00826499       0.00166321
H        4.57909592       6.70895502       5.86830327      -0.00263214       0.00419745       0.00166455
H        5.95041736       5.77285348       6.42365149      -0.00103900       0.00788710       0.00439619
H        6.85037024       8.35458134       2.06306428      -0.00296538       0.00492114       0.00030085
H        9.29331644       9.48104634       5.39658647      -0.00312976       0.00882178       0.00118147
H        8.82896603       9.54485813       2.96078873      -0.00620404       0.00426699       0.00347928
C       10.15745219       2.77424115      10.78984566      -0.00550340       0.00204979       0.00341119
C       11.05313152       2.82457786       9.72131510       0.01288525       0.01310106      -0.01744303
C       10.13879894       3.84798025      11.68143562       0.01292053       0.00304903      -0.01343566
C        9.25764582       1.59175062      10.97474537       0.00664949      -0.00121936      -0.01043515
C       11.90479725       3.90761161       9.54804764      -0.01122291       0.00116727       0.00250208
C       10.98557539       4.93752738      11.51076932      -0.01290484      -0.00587744       0.01053509
C       11.87646075       4.97027147      10.44503052       0.01125063       0.00782201      -0.01342314
H       11.08016044       1.99860538       9.02007990       0.00000484       0.00894142      -0.01139888
H        9.44347219       3.83596107      12.51345996       0.00059097      -0.00462949       0.00021240
H        8.37096725       1.86216868      11.54497993       0.00012526      -0.00227360      -0.01459798
H        8.92225801       1.20111728      10.01311081       0.01263038      -0.00445107      -0.00927091
H        9.78741872       0.79514778      11.50639342       0.00369918       0.00279033      -0.00248004
H       12.60039427       3.91670283       8.71748978       0.00112752       0.01193149      -0.00996162
H       10.94499723       5.76301564      12.21096697       0.00149074      -0.00248533      -0.00009856
H       12.55030485       5.80918873      10.32357652      -0.00440533       0.00253645       0.00103307
