144
Lattice="12.497455557489586 0.0 0.0 0.0 12.497455557489586 0.0 0.0 0.0 12.497455557489586" Properties=species:S:1:pos:R:3:forces:R:3 energy=-1143639.25 stress="-0.0010593662736937404 0.0005781522486358881 0.0011792811565101147 0.0005781522486358881 -0.0012334181228652596 -0.00036180477763991803 0.0011792811565101147 -0.00036180477763991803 -7.132886094041169e-05" pbc="T T T"
Bk      11.95355203      12.33032553      -0.00057709      -0.00095414      -0.00145212       0.00094992
O        9.90321676      11.53963326       3.30024512       0.00253606       0.00042900       0.00089055
O       12.11730121      12.43538146       2.24534937       0.00172983       0.00108042       0.00104947
O       12.20003313      10.62457786       4.14266832       0.00228351       0.00176716       0.00218099
O       11.44473148      13.06786934       4.73288416       0.00087920       0.00160682      -0.00003409
Mn      11.37926744      11.89705553       3.66430700       0.00191182       0.00149819       0.00058192
O        7.67673754      11.61861279       5.49024370       0.00627148       0.00522685      -0.00617719
O        9.81917234      10.13515012       5.73705266      -0.00357318      -0.00859880      -0.01032698
O        7.46908474       9.19028916       6.41863337      -0.00866985       0.00582385      -0.00956901
O        8.59852200      11.02922517       7.85211622       0.00392252      -0.00348949      -0.00759840
Mn       8.38636255      10.49192730       6.35378578      -0.00047138      -0.00048161      -0.00843780
O        5.43408373      11.59586619       2.31276267       0.00131416      -0.00034690       0.00698560
O        7.35689936       9.95868528       2.83855002       0.00234318      -0.00089085       0.00235021
O        7.83027213      12.09770428       1.41538534       0.00131261       0.00414407       0.01006266
O        6.43797610      10.11828014       0.40353113       0.00318930       0.00684267       0.00297880
Mn       6.78088268      10.95270186       1.75780503       0.00210240       0.00183298       0.00597411
O        6.11836404       1.98448320       2.14705937      -0.00426567       0.00535919       0.00775991
O        5.32628383       2.95622123       4.00084269      -0.00952977      -0.00781095       0.00222254
C        3.78966484       1.92113242       2.45924727      -0.00408942       0.00220770       0.00382805
C        5.12444437       2.35951398       2.97129279      -0.00233430       0.00761724       0.01877153
H        3.81115577       1.76505621       1.38356899      -0.00266589       0.01046782       0.00329553
H        3.56785336       0.95907071       2.92577989      -0.00188755      -0.00195751      -0.00325043
H        3.02350244       2.63694226       2.74363739      -0.00608867      -0.00171657       0.00882775
H        6.96950057       2.16142208       2.57610407      -0.00462469       0.00494584       0.01118329
O        5.38624909       7.82458575       0.07816391       0.00571981       0.00744224      -0.00133571
O        7.41422734       6.95436154      -0.24511010       0.00821948       0.01048701       0.00849585
C        5.54567473       5.47275415       0.00731489       0.00799355       0.00813240      -0.01231006
C        6.21082635       6.81826549      -0.06672646       0.00784963       0.00880051      -0.00068714
H        4.58685313       5.53931891       0.51452690       0.00172707       0.00567232      -0.02445651
H        5.38264912       5.09027335      -1.00230708       0.02159176       0.01072871      -0.01527284
H        6.20199036       4.77261679       0.51994713       0.00209847       0.00739145      -0.00594060
H        5.88736535       8.71513542       0.16711741       0.00486036       0.00772629       0.00225555
O       11.08312764       0.38934334       8.15906996      -0.01536107      -0.01356900       0.01197687
O       12.09927274       0.64785474      10.13719362      -0.00185904      -0.00165626       0.00341994
C       10.39707023       2.18655571       9.48279177      -0.00073236      -0.00142437       0.00215806
C       11.27769252       1.01671731       9.26700725      -0.00585273      -0.00616154       0.00571905
H       10.00991748       2.57003099       8.54571702      -0.00054495      -0.00477054       0.00079253
H        9.54856476       1.81622593      10.05908486      -0.00112760       0.00583088       0.00601132
H       10.87584585       2.95024560      10.08727082       0.00430562      -0.00056835      -0.00340909
H       11.46402624      -0.54137627       8.16117360      -0.01358962      -0.01273143       0.01062213
O        8.98500158       2.38012208      14.20554582      -0.00209081      -0.00298586       0.01062183
O       10.09423955       1.27318544      12.63195485      -0.00021879      -0.00267939       0.01234731
C        7.91740887       2.10905706      12.10904721       0.00125480      -0.00215235       0.01002535
C        9.08321762       1.85910845      12.99307235       0.00065976      -0.00345668       0.01098788
H        7.02580043       2.33076289      12.68347597      -0.00115162      -0.01185476       0.00955626
H        8.17250434       2.96317957      11.47699775      -0.00086789       0.00494131       0.01889241
H        7.74748168       1.23246438      11.48878725       0.00783313       0.00282311       0.00153993
H        9.78634122       2.16864219      14.71200439      -0.00354153      -0.00297672       0.01292595
O       11.83002134       2.77810990       6.50346526      -0.01121187      -0.00903714      -0.00623307
O        9.86865031       3.58311363       5.76028045      -0.00368738      -0.00619864      -0.02407312
C       11.21682242       4.93602731       7.21843009      -0.01306503      -0.00716901      -0.01394790
C       10.88049168       3.72166509       6.40321119      -0.00764376      -0.00733173      -0.01449257
H       11.06894455       4.71070690       8.27670984      -0.01198669      -0.00830740      -0.01410307
H       12.26263207       5.21298504       7.09565686      -0.01368299      -0.00429643      -0.01365209
H       10.55882640       5.75030226       6.94065723      -0.01481123      -0.00873779      -0.01406410
H       11.56706632       2.01265892       5.95252086      -0.00722528      -0.00855945      -0.00893827
O        3.20270175       5.33951219       3.02334842       0.01816911      -0.00731498       0.00054657
O        3.72622484       7.46651839       2.55109502      -0.00280678       0.00188982       0.00237840
C        5.00178425       6.26888651       4.22002004       0.01411015       0.00569409      -0.00327653
C        3.94895876       6.46352785       3.18120101       0.01059654      -0.00556779       0.00403762
H        4.53883839       6.40584370       5.20184008       0.01682587       0.00150637      -0.00140357
H        5.38462322       5.25004431       4.19358397       0.02155664       0.00817302      -0.00465995
H        5.78994832       7.00621812       4.10146431       0.00851347       0.01132090      -0.00484475
H        2.45870937       5.55767161       2.44422186       0.01427439      -0.01260662       0.00497830
O        4.75841831      10.65863668       8.21836548      -0.00717634      -0.00226307       0.00218803
O        4.61491710       8.42533211       8.14655173       0.00513774      -0.00242114       0.00431871
C        6.33057300       9.44379310       9.49278553       0.00351220       0.00873848      -0.00267708
C        5.17176251       9.42536642       8.55434259      -0.00037795      -0.00084668       0.00086164
H        7.16363540       9.98406604       9.03334397      -0.00024053       0.01090032      -0.00762165
H        6.06887816       9.97725341      10.40964340       0.00376721       0.00797755      -0.00224499
H        6.62997328       8.42781889       9.73078552       0.01149526       0.00749481      -0.00053579
H        3.99889962      10.57487899       7.60040488      -0.00817271      -0.00615525       0.00406415
O        1.88778530      11.24203441       2.22182914       0.00023037       0.00086683      -0.00740453
O        1.80542764      12.21708234       0.23228446       0.00037280       0.00250471      -0.00624570
C        3.32028831      10.38228360       0.57852284       0.00519454       0.00670433      -0.00539738
C        2.29337031      11.36172453       0.98966950       0.00145222       0.00303298      -0.00659546
H        4.15551116      10.46732122       1.27535125       0.00522101       0.01273415      -0.00611037
H        2.92909732       9.37050206       0.69853981       0.01037800       0.00511229      -0.00219897
H        3.66811284      10.56907162      -0.43127563       0.00364205       0.00561976      -0.00596672
H        1.07219180      11.82852521       2.33324452       0.00021645       0.00040713      -0.00591750
O        1.61556193      11.44619756       9.65574600       0.00390941       0.00202188       0.00628436
O        0.37106058      10.41049529      11.17153784      -0.00408263       0.00002215      -0.00151028
C        1.93006106       9.11769028       9.90763500      -0.00006342       0.00141865       0.00266838
C        1.24362246      10.37751741      10.28953062      -0.00047931       0.00103740       0.00196017
H        2.48275540       9.21585588       8.97864540      -0.00336944       0.00032896       0.00074548
H        2.62323453       8.82492470      10.69863745       0.00387600       0.00528292       0.00067672
H        1.18565626       8.32688912       9.82712459       0.00139344      -0.00025985       0.00774201
H        0.95952771      12.17175320       9.84926937       0.00518596       0.00254816       0.00580859
O        9.81456419       6.70554917      11.23550657       0.00651288      -0.00307128       0.00639626
O       10.04981599       4.54019497      11.77702822      -0.00025618      -0.00417173       0.00551543
C       11.99149399       5.81657389      11.18606862       0.00159341      -0.01316687      -0.00898717
C       10.52384269       5.60186059      11.42506812       0.00258839      -0.00580400       0.00158519
H       12.15878720       6.60528623      10.45585364      -0.00039481      -0.01849405      -0.01522212
H       12.43478554       6.14702793      12.12747968       0.00915036      -0.00908843      -0.01431558
H       12.47422146       4.89362451      10.87505141      -0.00322892      -0.01621400      -0.00689792
H        8.87987234       6.58111347      11.54233422       0.00721747       0.00134021       0.01056238
O       11.81033215       8.65820595       0.33556273       0.00001910      -0.00386733      -0.00174171
O       10.57436732      10.50561884       0.43084110       0.00373380      -0.00234744       0.00996399
C        9.79435165       8.56454623       1.57548304       0.01111233      -0.00125992       0.01636541
C       10.74977194       9.32347720       0.74481910       0.00490609      -0.00260264       0.00792755
H        8.89647845       8.40227064       0.97032216       0.00524008       0.00129551       0.02456181
H       10.20217711       7.60277431       1.87183511       0.01162115      -0.00226583       0.01175842
H        9.48787375       9.16292313       2.43313428       0.02018544      -0.00150402       0.01958364
H       12.30844018       9.23586513      -0.30447620      -0.00348185      -0.00337738      -0.00393423
O        6.97560492       3.34629083       8.47145394      -0.00468215      -0.00454921      -0.00121540
O        5.34969089       2.48623678       7.17929089      -0.00745952      -0.00684413       0.01060289
C        7.12523348       1.05654600       7.90343857      -0.00160915      -0.00326508      -0.00264773
C        6.38209463       2.33462517       7.80210252      -0.00859445      -0.00539318       0.00046152
H        7.94198114       1.06636523       7.17781895      -0.00484481       0.00122125      -0.00574496
H        7.55964017       0.92650259       8.89144479       0.00239925      -0.00140676      -0.00451407
H        6.47423492       0.22499854       7.66062187      -0.00077420      -0.00392181      -0.00057276
H        6.44530113       4.14969219       8.33872360      -0.01082969      -0.00463223       0.00095800
O        4.39759053       4.74975755       7.98821031      -0.00837117      -0.00333881       0.00679421
O        2.70590060       3.66918360       9.00080180      -0.01611233       0.00518000       0.00294760
C        3.06666803       5.99199134       9.47393498      -0.01075216       0.00550067      -0.00343648
C        3.35240191       4.67596449       8.82365691      -0.01196900       0.00247562       0.00231186
H        3.97796974       6.54980277       9.67621527      -0.01074049       0.00685775      -0.00783772
H        2.50528803       6.59110182       8.75494042      -0.01259566       0.00169883      -0.00534543
H        2.46935946       5.84261659      10.36895004      -0.00945994       0.00976657      -0.00204019
H        4.56025378       3.85487292       7.56937437      -0.01000458      -0.00481392       0.00867073
O        1.79347741       5.13382351       5.73117641      -0.00476718       0.00058234      -0.00170775
O        0.89043514       3.98212137       4.03367607       0.00566471      -0.00037272      -0.00988495
C        2.34062404       2.84461089       5.59251503      -0.00595057      -0.00007910       0.00446758
C        1.58742046       3.99224552       5.02132506       0.00236988      -0.00047266       0.00149310
H        3.38819170       2.93927381       5.28959503      -0.00408244      -0.00324012       0.00956856
H        2.30182289       2.85012650       6.68037579      -0.01134358       0.00211839       0.00431404
H        1.94091232       1.91441875       5.19951267      -0.00591729      -0.00012700       0.00444893
H        1.33870645       5.84243234       5.25336396      -0.00144586       0.00005652      -0.00452581
O       12.73861672       8.98004076       6.87022716       0.00945288      -0.02614895       0.00213909
O       11.86452347      10.47677082       8.26042899       0.01911800      -0.00672603      -0.01503345
C       10.71766570       8.39877889       7.95193233       0.00088471      -0.00041920      -0.00170928
C       11.78835347       9.39740462       7.69234289       0.01056305      -0.01177680      -0.00473531
H       10.32628126       8.02906425       7.00742994      -0.00162620       0.00013752      -0.00096670
H       11.14579209       7.55895619       8.50357223      -0.00806575      -0.00305012       0.00096554
H        9.91979712       8.85444444       8.52922054       0.00411312       0.00841326      -0.00455719
H       13.46439994       9.65753580       6.80959988       0.01221590      -0.02869633      -0.00281743
O        2.16830139       9.25380482       4.48382863      -0.00554848       0.03410947      -0.01618585
O        2.57408345      10.29515815       6.41778815      -0.00466260      -0.00837633       0.00573730
C        4.42661748       9.72184813       4.99386028      -0.00466013       0.00413876       0.00166447
C        2.99182596       9.79172812       5.37191177      -0.00543410       0.00853857      -0.00269496
H        4.97124092       9.12919181       5.73194958      -0.00546461       0.00897400       0.00555679
H        4.54867627       9.29802777       4.00269147      -0.00280845       0.00087567       0.00341575
H        4.86273999      10.72211057       5.02054898      -0.00462902       0.00463843      -0.00331249
H        1.24224117       9.50652083       4.66817488      -0.00486037       0.04360633      -0.02273282
