147
Lattice="15.95067111573592 0.0 0.0 0.0 15.95067111573592 0.0 0.0 0.0 15.95067111573592" Properties=species:S:1:pos:R:3:forces:R:3 energy=-1971350.625 stress="-0.0011639671865850687 0.00010307928823749535 -0.00019664438877953216 0.00010307928823749535 -0.0015820678090676665 0.00014554346853401512 -0.00019664438877953216 0.00014554346853401512 -0.0010460404446348548" pbc="T T T"
Bk      15.39195214      15.73871421       1.38996781      -0.00318942      -0.00240903      -0.01718354
P        8.61910460      15.04177382       9.41240763      -0.00164868       0.00278319      -0.00005459
F        7.29978155      14.38196424       8.96157789       0.00587237       0.00265031      -0.02109849
F        8.86182604      13.85940519      10.44173612      -0.01408128       0.00045294      -0.00125907
F       10.20698754      11.15751270      10.06627168       0.01782258       0.02064881      -0.02299896
F        8.37720272      16.23804141       8.39992583       0.01268000       0.00454462      -0.00178930
F        8.66401591      16.05609868      10.58351650      -0.02141163      -0.00079319       0.00172915
F        9.92926058      14.67300246       8.67349191       0.01024789       0.00610360       0.01707526
P        7.84856045      15.19719905      15.03210977      -0.00581486      -0.00146665       0.00460431
F        8.31187783      13.83438980      15.58165567       0.00229306       0.00234602       0.00549678
F        6.67657840      14.47881043      14.23648052      -0.01205876      -0.00657898       0.01955168
F        6.82337683      16.08889224      15.75955866      -0.00012191      -0.00054688       0.01197205
F       14.23497965      15.16806354      15.79959513      -0.00715291       0.00596390      -0.01575330
F        8.43156275      15.71967645      13.69109372      -0.02111028      -0.00468443      -0.00261676
F        9.03719090      15.91260614      15.81360930       0.00065222       0.00419031      -0.01043221
P        6.80026623      13.54276016       3.38001625       0.00048178      -0.00001629      -0.01005747
F        5.86215243      13.63678280       2.05626419      -0.00674403      -0.00130969      -0.00379014
F        7.73413772      13.46019385       4.70068378       0.00841391       0.00076783      -0.01526582
F        5.77648419      14.54023864       4.16720360       0.01464975       0.01334798      -0.00898272
F        7.81658167      12.54911851       2.59112905      -0.01058638      -0.01300335      -0.00822312
F        7.64889971      14.82293885       2.85403507       0.00599194      -0.00988150      -0.02432030
F        5.94296084      12.26747958       3.89774839      -0.00510192       0.00960255       0.00247616
Cl      13.48611021      12.05068299      14.05130885       0.00668032       0.00872049      -0.01027765
Cl      13.84476277      13.83319030      11.76834726       0.01664302       0.02395505       0.00228080
Cl      11.15781254      13.26095166      12.76645224       0.01761219       0.04429828       0.00601004
C       12.85381925      13.48010691      13.20246884       0.02015552       0.02385309       0.00450469
H       12.94592403      14.31790524      13.88361893       0.03630108       0.01541188       0.01367171
Cl      12.11843074       8.72925752       2.15557027      -0.01933396      -0.00248093       0.00892348
Cl      14.07004729      10.51643565       0.90170485      -0.02937093      -0.00557053      -0.00947347
Cl      13.65612997      10.63197661       3.77588663      -0.00580973      -0.00139996      -0.00676501
C       13.65446247       9.57645071       2.33568183      -0.01733880      -0.00316263      -0.00490978
H       14.43011318       8.83496493       2.48014813      -0.01646131      -0.00299473      -0.00992040
Cl       7.15659918       5.03619647       0.98185126       0.00694698      -0.02176295      -0.00089907
Cl       5.11121688       6.76281934      -0.18260089       0.02446442      -0.00808913      -0.01162525
Cl       4.46664956       4.00916368       0.49437113       0.00087761      -0.00094162      -0.00872148
C        5.44306862       5.43561205       0.93965376       0.01040197      -0.00805691      -0.00812274
H        5.14219199       5.74289875       1.93551751       0.00957080      -0.00352401      -0.01006550
Cl      14.32966152       1.89138778       3.43915840       0.00574720      -0.00232688       0.00393078
Cl      13.47755128       4.39712311       2.15995194      -0.00059687       0.00226621       0.01706936
Cl      13.33833155       1.85446476       0.72627530       0.00515321       0.00958741       0.00572771
C       13.19141962       2.68912626       2.30067784       0.00363788       0.00128603       0.00986719
H       12.19060508       2.50043392       2.67120582       0.00360246      -0.00135000       0.00837791
Cl       6.21392680       9.71640411       1.79198725      -0.00703138       0.02129585      -0.00866803
Cl       4.27575360       9.24582876       3.90816829      -0.00393225      -0.01117257      -0.01410490
Cl       3.49061961      10.70033203       1.47906322      -0.01972772      -0.01903993      -0.01403684
C        4.52503056       9.42504780       2.16957229      -0.00246888      -0.00496369      -0.01325767
H        4.22307638       8.50078120       1.69489073       0.01172465      -0.00804451      -0.01558758
Cl       9.95864742       3.67341446      11.38344140      -0.00875378      -0.01708455      -0.01007693
Cl       7.76570542       5.34488535      12.35870115       0.01000442      -0.01633897       0.02915841
Cl       7.30745735       3.46936237      10.16534221      -0.01637001       0.01938215       0.00456229
C        8.21024665       3.77297580      11.65697042      -0.00570157      -0.00918991       0.00388604
H        7.94318503       3.00983145      12.37725275      -0.00688878      -0.01769254      -0.00584392
Cl       0.55395219       3.36013514      14.90688818      -0.01302561       0.01216221      -0.00776179
Cl       2.01585491       5.78263242      14.17752951      -0.00167494       0.00816025       0.00586817
Cl      -0.83462336       5.92783334      14.85832071       0.00076033       0.01999247       0.01123556
C        0.70330453       5.11739918      15.15875948      -0.00367293       0.00965445       0.00369538
H        0.97777348       5.27118555      16.19464782      -0.00222851       0.00117040       0.00425622
Cl       7.92633345       9.16934760       9.10391132       0.00674629       0.00776505       0.00925249
Cl       9.16612333       8.78055877      11.65951458       0.02329633      -0.00787947      -0.00054526
Cl       9.62822475       6.92198526       9.53632951      -0.01864845      -0.01283705      -0.00398028
C        8.90619407       8.29941950      10.11015698       0.00164482      -0.00515752       0.00335576
H       10.43613337      11.45579339       9.21348356      -0.01545949      -0.00284038       0.04060382
Cl       1.29438933       1.76137172      11.80315918      -0.00301437      -0.00596094      -0.00345465
Cl       3.88616959       2.49668295      12.93745148      -0.00788872      -0.01718736       0.00870116
Cl       3.18207314       3.35084648      10.23955266      -0.00306539       0.01230554       0.01552105
C        2.56827565       2.99155425      11.85962723      -0.00488323      -0.00551980       0.01073064
H        2.13279072       3.89951240      12.25878271      -0.00484414      -0.00950979       0.01925281
Cl       1.73476401      11.44192748       5.87332762      -0.03638225      -0.00302090       0.01096764
Cl       3.43302308      12.11654708       8.13735326       0.00407165      -0.01089635      -0.01658075
Cl       0.57733170      11.61728597       8.54444810       0.01140451      -0.00861119       0.03149979
C        2.02298597      11.20328019       7.59565844      -0.00619532      -0.00799907       0.00551725
H        2.22185763      10.15074383       7.75591831      -0.00466870      -0.00848058      -0.00115738
Cl       8.55893618       7.82529449      14.97639344       0.00986622       0.01566365       0.01739204
Cl      10.62775432       9.87079437      14.76606930      -0.00064731       0.02261081      -0.00634991
Cl       7.82387429      10.61563693      14.48501659      -0.00424872       0.00738801      -0.00662199
C        8.96716106       9.52524747      15.28237334       0.00225777       0.02026395       0.00066190
H        8.90185875       9.69165416      16.35084866       0.00359688       0.03003291      -0.00113556
Cl       0.33780920       8.09776379      12.03128295       0.00521378       0.00586888      -0.00866015
Cl      -0.00111866       5.34037404      11.07416245      -0.00821473       0.00374849       0.00524444
Cl       0.85346476       7.44344179       9.24351903      -0.00783458      -0.00892331      -0.00688429
C        0.90631197       6.84231501      10.90829958      -0.00282379      -0.00093564      -0.00456585
H        1.94260623       6.62913520      11.14701516      -0.00279161      -0.00318306      -0.00743047
Cl      11.02089228      13.07395867       1.38452291      -0.00015089       0.00414470       0.00331363
Cl      10.91627938      15.73869280       2.53630892       0.00120053       0.00440462      -0.00103633
Cl      13.40889964      14.20162880       2.63835908       0.00185996       0.00503491      -0.00519398
C       11.87104382      14.54930768       1.67237336      -0.00001258       0.00444607      -0.00130996
H       12.26126890      14.96346862       0.74831077      -0.00231078       0.00402199      -0.00219810
Cl       2.79876332      14.77747450       5.84040053       0.01594974      -0.01722737      -0.01963869
Cl       2.73643852      13.46977666       3.21013348      -0.01016483      -0.01057234      -0.01966337
Cl       0.46924420      15.09633473       4.08815902       0.00910145       0.00921027      -0.00770427
C        2.32327313      14.83983291       4.17625350       0.00684750      -0.00778833      -0.01591893
H        2.72044120      15.73660416       3.72191460       0.01197443      -0.01045612      -0.01632668
Cl       7.94660065       1.34226133       4.96534914       0.01432794      -0.01689956      -0.01158500
Cl       6.41574831       3.82656356       4.91587755      -0.00014767      -0.02606207       0.04153022
Cl       5.68595304       1.63499079       3.13040257       0.02204745       0.01580115      -0.01701209
C        6.36430105       2.05020714       4.71928781       0.01112039      -0.02154364      -0.00288206
H        5.69495393       1.65550641       5.47414599       0.00889164      -0.04480532      -0.01756707
Cl      14.18236386       5.57285900       7.04497833      -0.00954497      -0.00238159       0.00409015
Cl      11.86476204       5.96320322       5.30376416      -0.01440821      -0.00430751       0.01087955
Cl      11.54748013       4.65275120       7.89939480      -0.00682282       0.00037283       0.01337069
C       12.44772647       5.87561929       6.97949410      -0.00922737      -0.00179700       0.00880695
H       12.26637420       6.83884884       7.44202391      -0.00771210      -0.00130871       0.00778189
Cl       4.28712337      -0.30019584       8.84091110       0.00137110       0.00171030      -0.00326407
Cl       2.24137940      -1.47870415      10.57419630       0.01148084      -0.00965485      -0.00088744
Cl       4.96638889      -1.12336409      11.56556600       0.01242152      -0.00337321      -0.00815961
C        3.70166286      -0.48329485      10.51122633       0.00725860      -0.00445504      -0.00233840
H        3.44451529       0.50554882      10.86675849       0.00520686      -0.00659919       0.00156434
Cl       0.95297391       9.17388441       3.32933217      -0.00901134      -0.00526018      -0.00319728
Cl      -0.50743434       6.74317810       3.94945178      -0.01544813      -0.00168762      -0.00506906
Cl       1.09995350       8.02813897       6.02227136      -0.00139770      -0.01613374      -0.00906450
C        0.10202547       8.28951351       4.59458985      -0.00671917      -0.00616157      -0.00308064
H       -0.76076700       8.87112063       4.89907903      -0.00279281      -0.00367700       0.00239778
Cl       1.56109055       4.53805454       6.96756490       0.00181150      -0.01310260       0.00059173
Cl       3.37109423       5.67834638       4.96235965       0.00336530      -0.01265717       0.00074358
Cl       4.10172962       5.68811010       7.78653081      -0.01099993       0.01129626       0.00314131
C        3.24856552       4.82134063       6.50601067       0.00126088      -0.00371223       0.00533554
H        3.72650950       3.85777446       6.37742295       0.00891373      -0.00069842       0.01328855
Cl       5.46951474       9.13885821      12.30626867       0.01507935      -0.00771416       0.01320141
Cl       4.44015033       9.03681496       9.57845295      -0.00142922       0.00963932       0.01950377
Cl       4.48411093       6.62263405      11.22075692       0.00487603       0.00021064       0.00797611
C        4.29972356       8.39185014      11.22004604       0.00793058      -0.00033359       0.01653770
H        3.30309980       8.62664099      11.57924994       0.01038526      -0.00114657       0.02269763
Cl      13.17746091       7.25562630      10.19539993      -0.02301221       0.01220271       0.00780881
Cl      12.87221004       9.52541586       8.38663704      -0.01188987       0.00900740      -0.00254888
Cl      12.94471845       9.94159143      11.29119776       0.02645071       0.02178079      -0.00779197
C       13.53634573       8.96859105       9.95525918      -0.00248456       0.00563948      -0.00760879
H       14.61233949       9.08019482       9.89515663      -0.00164473      -0.01257681      -0.02214469
Cl       7.20291022       9.71373109       5.54776868      -0.00475129       0.00071329       0.00313533
Cl       6.90957696       6.93402508       6.34970262       0.01274484      -0.00430542      -0.00334398
Cl       8.38734345       7.58544292       3.91931659      -0.00807091       0.00974406      -0.00970504
C        7.95844424       8.13085208       5.55553264       0.00137002       0.00361152      -0.00585448
H        8.87989790       8.18757867       6.12290119       0.00366011       0.00866647      -0.01049286
Cl       1.16407724       4.08047532       2.56949377       0.00170086      -0.00576960       0.00104363
Cl       2.09882854       2.19575579       4.55353488       0.01856582      -0.00715704      -0.00877371
Cl       2.05256756       1.42700999       1.73278902       0.00589074       0.00057167      -0.01059604
C        2.28085008       2.77771958       2.91093334       0.00809665      -0.00256318      -0.00774032
H        3.30291463       3.10921879       2.75836213       0.00585252       0.00184027      -0.01169386
Cl      14.88151125       2.24191277       8.77672078      -0.00401655      -0.00275744       0.00021276
Cl      13.39486647       3.04929028      11.16356302      -0.00067931      -0.01042902       0.00436938
Cl      12.20398219       1.18431358       9.25333305      -0.00503585      -0.00001757      -0.00186540
C       13.70745262       1.73892692       9.99833696      -0.00373200      -0.00554709      -0.00121577
H       14.12967658       0.91129708      10.55457686      -0.00432947      -0.00845915      -0.00596943
Cl       9.76283932      11.56556095       7.10475932      -0.01356737       0.02752421       0.01406224
Cl      10.19233744      10.91663411       4.30307057      -0.00196788       0.01675808       0.01798651
Cl      11.13091241      13.46761252       5.36916549       0.01010378       0.01276493       0.01881912
C       10.85163526      11.75719963       5.68279699      -0.00328894       0.01526888       0.01859477
H       11.79553344      11.30117301       5.95592320      -0.00881368       0.00928618       0.02433728
