136
Lattice="12.904161426949166 0.0 0.0 0.0 12.904161426949166 0.0 0.0 0.0 12.904161426949166" Properties=species:S:1:pos:R:3:forces:R:3 energy=-1597807.375 stress="-0.0013428942766040564 0.0005749686970375478 0.0005777147598564625 0.0005749686970375478 -0.001076482585631311 -0.00046364851004909724 0.0005777147598564625 -0.00046364851004909724 -0.000531366269569844" pbc="T T T"
Bk      13.01473845      11.42362772       2.26706019       0.00273192      -0.03957200      -0.00287610
I       11.23418786      11.99040544       6.84442084       0.01284428       0.01212417       0.01303879
O       11.45142524      10.87898214       8.21050933       0.01584347       0.03077149       0.02093467
O       10.91899556      11.12881247       5.30688526      -0.00596417      -0.00322066       0.02536988
O        9.99433156      13.22922972       7.13735623       0.02333397       0.02783689       0.01542576
O       12.80726736      12.96408304       6.58648661       0.01638401       0.00086225      -0.01160968
I        7.90420600       6.80698550       2.48685064      -0.00081256      -0.00132233       0.00080951
O        7.98794096       6.37916183       0.74657695       0.01567031      -0.02740878       0.00887060
O        6.20027761       6.63802451       3.01665553      -0.00212282      -0.00244367      -0.00708565
O        8.95176830       5.74045203       3.46241258      -0.00072181       0.02140695       0.02540755
O        8.41137736       8.50826476       2.70530217      -0.01410142       0.00541198      -0.02515179
I        1.27138774      12.12799640       5.04352963       0.00199227      -0.01392718      -0.00923470
O        0.00642934      12.90614462       3.91234986      -0.00193205      -0.02756101      -0.01368326
O        1.93152603      11.34101743       3.47287328       0.00528392      -0.02262016      -0.00137660
O        2.55954338      13.23899409       5.57049090       0.00185625      -0.00677222      -0.01672049
O        1.02617348      10.58986811       5.92628830      -0.00109805      -0.00608569      -0.00269744
C        7.45216498       1.86612764      10.77322951      -0.00065304      -0.01394583      -0.00512193
C        7.92171674       3.14462812      10.46666683       0.00093910      -0.01141833      -0.00156035
C        6.14711862       1.53872656      10.40527460      -0.00188257      -0.00850596      -0.00809167
C        8.31619673       0.86377619      11.48123607      -0.00421911      -0.01502609      -0.00496015
C        7.11735003       4.05916471       9.79908200       0.00201603      -0.00880583       0.00521166
C        5.34227760       2.44874386       9.73219582       0.00036015      -0.00589843       0.00010821
C        5.82675878       3.71152404       9.42159901       0.00004326      -0.00338876       0.00584239
H        8.93341178       3.42195662      10.74047078       0.00190548      -0.01565711      -0.00136034
H        5.76819998       0.54921770      10.63581312      -0.00152098      -0.01120323      -0.01266893
H        8.06776264      -0.15107900      11.17071358      -0.00450113      -0.01447214      -0.00792520
H        9.37165939       1.03995333      11.27505374      -0.00408126      -0.01899306      -0.00545429
H        8.18086133       0.92233516      12.56369373      -0.00083594      -0.00775805      -0.00435829
H        7.50381257       5.04133453       9.55410603       0.00253974      -0.00676054       0.00937800
H        4.34352351       2.16429525       9.42615657      -0.00207034      -0.00208600      -0.00045495
H        5.21320756       4.40943490       8.86685198      -0.00081076       0.00056870       0.01280596
C        9.08875059       7.91225379       8.57768371      -0.00265709       0.00061773       0.00100933
C        7.96953580       8.26353766       9.33308832       0.00176670       0.00175257       0.00483072
C        9.28323376       8.53906342       7.34606030      -0.00871789      -0.00255535      -0.00265726
C       10.05858068       6.87527086       9.06805492       0.00014794       0.00155771      -0.00282811
C        7.06989889       9.21841737       8.86882815      -0.00339775      -0.00255090       0.00621204
C        8.38325851       9.48548128       6.87437930      -0.01335302      -0.00582433      -0.00055824
C        7.27401313       9.83040830       7.63863516      -0.01035295      -0.00671053       0.00205059
H        7.80551304       7.78983635      10.29587952       0.00695522       0.00466270       0.00757726
H       10.16082496       8.30113627       6.75575251      -0.01302114      -0.00484534      -0.00652701
H       11.08813160       7.17016718       8.85864313      -0.00070679       0.00246911      -0.00412693
H        9.95601016       6.71460632      10.14194051       0.00187197      -0.00066100      -0.00287998
H        9.89343017       5.91404848       8.57281872      -0.00035727       0.00252166      -0.00423764
H        6.20878531       9.48562541       9.47012972      -0.00096923      -0.00269447       0.00866214
H        8.56278139       9.95786147       5.91691935      -0.01847628      -0.00855616      -0.00320882
H        6.57836953      10.57896132       7.28027344      -0.01487581      -0.01090544       0.00242298
C        2.74294302       7.92402274       5.97689511       0.00218450      -0.00367585       0.00101294
C        1.72603580       6.99644676       6.20695851       0.00613093      -0.00676350       0.00190938
C        3.21876477       8.07102861       4.67504670       0.00004491      -0.00217283      -0.00047302
C        3.33102258       8.72636506       7.09869004       0.00015351      -0.00055662      -0.00007087
C        1.21186618       6.22715837       5.17053381       0.00458285      -0.00695903       0.00320169
C        2.70951877       7.30458168       3.63550854      -0.00073989      -0.00268243       0.00111085
C        1.70653288       6.37511306       3.87876069       0.00150328      -0.00377466       0.00132115
H        1.32807282       6.88142562       7.20930026       0.01020439      -0.01039520       0.00347926
H        3.99343390       8.79860440       4.46957320      -0.00173670      -0.00099359      -0.00110101
H        3.72050759       9.67694934       6.73615901      -0.00483635       0.00112209      -0.00125892
H        2.59009044       8.93687379       7.86846699      -0.00067699      -0.00340945      -0.00010763
H        4.16074233       8.18701300       7.56468806       0.00439599       0.00350347      -0.00235289
H        0.41632083       5.51850692       5.37132881       0.00849509      -0.01028213       0.00435627
H        3.10930317       7.42357051       2.63599173      -0.00157923      -0.00247511       0.00018342
H        1.31295977       5.77663486       3.06626912       0.00169967      -0.00511549       0.00257881
C       10.97861091       9.59100407       1.42140666      -0.00019420       0.01613522       0.01044217
C       11.50214923       9.17064131       2.64704466      -0.01722985      -0.00121409       0.00408839
C       10.72123842       8.63464657       0.44301610       0.01147084       0.00687175      -0.01844236
C       10.59780260      11.02963137       1.19524351      -0.00714999       0.00779016       0.00393597
C       11.73267011       7.82608798       2.89846780      -0.01063998       0.01436739       0.01336944
C       10.94341942       7.29002034       0.69773305       0.01950078       0.01701975      -0.00433083
C       11.45285354       6.88168397       1.92527342      -0.00145282      -0.00415455      -0.01576762
H       11.57378132       9.85942814       3.49220603      -0.02813380       0.00140137       0.01263568
H       10.26167181       8.93361415      -0.49177751       0.03015099       0.01652274      -0.00969874
H        9.61948256      11.10560164       0.71794896      -0.00863174       0.00408358       0.00586319
H       10.52234013      11.58672767       2.13742030      -0.00878394       0.00821736       0.00628142
H       11.29304937      11.55767145       0.52091013      -0.01073554       0.01336244       0.00467674
H       12.09087954       7.51829811       3.86995612      -0.02309795       0.00419504       0.00236550
H       10.65781986       6.55034827      -0.03783953       0.03362702       0.01469956      -0.02226530
H       11.57259260       5.82754844       2.14002290       0.00132065       0.01149529      -0.00972217
C       10.92329897       2.54755104       2.02180244       0.00696149      -0.00691440      -0.00888070
C       10.54510926       2.40566787       3.35864512       0.00878279      -0.02480767      -0.00781372
C        9.93596471       2.82909311       1.07996179       0.00880114       0.00573055      -0.00277722
C       12.36075379       2.40861459       1.61714109       0.00793898       0.00164437      -0.00974473
C        9.21756805       2.53032519       3.73374066       0.00602148      -0.03051638      -0.00860791
C        8.60414686       2.96840772       1.45585738       0.00696090       0.00377128      -0.00273157
C        8.24230915       2.81582816       2.78520274       0.00882697      -0.01674498      -0.00197276
H       11.29683047       2.20036065       4.11197302       0.00850232      -0.03305654      -0.01271021
H       10.21535118       2.94721275       0.03855042       0.00760921       0.02005944      -0.00220063
H       12.47534961       2.45388790       0.53525428       0.00359643      -0.00624131      -0.01087728
H       12.98317025       3.19410609       2.05092645       0.00109886       0.01255076      -0.01988518
H       12.78141403       1.46437648       1.98033195       0.01822837       0.00956196      -0.00322012
H        8.94091721       2.42724411       4.77258615       0.00689485      -0.04828590      -0.00855665
H        7.85881463       3.22039258       0.71159192       0.00982541       0.01836289       0.00238200
H        7.21335733       2.94730502       3.09570964       0.00726049      -0.02058444      -0.00244866
C        5.42403558       3.61048786       5.35015447      -0.00435280      -0.00057671       0.00517625
C        6.62412124       4.19023728       5.76918568       0.00119719      -0.00286347      -0.00700946
C        5.14721588       2.30112025       5.74417265      -0.00442192       0.00124235       0.01089433
C        4.48058111       4.35946378       4.46201397      -0.00959849       0.00061747       0.01220965
C        7.52420731       3.46994944       6.54276940       0.00566374      -0.00300413      -0.01310574
C        6.05911612       1.57509658       6.50229274      -0.00021791       0.00114000       0.00490803
C        7.25602237       2.15315708       6.90188628       0.00482664      -0.00113650      -0.00647917
H        6.86051843       5.20216271       5.46219062       0.00149441      -0.00458616      -0.01230118
H        4.21058866       1.84049318       5.45030217      -0.00798208       0.00288926       0.01932112
H        3.45782447       4.00238025       4.57478632      -0.00862150      -0.00046062       0.01645114
H        4.50593062       5.42814077       4.66086909      -0.00989148      -0.00009459       0.01564679
H        4.76604812       4.24731678       3.41168079      -0.01442713       0.00453342       0.01062867
H        8.45029032       3.93455815       6.85924722       0.01027919      -0.00510739      -0.02363651
H        5.82699795       0.55447113       6.78469397      -0.00034141       0.00247696       0.00959402
H        7.96712547       1.58982542       7.49099817       0.00801642      -0.00134577      -0.01104017
C        5.29648129      10.27992365       1.63018050      -0.00307850       0.01337254      -0.00171581
C        4.84878998      11.54632008       1.25710436       0.00689593       0.01631469      -0.00684185
C        5.76474828      10.09685530       2.93109502      -0.01315916       0.01550001       0.00348520
C        5.31755678       9.14150980       0.65692498      -0.00385465       0.01095253       0.00238308
C        4.88342071      12.60661304       2.15376753       0.00459699       0.01641586      -0.01138437
C        5.81564339      11.15807954       3.82186543      -0.01743857       0.01448089       0.00027251
C        5.37378988      12.41739314       3.43861709      -0.00842666       0.01792312      -0.00401635
H        4.46259147      11.69881951       0.25416528       0.01691010       0.01573873      -0.01182704
H        6.10690604       9.11872372       3.23679876      -0.01771469       0.01330689       0.00589621
H        5.13087879       8.19258040       1.15894242      -0.01456409       0.01396336       0.00412124
H        4.57987342       9.27959593      -0.13442362       0.00302956       0.01405167      -0.00345778
H        6.30032959       9.04744481       0.18443311      -0.00095475       0.00256664       0.01040128
H        4.52098788      13.58246619       1.85466528       0.01429377       0.01897518      -0.01593360
H        6.20839759      10.99919811       4.81962818      -0.02757062       0.01636306       0.00513355
H        5.41389024      13.24291527       4.13357996      -0.01148853       0.01752010      -0.00660475
C        3.57984266       5.61234358      12.15624516       0.00074495       0.00100777       0.00804198
C        2.58839679       6.54595930      12.45944553       0.00087964       0.00570434       0.00047122
C        3.18746643       4.29324581      11.92130335      -0.00274634       0.00253785       0.01028097
C        5.02146161       6.00899314      12.09847284       0.00160038      -0.00243555       0.01536722
C        1.25174410       6.17893178      12.52936750       0.00082450       0.00872973      -0.00459985
C        1.85079119       3.92121238      11.98279684      -0.00286431       0.00558807       0.00600592
C        0.87555457       4.86337450      12.28807604      -0.00264370       0.00994090      -0.00061563
H        2.86936811       7.57576173      12.64504323       0.00326975       0.00498515      -0.00202133
H        3.94288845       3.55688101      11.67748734      -0.00324212      -0.00074762       0.01511486
H        5.58952915       5.33540275      11.46179337       0.00530110      -0.01043536       0.02712408
H        5.13735336       7.02348248      11.71705525       0.00650286      -0.00684386       0.00545922
H        5.49114375       5.98581018      13.08409089      -0.00729126       0.00698396       0.01951438
H        0.50206740       6.91800730      12.77634215       0.00135736       0.01265247      -0.01078574
H        1.57279743       2.89185208      11.78665090      -0.00549344       0.00624965       0.00895770
H       -0.16810273       4.57876177      12.34316118      -0.00272706       0.01181390      -0.00321159
