145
Lattice="12.92938865690099 0.0 0.0 0.0 12.92938865690099 0.0 0.0 0.0 12.92938865690099" Properties=species:S:1:pos:R:3:forces:R:3 energy=-1017341.5625 stress="-8.676035940879956e-05 0.0004854134313063696 0.00040974217699840665 0.0004854134313063696 0.0005120629793964326 -0.00011132790314150043 0.00040974217699840665 -0.00011132790314150043 0.0007515227189287543" pbc="T T T"
Bk      15.15900132      14.06709719       1.48596514      -0.00813146       0.00302115       0.00363630
S        5.05101754      11.44680784       5.35260621      -0.00076461      -0.00261015      -0.01564819
O        4.97644133      10.60486037       4.14635446      -0.00555196       0.00473547      -0.02069831
O        4.79531614      10.71505032       6.58549535       0.00451538      -0.01173353      -0.01967120
O        4.27659228      12.68473787       5.22348673      -0.00129521      -0.00213432      -0.00495434
C        6.75915338      11.97145332       5.47381255       0.00005341      -0.00418428      -0.01875177
H        7.02358334      12.51896590       4.57259548      -0.00312050       0.00084980      -0.01669793
H        6.85058909      12.60150541       6.35544033       0.00287430      -0.00874130      -0.01572808
H        7.38414529      11.08892007       5.58496004       0.00048759      -0.00475332      -0.02533921
S        3.56248827      11.74932635       0.54416154      -0.02338707       0.01132916      -0.00394547
O        2.38303085      12.45375306      -0.08102923      -0.03551117      -0.00383320       0.02264304
O        3.99201833      12.68490807       1.63135850      -0.00674024       0.01905352      -0.02784789
O        4.59048062      11.33327019      -0.34865274      -0.03067917       0.00405736      -0.03651360
C        2.84998257      10.34180630       1.33697246       0.02358615       0.00073773       0.01551893
H        2.75233274       9.56869613       0.58097261       0.00993456      -0.00954631       0.02761593
H        3.51010022      10.03737017       2.14644481       0.04382026       0.01756523       0.00584775
H        1.87386343      10.62391046       1.71448410       0.03085092      -0.00471506       0.03907593
S        8.14635344      11.27360994      10.59183963       0.01280892      -0.00121811      -0.01496601
O        8.15712958       9.87985197      11.05733054       0.00730386      -0.00409913      -0.02448761
O        9.06658847      11.51758625       9.47719782       0.01306915       0.00327128      -0.01266098
O        8.27642176      12.24388920      11.67980474       0.01637819      -0.00952888      -0.00800467
C        6.51054442      11.52657624       9.91161182       0.01304853       0.00923969      -0.01293874
H        5.78549031      11.35485595      10.70098866       0.01279285       0.01166935      -0.01290006
H        6.44334139      12.55365903       9.55909906       0.01801547       0.01042197      -0.01047616
H        6.35009285      10.83948949       9.08324754       0.00946726       0.01106270      -0.01396213
C       10.29961074       8.56579990       8.70434592       0.00485956      -0.00218576      -0.00156286
C       10.45611757       7.14810993       9.23296364       0.00167419      -0.00287622      -0.00210926
C       10.36158761       8.65954980       7.18617428      -0.00077277      -0.00138530      -0.00170448
C       10.19527925       7.04678734      10.73057591       0.00086696      -0.00234661      -0.00208670
C       10.28351077      10.09821391       6.69212746       0.00363499      -0.00070429      -0.00057777
C       10.32007999       5.62395636      11.25451116      -0.00230196      -0.00239706      -0.00133359
H        9.36019511       8.99154075       9.06269527       0.00807208       0.00130153       0.00230746
H       11.06957972       9.20904344       9.14231026       0.00817373      -0.00504008      -0.00350073
H       11.46082171       6.76839825       9.00454966       0.00069049      -0.00559132      -0.00200401
H        9.75864091       6.48127247       8.70891150      -0.00022316      -0.00088216      -0.00235178
H       11.28118130       8.18645171       6.82005153      -0.00470334      -0.00555241      -0.00618152
H        9.53369916       8.08042543       6.76059014      -0.00557926       0.00289533       0.00181417
H       10.88999553       7.70343386      11.26358303       0.00168216      -0.00339645      -0.00180423
H        9.20363303       7.45509002      10.94243659       0.00137126      -0.00040084      -0.00303198
H        9.42376780      10.60587618       7.13075190       0.00720486       0.00265418       0.00251868
H       10.21799086      10.14975539       5.60303021       0.00064169       0.00020223      -0.00043775
H       11.16478535      10.66107547       7.00496846       0.00695787      -0.00448288      -0.00288337
H        9.64197848       4.94794864      10.72842355      -0.00252578      -0.00150744      -0.00227329
H       11.33258985       5.23611600      11.11336494      -0.00271343      -0.00414866       0.00073437
H       10.08772865       5.56089684      12.31770287      -0.00442979      -0.00152179      -0.00166437
C        1.44311362       9.06260040       5.42428173      -0.01198766       0.00816396       0.00277513
C        1.67986064      10.51680751       5.03335714      -0.00838888       0.00836214       0.00580826
C        2.41921839       8.59213098       6.49881170      -0.01086807       0.00200531      -0.00112256
C        0.65924618      11.08382130       4.05462131      -0.00975370       0.01388982       0.00998999
C        2.27148164       7.11863095       6.84923994      -0.01294076       0.00074756      -0.00751187
C        1.07752834      12.47120963       3.54802287      -0.00496195       0.01323768       0.00978529
H        0.41082851       8.92069371       5.76950041      -0.01170757       0.01034725       0.00459026
H        1.56045643       8.43107205       4.53312372      -0.01590248       0.01044123       0.00065124
H        2.67558836      10.59233525       4.59328187      -0.00955904       0.00642879       0.00274418
H        1.71925625      11.14207423       5.92835691      -0.00384176       0.00611588       0.00722432
H        3.43928578       8.80836931       6.17704160      -0.01111269       0.00191449      -0.00173379
H        2.27943693       9.20259408       7.39504350      -0.00718770      -0.00160576       0.00170967
H        0.53635647      10.38945849       3.21599180      -0.01659893       0.01437755       0.01007214
H       -0.32843864      11.15270433       4.51645492      -0.00785992       0.01744868       0.01437053
H        1.26490400       6.88292065       7.20462904      -0.01247463       0.00076383      -0.00620110
H        2.97475920       6.83317195       7.63398715      -0.01137413      -0.00464367      -0.01085785
H        2.47151917       6.48205214       5.98342362      -0.01671721       0.00501058      -0.01148203
H        0.98012793      13.20660562       4.34655721       0.00015653       0.01269931       0.01165885
H        2.14401774      12.46003585       3.27667298      -0.00542011       0.00883120       0.00567157
H        0.45501032      12.80057609       2.69969816      -0.00671596       0.01568654       0.01177052
C       11.08885205       3.01442042       2.04296752       0.00357057      -0.00550374      -0.00100678
C       11.30045251       4.51460233       1.88421018       0.00220510      -0.00442341       0.00372839
C       10.35140554       2.36709200       0.87466115       0.00052460      -0.00425553      -0.00073928
C       12.03714188       5.17285248       3.04547821       0.00009184      -0.00547807       0.00209510
C       10.10875723       0.87525126       1.05169316      -0.00025392      -0.00480056      -0.00135152
C       12.19500807       6.67629065       2.86287928      -0.00548203      -0.00528121       0.00499709
H       12.06565428       2.52164320       2.17311009       0.00407213      -0.00458654      -0.00473920
H       10.54014496       2.82004053       2.97179553       0.00539741      -0.00829552      -0.00050586
H       10.32668495       5.00265557       1.76093463       0.00103158      -0.00803134       0.00196142
H       11.84770360       4.70788160       0.95362685      -0.00067838      -0.00227721       0.00234941
H        9.39313932       2.87772394       0.73629392       0.00033686      -0.00426669       0.00093438
H       10.91461171       2.54336524      -0.04881720      -0.00115734      -0.00448709      -0.00149792
H       11.49909431       4.96990813       3.97694638      -0.00078690      -0.00280856      -0.00099829
H       13.02428746       4.71243313       3.16128152       0.00336263      -0.00957651      -0.00459348
H       11.05530491       0.33496167       1.15287518      -0.00064783      -0.00552571      -0.00146493
H        9.56626735       0.43941232       0.21140821       0.00021848      -0.00434297      -0.00202733
H        9.53106079       0.68288415       1.95816088      -0.00104170      -0.00516850      -0.00182323
H       12.74828725       6.90282808       1.94799039      -0.00659161      -0.00145200       0.00415796
H       11.22237776       7.16463250       2.78200321      -0.00392717       0.00172464       0.00496014
H       12.72908577       7.13021472       3.69785758      -0.00382599      -0.00218996       0.00372076
C        8.70865017       3.13029886       6.31288813      -0.00130647      -0.00056997       0.00235435
C       10.13796129       2.62937411       6.48187813      -0.00234342      -0.00327200       0.00382358
C        8.59918588       4.39814346       5.47244858       0.00144953       0.00020522       0.00303017
C       10.24617284       1.37470601       7.34126776      -0.00587264      -0.00295183       0.00485417
C        7.16920179       4.90304658       5.33806278       0.00219589       0.00245190       0.00240153
C       11.67886082       0.88617705       7.49711115      -0.00713515      -0.00609300       0.00702776
H        8.09666200       2.34073695       5.86254565      -0.00229390       0.00073341       0.00135148
H        8.27664378       3.31737361       7.30243827      -0.00189656      -0.00038211       0.00208867
H       10.74728970       3.42709963       6.92441436      -0.00109294      -0.00423613       0.00389224
H       10.57181724       2.43333699       5.49301507      -0.00185583      -0.00468450       0.00422442
H        9.22388096       5.18034812       5.91652823       0.00225398      -0.00097814       0.00407226
H        9.01501242       4.20802153       4.47697786       0.00186124       0.00025116       0.00312734
H        9.81768957       1.56246768       8.32873891      -0.00636968      -0.00157289       0.00448599
H        9.63436857       0.57802959       6.90978839      -0.00720835      -0.00204799       0.00497347
H        6.53534524       4.15637318       4.85474811       0.00179949       0.00407687       0.00031020
H        7.11826681       5.81795276       4.74718533       0.00399130       0.00376761       0.00415249
H        6.73691291       5.11981311       6.31659732       0.00140593       0.00109824       0.00239244
H       12.11112934       0.60914571       6.53204574      -0.00605557      -0.00764396       0.00789355
H       12.31517306       1.66410236       7.92635565      -0.00613720      -0.00716475       0.00755984
H       11.72221277       0.01526655       8.14987737      -0.01053398      -0.00589779       0.00760904
C        4.68259995       4.07198470      10.87767392      -0.00279215       0.00558490       0.00847038
C        4.94393024       5.42253005      10.21694167      -0.00358742       0.00380820       0.00448751
C        3.27529669       3.98731006      11.45615354      -0.00458807       0.00412965       0.00435192
C        6.31067587       5.54573016       9.55285673      -0.00337690       0.00301024       0.00467877
C        2.99751766       2.70274846      12.22788865      -0.00436574       0.00586355       0.00871102
C        6.54589289       6.92321629       8.94418923      -0.00304356       0.00247818       0.00340271
H        4.82806819       3.26552774      10.15121461       0.00158700       0.00322571       0.01192021
H        5.41992316       3.90433745      11.67090821      -0.00486700       0.01074600       0.01152131
H        4.83835250       6.21440415      10.96764884      -0.00453319       0.00578442       0.00237307
H        4.16637418       5.61176470       9.46833965      -0.00340372       0.00109146       0.00366187
H        3.10193654       4.84640062      12.10914126      -0.00804016       0.00624162       0.00108157
H        2.54517602       4.07460857      10.64753804      -0.00211218       0.00021245       0.00147459
H        7.09135912       5.33105843      10.29037771      -0.00342420       0.00349976       0.00488764
H        6.40103143       4.77168629       8.78248786      -0.00338210       0.00225344       0.00530079
H        3.10996061       1.81727186      11.59920895       0.00189126       0.00344235       0.01201497
H        1.96910213       2.71300254      12.62505172      -0.00614758       0.00532500       0.00494814
H        3.70130339       2.59041767      13.06821821      -0.00700080       0.01189758       0.01207349
H        5.76237041       7.17969352       8.22819120      -0.00364137       0.00238922       0.00393564
H        6.56622326       7.70057740       9.70968496      -0.00172632       0.00318862       0.00272769
H        7.49963318       6.96989592       8.41771966      -0.00350484       0.00168876       0.00244540
C        6.09697772       7.18949374       1.71770392       0.01148565      -0.00640833      -0.00161747
C        6.98325314       8.42798524       1.64428947       0.00653976      -0.00285465      -0.00455097
C        4.62720863       7.57061799       1.80540467       0.00981566      -0.01347798       0.00170686
C        8.47006855       8.11494087       1.56043101       0.00766832       0.00267965      -0.00562837
C        3.66163803       6.40136135       1.92423014       0.01621187      -0.01814222       0.00803182
C        9.31932329       9.37834885       1.53087646       0.00378996       0.00520235      -0.00959548
H        6.26249375       6.55908192       0.83494178       0.01242675      -0.00670116      -0.00115478
H        6.37124653       6.58061792       2.58716621       0.01621947      -0.00417829      -0.00153679
H        6.78464139       9.05648539       2.51989144       0.00543319      -0.00247148      -0.00511184
H        6.70569870       9.02566589       0.77030294       0.00303630      -0.00490940      -0.00500411
H        4.49807245       8.24352574       2.65832005       0.00832093      -0.01169091      -0.00004396
H        4.38612378       8.15124779       0.91128990       0.00338382      -0.01678059       0.00116453
H        8.75343586       7.48111749       2.41076336       0.01064216       0.00585291      -0.00418875
H        8.66167731       7.52905234       0.65529786       0.00909087       0.00086085      -0.00421765
H        3.77877451       5.71018566       1.08598217       0.01810138      -0.02064340       0.01029593
H        2.62212991       6.73958961       1.93284126       0.01445259      -0.02346031       0.00922101
H        3.82879905       5.83849933       2.84457928       0.02161577      -0.01373984       0.00984624
H        9.04602387       9.99838012       0.67580161       0.00324367       0.00175554      -0.01203597
H        9.16664580       9.96357839       2.44073173       0.00148924       0.00847297      -0.01198912
H       10.38359625       9.14604682       1.45649391       0.00462794       0.00793723      -0.00776643
