147
Lattice="11.798715416957522 0.0 0.0 0.0 11.798715416957522 0.0 0.0 0.0 11.798715416957522" Properties=species:S:1:pos:R:3:forces:R:3 energy=-1009230.125 stress="0.0013987517450004816 0.0008769342384766787 0.0012679658248089254 0.0008769342384766787 0.0004057420592289418 0.0005495329387485981 0.0012679658248089254 0.0005495329387485981 -0.0008188099600374699" pbc="T T T"
Bk       8.45146577      12.85744683       1.50940944      -0.02009338       0.00970560      -0.00843194
O        7.26337862       5.91317512       5.24575052       0.02217764      -0.02040434       0.00820100
O        5.73337257       7.47640131       5.79845975       0.02527094      -0.01672441      -0.01980871
C        8.01221954       8.09079679       5.76962186       0.00165033       0.00125384       0.00268087
C        7.72525822       9.40313590       6.13612380      -0.00410789      -0.00391357      -0.00315459
C        9.33318685       7.73306953       5.51303885       0.00935683       0.00534619       0.00783969
C        8.74617169      10.33881170       6.25676717      -0.01236044       0.00711954       0.00144869
C       10.35672944       8.66375855       5.62482360      -0.00158192       0.01401959       0.01227855
C       10.06515941       9.96885661       6.01015387      -0.00323063       0.00677760       0.00569078
C        6.88850766       7.06249934       5.59909114      -0.01485860       0.01440382       0.00703201
H        6.69265287       9.66603173       6.32705962      -0.00686106      -0.00518133      -0.00901166
H        9.52796315       6.70732480       5.22540986       0.01313507       0.00727937       0.01050428
H        8.49635915      11.35869412       6.52276552      -0.01618147       0.00273539      -0.00523967
H       11.37724739       8.38211776       5.40421438       0.00494435       0.01590105       0.01480603
H       10.87112914      10.68551707       6.11134077      -0.01142198       0.01515953       0.00758132
O        1.64223279       6.42684981       1.66016638      -0.00857735       0.00611436      -0.01772380
O        3.86457284       6.46740174       2.08375810      -0.01163173      -0.01488006       0.00009820
C        2.51199870       8.13968389       3.03190341      -0.00190127      -0.00173163      -0.01004440
C        3.47874970       8.48745235       3.97174996       0.00026965      -0.00558919      -0.01077698
C        1.35417846       8.90521602       2.93028992       0.00135545       0.00212686      -0.00887361
C        3.26807129       9.55527682       4.83567769       0.00425196      -0.00412190      -0.01064882
C        1.16334604      10.00695297       3.75626122       0.00492609       0.00290850      -0.00869268
C        2.11216835      10.32515175       4.72579888       0.00716384      -0.00047289      -0.00909327
C        2.69304884       6.88912794       2.16693122      -0.00515881      -0.00322270      -0.00867224
H        4.36907132       7.88059361       4.07390311      -0.00187254      -0.00854698      -0.01076733
H        0.61281269       8.59637551       2.20335920      -0.00073466       0.00504284      -0.00828998
H        4.00089417       9.75922703       5.60740469       0.00616644      -0.00717153      -0.01166907
H        0.25634810      10.59605901       3.67244484       0.00715655       0.00575667      -0.00911554
H        1.94644246      11.15732975       5.40214694       0.01021663      -0.00034787      -0.00816472
O        4.95238036       6.71784015       9.54057475       0.00836706       0.03967428       0.00752804
O        5.27676783       8.86573745      10.16829991       0.00703561       0.02771950       0.01985919
C        7.12636301       7.62532753       9.40423478       0.00141275       0.00853958       0.00678244
C        7.93927069       8.75273390       9.45706492       0.01079454       0.00285481      -0.00050713
C        7.70288463       6.39616833       9.09567927      -0.00520228       0.00340271       0.01137933
C        9.31237329       8.65079952       9.29211981       0.00591745      -0.00572813      -0.00291363
C        9.07963239       6.28733713       8.93302784      -0.00690858      -0.00603376       0.00974809
C        9.89202428       7.40896269       9.06484960       0.00180858      -0.00735113       0.00240655
C        5.63007816       7.74135803       9.72228539      -0.00539231      -0.01650728       0.00092477
H        7.44836767       9.70222722       9.63476164       0.01506591       0.00801699      -0.00335345
H        7.03685196       5.54880564       8.98324769      -0.00962001       0.00698423       0.01680844
H        9.94205231       9.53382646       9.32008261       0.01339769      -0.00786148      -0.00844511
H        9.53117921       5.33551123       8.67608681      -0.01215877      -0.00855987       0.01451417
H       10.96513222       7.32378926       8.96628556      -0.00056186      -0.01575438       0.00030836
O        6.14413632      11.96637624       1.02732481      -0.00943394       0.02109592       0.00244904
C        4.17326309      10.73107367       1.45187203      -0.00285673       0.01480120      -0.00014876
C        4.07327018      11.25160406       0.02309612      -0.00310183       0.01367208      -0.00128904
C        5.14657581      11.70238316       2.07274790      -0.00962917       0.02095075       0.00157267
C        5.50725158      11.62685842      -0.27864167      -0.00351252       0.02016047       0.00208640
H        3.22681138      10.71296136       1.98659081      -0.00387985       0.00360774      -0.00245063
H        4.57298875       9.71525744       1.44828329       0.00692537       0.01873070       0.00044348
H        3.74852134      10.48525019      -0.67914723      -0.00060255       0.01380762      -0.00228202
H        3.41843773      12.12337690      -0.03689908      -0.00569899       0.01156437      -0.00280556
H        4.66813979      12.65349628       2.32336153      -0.00998440       0.02187973      -0.00348816
H        5.66627124      11.32265993       2.95139734      -0.00606978       0.02769466       0.00221857
H        6.02745567      10.76329093      -0.69914599       0.00568226       0.02404839       0.00659195
H        5.59810654      12.50111503      -0.92402386      -0.00162900       0.02222914       0.00507921
O        2.73212868       4.96631705       6.97105585       0.00057331      -0.00814402      -0.00010657
C        1.36076308       6.26936174       5.52225613       0.00390297      -0.00503054      -0.00009894
C        0.73529993       6.10810130       6.91237308       0.00720614       0.00409155       0.00246956
C        2.69763139       5.50636317       5.63733803       0.00354373      -0.00543594       0.00107321
C        1.97233695       5.86490036       7.76476552       0.00698769      -0.00312513       0.00071311
H        0.73646657       5.89653422       4.70945655       0.00063847      -0.01064797       0.00489394
H        1.55357394       7.32064683       5.32016600       0.00363304      -0.00672770      -0.00885832
H        0.15160605       6.97516489       7.20977829       0.01557381       0.00991604       0.00211655
H        0.08427078       5.22940409       6.95592519      -0.00042298       0.01013094       0.00640326
H        2.77256870       4.67273944       4.93921981       0.00531169      -0.00377834      -0.00076106
H        3.56118962       6.16126697       5.48842975       0.00383466      -0.00463301       0.00431137
H        2.53633627       6.79001549       7.94373417       0.01277632      -0.00678962      -0.00031269
H        1.78144734       5.39545452       8.72796284       0.00532181      -0.00166535       0.00133386
O        9.38378951       1.69075182      11.07167771      -0.00434670      -0.00023632       0.00906022
C        8.35898728       2.56897214       9.13795516       0.01466858      -0.00992793      -0.00296661
C        8.12898175       1.05622548       9.12862698       0.00871930      -0.00921187       0.00330180
C        9.58775855       2.68022741      10.01639258       0.00601870      -0.00634274       0.00758254
C        8.58379194       0.61265093      10.52455685       0.01175860      -0.00748149       0.00244643
H        8.52545364       2.98301805       8.14437066       0.02915693      -0.02080878      -0.00467771
H        7.50744131       3.10838836       9.56128937       0.01380727      -0.00453927      -0.01360621
H        7.10294724       0.76897027       8.90557370       0.00599918      -0.00669554       0.01269409
H        8.76738510       0.58371681       8.38246616      -0.00011599      -0.01348513      -0.00063442
H       10.49408515       2.40241107       9.47050312       0.00903663      -0.00944856       0.01495664
H        9.74083706       3.64402599      10.49155223       0.00194515      -0.00569981       0.00744101
H        7.73248686       0.46238157      11.20380013       0.01076966      -0.02326845      -0.00269578
H        9.17892623      -0.30134333      10.50008991       0.02495247       0.00200284       0.00531616
O        7.95855696       3.46438118       1.92606276      -0.00916138       0.00425430       0.00454450
C        9.30785327       5.07460338       0.93181014      -0.00631350       0.00183751       0.00419697
C        9.37776994       5.32276527       2.45132826      -0.00672230       0.00301701       0.00377417
C        7.98738967       4.34599960       0.77111059      -0.00672817       0.00391597       0.00419603
C        8.32954796       4.36282746       3.03238506      -0.00600699       0.00225098       0.00379264
H        9.36933973       5.97882830       0.32919358      -0.00961203       0.00247353       0.00531864
H       10.13757474       4.43095203       0.62991416      -0.00685066       0.00190118       0.00234861
H       10.38376582       5.13278330       2.82291047      -0.00612190       0.00554125       0.00326899
H        9.11298558       6.34541079       2.71399087      -0.01057793       0.00239491       0.00166305
H        7.12599897       5.01751804       0.83342566      -0.00524959       0.00588205       0.00059500
H        7.89381904       3.72403224      -0.11544979      -0.00821925       0.00262475       0.00584164
H        8.68947018       3.73861075       3.84530069      -0.00619435       0.00194699       0.00315748
H        7.43936046       4.89097417       3.37864391      -0.00613809       0.00049579       0.00492379
O       11.66644519       2.84700932       3.28240626      -0.01006091      -0.00272937      -0.02201060
C       10.81297085       1.52609411       5.01252843      -0.00472511      -0.00214577      -0.01575172
C       10.05271849       1.13866261       3.73451695      -0.00786009      -0.00019193      -0.01328242
C       11.37095400       2.89916588       4.67867128      -0.00916799      -0.00048226      -0.01999398
C       10.81159258       1.92506415       2.63721871      -0.00609514      -0.01155418      -0.01671852
H       10.17730367       1.51969382       5.89754186      -0.00110830      -0.00354015      -0.01268671
H       11.62967898       0.82186129       5.17585386      -0.00312638      -0.00111023      -0.01503574
H       10.07253047       0.06173035       3.57590303      -0.01951350       0.00074449      -0.01506004
H        8.99854875       1.45854157       3.81341215      -0.00313781       0.01506982      -0.01627953
H       10.64194184       3.69293700       4.88951674      -0.01197079      -0.00211611      -0.02012153
H       12.29873146       3.13422633       5.20081141      -0.01266348       0.00474482      -0.01601051
H       11.42904050       1.27394040       2.00880790      -0.00455981      -0.01522294      -0.01062681
H       10.11262989       2.49008335       1.98570589      -0.00743404      -0.02062454      -0.02266133
O        6.18722037       0.95691745       5.91587544       0.01165703       0.00404179      -0.00938829
C        5.67946604       3.23633751       6.27731210      -0.00269276      -0.00035214       0.00186598
C        4.38174516       2.50895510       5.93002243       0.00187713      -0.00958180       0.00332202
C        6.69013420       2.27753760       5.68239731       0.00232561       0.00847065      -0.00435425
C        4.76180032       1.05458634       6.16149108       0.01344907      -0.00626627       0.00271610
H        5.77749449       4.24544599       5.87669688      -0.01152474       0.00084728       0.00463627
H        5.78951782       3.29058491       7.36420042       0.00024127      -0.00178170       0.00171971
H        3.54457606       2.83328398       6.54364231       0.00050190      -0.01586202       0.00434455
H        4.13353184       2.68068469       4.87837237      -0.00018980      -0.01191069       0.00344136
H        6.77344937       2.45163034       4.59768250      -0.00126708       0.01295880      -0.00385571
H        7.69307939       2.34299301       6.11614552       0.00289330       0.01362232      -0.00656976
H        4.56770992       0.75683230       7.19760250       0.02341561      -0.00541897       0.00491750
H        4.25133687       0.35623159       5.49576959       0.01347052      -0.01129767       0.00840569
O        9.09245102      10.54122565       1.70907731      -0.01602161      -0.00302489       0.00440636
C        7.49799485       8.88024020       2.40738212      -0.01111931      -0.00832942       0.00480175
C        7.98222580       8.63643301       0.97232951      -0.01835564      -0.00029898       0.00114328
C        8.27275050      10.12579197       2.84851722      -0.00766513      -0.01029831       0.00729555
C        9.33278759       9.31217489       0.95977379      -0.02031755       0.00387245      -0.00602053
H        6.41760604       8.99909884       2.46058013      -0.01059490      -0.01179310       0.01349755
H        7.75103134       8.05186713       3.06662249      -0.00643991      -0.01449719      -0.00392497
H        8.04460496       7.58169073       0.71626315      -0.02000395       0.00105667      -0.00450887
H        7.31440945       9.10119723       0.24678045      -0.02118325       0.00267789       0.00612462
H        7.64187386      10.98209325       3.10515608       0.00710870      -0.00214912       0.01652718
H        8.93870611       9.92632134       3.68604401      -0.00557360      -0.02277222       0.00248384
H       10.09092020       8.72904114       1.49738993      -0.01126224       0.00262004      -0.02128470
H        9.71541409       9.58948579      -0.01820398      -0.03248459       0.01071341      -0.00823447
O        2.99720465       2.61230272       9.54968130       0.01110289      -0.01407564       0.01438993
C        2.57050098       3.75046425      11.55190522       0.01070093      -0.00061030       0.00613713
C        1.22398335       3.57015178      10.84182683       0.01159799      -0.00514209       0.00787374
C        3.53769257       3.65501375      10.38624553       0.01055755      -0.00730079       0.00692677
C        1.57526114       2.69570568       9.61732421       0.01099986      -0.00807297       0.00987399
H        2.63409232       4.68338897      12.11415299       0.00759042       0.00144359       0.00218260
H        2.74134508       2.91988391      12.24319111       0.00969070       0.00478259       0.01283452
H        0.47419058       3.10097969      11.48159398       0.01802304      -0.00719628       0.01286682
H        0.82791076       4.54066538      10.53486475       0.00791476      -0.00654754       0.00762774
H        3.62138083       4.59326538       9.82812864       0.00852603      -0.01059228       0.00085753
H        4.54480045       3.34559288      10.67565298       0.00971144      -0.00563209       0.01144442
H        1.19579900       1.67216305       9.70722310       0.00396337      -0.00611883       0.00834998
H        1.18459979       3.12141522       8.68213008       0.01581164      -0.00555924       0.00934994
