144
Lattice="13.367964655855362 0.0 0.0 0.0 13.367964655855362 0.0 0.0 0.0 13.367964655855362" Properties=species:S:1:pos:R:3:forces:R:3 energy=-1559267.375 stress="-0.0005424281116575003 0.00010411672337795608 -0.00012320636960794218 0.00010411672337795608 -0.0007275580428540707 0.0001431870405212976 -0.00012320636960794218 0.0001431870405212976 -0.0007963550160638988" pbc="T T T"
Bk      13.33424176      13.28210453       0.06145115       0.00200443      -0.03687792       0.01888764
I        1.08254143      13.48025544       5.48850182      -0.02551487      -0.00926266      -0.01939099
I        4.05006103      13.74345503       5.59750165      -0.01994768       0.03812867       0.00549086
I       11.56401156      13.15832735       5.44537162      -0.02841313      -0.00148958      -0.01051107
C        1.64917905       7.05081864       8.51603425      -0.01995105       0.00756109       0.00547121
C        2.73042530       7.73299398       7.69077860       0.00388610      -0.00307700      -0.00001569
C        1.99793720       5.62669987       8.92423093      -0.01143363       0.00144026       0.00996303
C        2.38233774       9.16797612       7.32039591      -0.00913307       0.00405756      -0.00262606
C        0.90182421       4.96404933       9.74570382      -0.01771420       0.01401356       0.00791726
C        3.46764999       9.85168163       6.50703444       0.00099501      -0.00663950      -0.00285551
H        1.45392501       7.64606218       9.41595773      -0.01465561       0.00529315      -0.00432560
H        0.71012269       7.04666967       7.94970339      -0.00426161       0.00172491      -0.00056890
H        2.91308899       7.15658265       6.77552452      -0.00338273      -0.00025661       0.01095116
H        3.67690255       7.72017788       8.24513216      -0.01236719       0.00324043       0.00704592
H        2.20158574       5.03291834       8.02732724      -0.01213704      -0.00039439       0.01469639
H        2.93295538       5.63710071       9.49372494      -0.01638404       0.00452119       0.01370494
H        1.43948941       9.17815175       6.76370707       0.00011298      -0.00069489      -0.00479040
H        2.19385020       9.73898367       8.23542687      -0.00512039       0.00451909      -0.00712970
H        0.70281650       5.53115696      10.65744669      -0.01835277       0.01403490       0.00660802
H        1.17110582       3.94905736      10.03441589      -0.02076584       0.00890017       0.01433034
H       -0.03057593       4.91100005       9.17964290      -0.01632647       0.01122645       0.00697531
H        4.40554316       9.89101040       7.06461515      -0.00286067      -0.00182381       0.00031345
H        3.66151073       9.31057968       5.57715401      -0.00062654      -0.00798434       0.00122327
H        3.19584549      10.87449607       6.24848961       0.00169938      -0.00273737      -0.00915316
C        9.78155437       8.53991000      12.57571397       0.00879550       0.00291198       0.01628527
C        8.47158941       9.31844146      12.56517491      -0.00878131      -0.00226873       0.01205223
C        9.58987721       7.02722037      12.56212353       0.00127655      -0.00190330       0.01430136
C        8.66335912      10.82980686      12.51590828       0.00373533       0.00486588       0.00985986
C       10.90473993       6.26137380      12.50406185      -0.00009876       0.00190032       0.01253961
C        7.34872037      11.59474585      12.44843972      -0.00026372       0.00099550      -0.00614030
H       10.38129762       8.83553490      11.70715888       0.00240731      -0.00091839       0.02010855
H       10.36963120       8.82487223      13.45619973      -0.00483957      -0.00155834       0.01594141
H        7.88043867       9.05513649      13.45037254      -0.00072896       0.00327843       0.00504726
H        7.87252095       9.00614389      11.70132242       0.00631870       0.00200363       0.01069087
H        9.02501198       6.72724698      13.45058894       0.00353207      -0.00207472       0.01516095
H        8.96909824       6.75282903      11.70344782       0.00184095      -0.00001813       0.01401165
H        9.23601794      11.14824773      13.39301591      -0.01215701       0.00485285       0.01555526
H        9.27862511      11.08374277      11.64632757       0.00630344       0.00119836       0.01775223
H       11.47490627       6.52805024      11.61111512       0.00051656       0.00140350       0.01191764
H       10.74455398       5.18230859      12.48060588       0.00253897      -0.00008485       0.01259961
H       11.53009930       6.49007167      13.36940295       0.00307693      -0.00007319       0.01321563
H        6.78897979      11.33282656      11.54800151       0.01165104      -0.00134871      -0.01270440
H        6.71478544      11.36258934      13.30596356      -0.01142828       0.00056978      -0.01276806
H        7.50892542      12.67366739      12.43807690      -0.00200113      -0.00040525      -0.00421917
C        6.89245277       2.93035943       8.81011811       0.00658983       0.00209984      -0.00085315
C        5.57946363       2.27768638       9.21897435       0.00365850      -0.01446778       0.01093787
C        8.10294051       2.34844815       9.52912430       0.00738008      -0.00562853       0.00645453
C        4.36847859       2.86375793       8.50783441       0.00384222      -0.00515351       0.00297308
C        9.41383145       3.00979632       9.12757607       0.00579998      -0.00540249       0.00133872
C        3.06981184       2.17904651       8.90464405       0.00751460      -0.00776672       0.00280821
H        7.02550724       2.81783843       7.72850992       0.00379784      -0.00644493       0.00583225
H        6.83818387       4.00989430       8.99925737       0.00361922      -0.01153094       0.00316054
H        5.44734881       2.37412746      10.30378162       0.00605212      -0.01190861      -0.00026631
H        5.63104671       1.20338272       9.01002825       0.00559191      -0.00495571       0.00138380
H        7.95663231       2.44341977      10.61041465       0.00978355      -0.00164922       0.00235897
H        8.15401598       1.27489410       9.32284135       0.00795551      -0.00382644       0.00534628
H        4.31096767       3.93570073       8.71934155       0.00525935      -0.00664043       0.00429142
H        4.50652508       2.76505090       7.42772913       0.00433178      -0.00823008       0.00607076
H        9.58149110       2.92046415       8.05251257       0.00360742      -0.00522138      -0.00016680
H       10.26762009       2.55840343       9.63484677       0.00600411      -0.00320667      -0.00179154
H        9.40773923       4.07457094       9.37216892       0.00655429      -0.00244229       0.00009751
H        3.11971341       1.11036430       8.68881292       0.00685918      -0.00611460      -0.00106134
H        2.86916215       2.30012907       9.97159418       0.00998959      -0.01210882       0.00796106
H        2.21681023       2.57381748       8.35111257       0.00437385      -0.00594902       0.00926486
C        8.54869303      10.59565979       5.63270039       0.00855690       0.01076776      -0.00592105
C        8.84080000       9.16414039       5.20440305      -0.00061432      -0.00443697       0.00260994
C        7.31427081      10.75488968       6.51034852      -0.00796184      -0.00715458      -0.00947052
C       10.10308012       9.04804779       4.35812566       0.00177473      -0.00269279      -0.00358799
C        7.13568971      12.18325519       7.00109984       0.00726964       0.01068068      -0.00168365
C       10.45346124       7.60839720       4.00820579      -0.00452525       0.00278038      -0.00492147
H        9.42229857      10.99346284       6.16136105       0.00922766      -0.00665055       0.00268519
H        8.44231091      11.22704170       4.74387801       0.01031468       0.00313145       0.00961950
H        7.98664294       8.75530277       4.64991059      -0.00352627       0.01086940      -0.00567025
H        8.94958674       8.53321677       6.09502837      -0.00344287       0.00068159      -0.01084992
H        6.42374423      10.44092905       5.95700717       0.01277256       0.02121048      -0.00546485
H        7.38451571      10.08037513       7.37003112      -0.00054126      -0.00978769      -0.01093081
H        9.97646891       9.63483359       3.44290002      -0.00140566       0.00077996      -0.00440997
H       10.93421064       9.51529619       4.89560123       0.00030124      -0.00280450      -0.00449592
H        7.99493603      12.50064424       7.59655103       0.02449439      -0.01541811       0.00827140
H        6.23363531      12.29360840       7.60381071       0.01925206       0.00594220       0.00930725
H        7.04409787      12.87324867       6.15967457       0.02210635      -0.00014600       0.01771617
H       10.62072114       7.01782341       4.91200997      -0.00016728      -0.00033040      -0.00464745
H        9.64541187       7.12870698       3.45109983      -0.00177725       0.00266844      -0.00487483
H       11.35834466       7.54634468       3.40156594      -0.00088552       0.00024248      -0.00799811
C        4.33912292       4.17271669       4.53271362       0.00487835       0.00464958       0.01096016
C        3.26208848       4.99662011       3.84345223      -0.00042381       0.01126674      -0.00235093
C        5.67544371       4.16915688       3.80111781       0.00457920       0.00962886      -0.00271413
C        1.92157850       4.94244213       4.56714777      -0.00186974      -0.00916359       0.00910228
C        6.72354509       3.32095243       4.50912794       0.00380492       0.01009798      -0.00355268
C        0.85572674       5.80676520       3.91088924      -0.00435218      -0.00876755       0.01188815
H        4.48605445       4.55303603       5.55102596       0.00631420       0.00624174      -0.00184962
H        3.99184916       3.14164955       4.64726713       0.00651489       0.01141369       0.00130880
H        3.13104316       4.64019792       2.81425191       0.00083463       0.00996606       0.00801536
H        3.59301428       6.03938632       3.76351525      -0.00953409       0.00480232       0.01053158
H        5.52582195       3.79384989       2.78342028      -0.00074604       0.00254554       0.00023696
H        6.03734007       5.19780574       3.69530414       0.00337765       0.00530308      -0.00531590
H        1.58495485       3.90226312       4.62102451       0.00466894      -0.00780943      -0.00191820
H        2.06429024       5.26636948       5.60317554      -0.00228097      -0.01415223       0.00767156
H        6.88997484       3.68150816       5.52604979       0.01082069       0.01295932      -0.00599208
H        7.68203180       3.33580798       3.98791097       0.00165157       0.00304929      -0.00872061
H        6.39188130       2.28347246       4.58430263       0.00336930       0.00793730       0.00147640
H        1.16584397       6.85380732       3.88315740      -0.00979776      -0.00564623       0.01997165
H        0.67584430       5.49405540       2.87988120      -0.00288883      -0.00140444       0.00958809
H       -0.09497399       5.75818682       4.44358495      -0.00409397      -0.01709829       0.01148131
C        2.79789805       9.58496400       1.91271328      -0.00871354       0.00815642      -0.01769622
C        4.26645084       9.83970436       2.21648210       0.00734055      -0.01037717      -0.01047404
C        2.50063524       8.17914582       1.41384012      -0.00589240      -0.00147948      -0.01349294
C        4.52902423      11.25814599       2.70010922      -0.00127870       0.00367409      -0.01302388
C        1.03012367       7.97368819       1.08134187      -0.00566256       0.00588687      -0.01688947
C        5.99293749      11.51570805       3.01809651      -0.00262624      -0.00077491      -0.00716212
H        2.19716890       9.79914447       2.80443353      -0.00391982       0.00902209      -0.02549958
H        2.48091569      10.29824656       1.14469861       0.00869431      -0.00135016      -0.02003354
H        4.86229949       9.63406370       1.31880852       0.00129829      -0.00593352      -0.00108075
H        4.60914462       9.12606189       2.97576405      -0.00855574       0.00114197      -0.00813615
H        3.11431317       7.97755605       0.53012830      -0.00745770      -0.00388148      -0.01434967
H        2.81702530       7.45553906       2.17012824      -0.01340461       0.00146821      -0.01402971
H        4.17517007      11.97071052       1.94523886       0.00679504      -0.00570674      -0.01615894
H        3.92934352      11.45387754       3.59291777      -0.00234853       0.00398209      -0.01555133
H        0.40375879       8.14829644       1.95836108      -0.00791529       0.00687337      -0.01654248
H        0.83337076       6.95920491       0.73251316      -0.01030597       0.01056039      -0.02046629
H        0.70492327       8.66860746       0.30319368      -0.00331883       0.01202692      -0.01629202
H        6.34515406      10.82511693       3.78508865      -0.00245351      -0.00429183      -0.00686449
H        6.62975958      11.37935230       2.14130712       0.00198990       0.00136612      -0.00709070
H        6.14429331      12.52801531       3.39505475      -0.00331027      -0.00421759      -0.00384467
C       11.28791639       9.79471259       8.98199733       0.01352006      -0.00608891      -0.00053295
C        9.85994000       9.27068860       8.93736696      -0.00295430       0.00258607      -0.00019757
C       11.36714399      11.31629991       9.00151671       0.00144547       0.00250000       0.00518855
C        9.75719513       7.75080767       8.92971737       0.00184488      -0.00365698      -0.00774510
C       12.79667163      11.83028832       8.97541086       0.00626096      -0.00227547       0.00052159
C        8.31870786       7.24992844       8.94681677       0.00247288       0.00339912      -0.01523417
H       11.80440472       9.39049335       9.86208213       0.00496782      -0.00282679      -0.00811303
H       11.83837072       9.41824393       8.11171359       0.00255497       0.00458869      -0.00241685
H        9.36718354       9.67075760       8.04831778       0.00481486       0.00268190       0.00401711
H        9.29761438       9.66566805       9.79149872       0.00922489      -0.00691203      -0.00033414
H       10.83536899      11.71825929       8.13415368       0.00291507       0.00285566       0.00846258
H       10.84749505      11.69688666       9.88891815       0.01019524      -0.00505204       0.00604987
H       10.27581804       7.35819413       8.04846119       0.00156957       0.00123217      -0.00977442
H       10.29496374       7.35072962       9.79468674      -0.00274515      -0.00778503      -0.00852680
H       13.36138916      11.44394101       9.82919215       0.01257856      -0.01256142      -0.00996315
H       12.83859373      12.92006713       8.97467888       0.00704936      -0.00283724       0.01427791
H       13.31059478      11.49769929       8.07235029      -0.00176311       0.00846654      -0.00871924
H        7.77998303       7.64329356       9.81144635      -0.00068611      -0.00156270      -0.01276270
H        7.77701958       7.56809226       8.05409031       0.00423273       0.00652294      -0.01425928
H        8.26942360       6.16134715       8.99497521      -0.00211082       0.00022539      -0.01992015
