145
Lattice="13.105704946586409 0.0 0.0 0.0 13.105704946586409 0.0 0.0 0.0 13.105704946586409" Properties=species:S:1:pos:R:3:forces:R:3 energy=-995261.625 stress="-0.00023343284556176513 -4.494404493016191e-05 -8.356611215276644e-05 -4.494404493016191e-05 -0.0005427359137684107 -0.00017709539679344743 -8.356611215276644e-05 -0.00017709539679344743 -8.880852692527696e-05" pbc="T T T"
Bk      13.32697442      13.82682666       0.01489000       0.00402886      -0.00592208      -0.00797835
O       11.34195451      10.14487883      12.43405918      -0.04096287      -0.00270021       0.02721904
N       11.73581549      12.35010019      13.24278413       0.00804996      -0.00477998      -0.00988838
C       11.52455280      11.23580657      12.83321734      -0.02075357      -0.03335676      -0.00261602
O        4.29058328      13.15886998       1.62933092      -0.00104177       0.01583103       0.00448301
N        2.09701799      12.97035796       0.72352902       0.00263467       0.01045363       0.00106128
C        3.21609609      13.05357766       1.16763154       0.01647913       0.01486460       0.00920929
O        6.02941715      11.56318582      12.81844812      -0.01724041       0.00591731      -0.01066279
N        7.00955362      13.51685227      11.81993242      -0.01122022       0.00503898      -0.00610614
C        6.52147737      12.54831881      12.32311212      -0.01530160       0.00311491      -0.00714146
O        9.78412241      10.25686604       9.46380644      -0.00090590       0.00357991      -0.00162111
C       11.02251033      10.83639010       9.13055186       0.00151891       0.00398886       0.00832938
C        8.77681921      11.23767772       9.71009218      -0.00114846       0.00296570      -0.00183548
C       12.07937041       9.75778028       9.07700750      -0.00026155       0.00239348       0.00706723
C        7.46342886      10.54010091       9.94322085      -0.00104225       0.00225464      -0.00332627
H       10.94208945      11.35502609       8.15976812       0.00726763       0.00994143       0.01085597
H       11.29456917      11.59828327       9.87616369      -0.00121529      -0.00095871       0.01437390
H        9.04966489      11.85089407      10.57816160      -0.00199136       0.00239173      -0.00120080
H        8.71461515      11.91393251       8.84272871      -0.00066373       0.00364140      -0.00143600
H       13.04565847      10.19088952       8.81461960       0.00129773       0.00129202       0.01093697
H       12.16351442       9.26970109      10.04706090      -0.00382070      -0.00146338       0.00552091
H       11.82970955       9.00397825       8.32876754      -0.00011048       0.00562802       0.00377576
H        6.67681999      11.27996523      10.07600829      -0.00135662       0.00174440      -0.00279913
H        7.22968009       9.89240360       9.09889339      -0.00045085       0.00301060      -0.00402975
H        7.50269402       9.94518370      10.85481538      -0.00084943       0.00117542      -0.00413102
O        8.04007628       8.30257546       7.38584758      -0.00076425      -0.00128770      -0.00354788
C        8.57584489       7.25874450       8.18343042       0.00066546      -0.00165653      -0.00501192
C        9.01406997       8.87273783       6.53483947      -0.00209418      -0.00051749      -0.00450450
C        7.49143960       6.72446663       9.08528625       0.00123864      -0.00424254      -0.00584123
C        8.46988800      10.14826880       5.93775711      -0.00324056       0.00010872      -0.00213696
H        8.96873974       6.46099710       7.53532109       0.00169672      -0.00026417      -0.00604847
H        9.40841900       7.65419374       8.77954568       0.00009719      -0.00139585      -0.00451303
H        9.91905706       9.08833678       7.11468379      -0.00107288      -0.00121412      -0.00592616
H        9.28518050       8.15262323       5.74624487      -0.00376028       0.00028366      -0.00577450
H        7.88000332       5.89630182       9.67976556       0.00287881      -0.00300688      -0.00527146
H        7.13956535       7.50852266       9.75532787      -0.00128474      -0.00484768      -0.00656155
H        6.64353074       6.36333636       8.50040340       0.00274967      -0.00663605      -0.00645199
H        9.21798908      10.60353288       5.28740695      -0.00488773       0.00036998      -0.00380958
H        7.57270119       9.96120699       5.34775305      -0.00482853       0.00066140       0.00017485
H        8.21961580      10.85483859       6.72910459      -0.00094055      -0.00044581      -0.00095673
O        3.36187556       8.84806385       2.62690383      -0.00589903       0.00528300      -0.00538890
C        2.23155589       9.44944545       3.21161378      -0.00724393       0.00412285      -0.00724480
C        4.29766582       9.81412876       2.15252573      -0.00605732       0.00550205      -0.00541219
C        1.28490319       8.36352728       3.66811308      -0.00475073       0.00288212      -0.00520791
C        5.51224231       9.10516387       1.61872341      -0.00514364       0.00510740      -0.00296211
H        2.54111851      10.07373776       4.06647139      -0.00883907       0.00654632      -0.00853711
H        1.74010719      10.12048415       2.49021685      -0.00892958       0.00156692      -0.00879019
H        3.83600757      10.42612068       1.37006624      -0.00548097       0.00399444      -0.00687903
H        4.56884927      10.49111304       2.97545305      -0.00748833       0.00670692      -0.00601286
H        0.40867868       8.79968691       4.14933036      -0.00543030       0.00157528      -0.00545496
H        0.95539694       7.76542719       2.81824992      -0.00380025       0.00079980      -0.00407834
H        1.77900515       7.70083872       4.37924419      -0.00294197       0.00506565      -0.00453402
H        6.22784510       9.84131318       1.25690066      -0.00521691       0.00456217      -0.00404143
H        5.95252457       8.48129330       2.39477212      -0.00505750       0.00680773      -0.00150485
H        5.23709653       8.46906559       0.77668878      -0.00405475       0.00333103      -0.00192003
O       11.07125322       2.71258297       2.70939871       0.00885078      -0.01124994      -0.01707521
C       12.14219287       1.89939466       3.11451428       0.00931689      -0.00509167      -0.00626422
C       11.49253618       3.98780619       2.25349261       0.00384402      -0.00378215      -0.00121012
C       11.61011609       0.61903736       3.70652955       0.00936902      -0.00756508      -0.01149133
C       10.27868430       4.81329863       1.91426793       0.00054395      -0.00998355      -0.00484374
H       12.80391751       1.68529696       2.24248223       0.02019075      -0.00172430       0.00092697
H       12.77180772       2.43580115       3.83860194      -0.00121838      -0.00189409       0.00060967
H       12.09588290       4.47606642       3.03262966      -0.00774913      -0.00646135       0.00944564
H       12.14330901       3.86704914       1.37184599       0.01360291       0.00971023       0.00413445
H       12.43419653      -0.04510019       3.96741453       0.00945957      -0.00467622      -0.00476810
H       11.03758269       0.83202507       4.60865562       0.00076823      -0.00987571      -0.01639412
H       10.96146826       0.10678026       2.99761884       0.01703778      -0.00940865      -0.01718199
H       10.58477704       5.79624059       1.55373949      -0.00375034      -0.00458844       0.00633238
H        9.68906802       4.32530091       1.13943199       0.01092224      -0.00770210      -0.01421052
H        9.64517331       4.93970541       2.79189804      -0.00793251      -0.02256830      -0.00911793
O        7.74825880       2.87226571       4.04703960       0.00150725      -0.00809932       0.00298369
C        7.76326477       1.69768462       3.23803047       0.00090136      -0.00826491       0.00323284
C        8.35814430       2.65282989       5.29929167      -0.00007822      -0.00803179       0.00351781
C        7.16085984       1.99651650       1.89247222       0.00229955      -0.00677919       0.00302303
C        8.32609592       3.93088080       6.10138068       0.00154258      -0.00703079       0.00176540
H        8.80076643       1.36031992       3.12749878       0.00080013      -0.00935714       0.00411439
H        7.20460606       0.90144623       3.75223326      -0.00030693      -0.00764978       0.00276312
H        7.83311571       1.84749749       5.83673209      -0.00178039      -0.00655928       0.00393754
H        9.39669664       2.32334545       5.15011231      -0.00046599      -0.01027913       0.00483274
H        7.18933179       1.11889064       1.24712032       0.00319593      -0.00559098       0.00159657
H        6.12229598       2.31265474       1.98842761       0.00208999      -0.00771346       0.00230298
H        7.72064736       2.78747534       1.39420793       0.00257012      -0.00563414       0.00531179
H        8.78568203       3.78452427       7.08044338       0.00186011      -0.00591613       0.00172289
H        8.86736929       4.72247405       5.58097801       0.00174958      -0.00835350       0.00020392
H        7.29814084       4.26420207       6.24850376       0.00180596      -0.00598617       0.00176276
O        3.21272646       4.03960461      11.28512291       0.00212941       0.00558838      -0.00098363
C        4.50895078       4.62089876      11.20981042       0.00231563       0.00539064      -0.00063966
C        3.25847538       2.63400121      11.20851982       0.00339299       0.00549039       0.00191763
C        4.36518525       6.12028059      11.27327814       0.00346651       0.00546014      -0.00150985
C        1.83760274       2.13713713      11.36020060       0.00394514       0.00354530       0.00093500
H        5.12710178       4.23967831      12.03497840       0.00165620       0.00562875      -0.00014603
H        4.99411112       4.31015272      10.27493600       0.00269593       0.00458576      -0.00014269
H        3.67421526       2.30842690      10.24567995       0.00504307       0.00409982       0.00319213
H        3.90625991       2.21529333      11.98992194       0.00285903       0.00771371       0.00345552
H        5.34604065       6.59273660      11.23662207       0.00411516       0.00423361       0.00065290
H        3.77509881       6.48445578      10.43175870       0.00604969       0.00605551      -0.00307517
H        3.87141495       6.42323083      12.19586148       0.00177465       0.00630791      -0.00272354
H        1.83218435       1.04218761      11.37428144       0.00547702       0.00345101      -0.00382273
H        1.43132824       2.52535761      12.30616760       0.00355260      -0.00168481       0.00286515
H        1.20775239       2.49822538      10.54737558       0.00348371       0.00610532       0.00239584
O        3.30680376       3.35052797       2.98321152       0.00228781       0.00062227       0.00400244
C        2.82713353       2.22244190       3.68991231       0.00379774       0.00688848       0.01490879
C        2.29272920       3.97042105       2.22534575      -0.00200704       0.00296932       0.01181918
C        3.97075847       1.57784727       4.43120888       0.00687712       0.01039220       0.01335764
C        2.82900806       5.23389566       1.60395445      -0.00024989      -0.00306720       0.00073765
H        2.03664252       2.53882062       4.38905165       0.00836426       0.01388836       0.01703838
H        2.37432375       1.50999406       2.98512544      -0.00161135       0.00239977       0.02280420
H        1.94380049       3.27104770       1.44191610      -0.01491648       0.00159088       0.01879501
H        1.42607704       4.18765516       2.86897659       0.00626090       0.01155379       0.02018693
H        3.62200444       0.67897763       4.94206677       0.00751191       0.01671816       0.02487719
H        4.75056706       1.28848984       3.73108829       0.00106186       0.00120107       0.01072976
H        4.38914845       2.26431857       5.16664745       0.01417884       0.01656076       0.00344884
H        2.05804204       5.71236231       0.99835522      -0.00348909       0.00004628       0.00736817
H        3.16783583       5.93642746       2.36526284       0.01244345      -0.00258240      -0.00531754
H        3.66999303       5.00115018       0.95353125      -0.00901060      -0.01145439      -0.00765717
O        5.67285485       6.47198225       3.95289751       0.00010186      -0.00238398      -0.00181165
C        6.84658353       6.09067204       3.25943188      -0.00125176      -0.00250238      -0.00396162
C        5.96882650       7.12400501       5.16979423       0.00282910      -0.00097263      -0.00324833
C        6.45205833       5.51733318       1.92282375      -0.00374654      -0.00368305      -0.00268990
C        4.68360841       7.61129765       5.79074923       0.00407517      -0.00276083       0.00071555
H        7.49688528       6.97218016       3.13027156      -0.00192556      -0.00244111      -0.00604831
H        7.40040454       5.34494730       3.84119419       0.00025299      -0.00173211      -0.00419474
H        6.50095215       6.44347945       5.84938169       0.00632739       0.00048932      -0.00456306
H        6.64633203       7.96799748       4.98097618       0.00063989       0.00006491      -0.00619988
H        7.34064350       5.21936972       1.36645006      -0.00471886      -0.00317283      -0.00453006
H        5.82312107       4.64089953       2.06685235      -0.00284141      -0.00407009      -0.00102090
H        5.90323142       6.25586913       1.34011621      -0.00564292      -0.00430179      -0.00173791
H        4.89628351       8.11730892       6.73315314       0.00678502      -0.00049226      -0.00113794
H        4.18464939       8.30348667       5.11225748      -0.00005621      -0.00507125       0.00138052
H        4.00972443       6.77514996       5.98214696       0.00672064      -0.00380893       0.00514150
O        9.62548450       3.42497326       9.66586227      -0.00055817       0.00091073       0.00012298
C       11.00900404       3.19703536       9.56965172      -0.00059509      -0.00054771       0.00439600
C        8.86241030       2.21818371       9.59456424      -0.00140661       0.00110816       0.00463068
C       11.72867683       4.51631218       9.72662184      -0.00009607      -0.00030482      -0.00057390
C        7.40417481       2.57268320       9.68629404      -0.00129473       0.00352773      -0.00310826
H       11.32694752       2.48045528      10.34798607      -0.00290281       0.00312287       0.00874582
H       11.24915120       2.73526958       8.59803224       0.00117711      -0.00563307       0.00727886
H        9.09354684       1.70816837       8.64575792       0.00146306      -0.00467749       0.00850672
H        9.13328120       1.54544698      10.41803475      -0.00478283       0.00554025       0.00956249
H       12.80741277       4.38641828       9.62780480       0.00001796      -0.00141792       0.00262616
H       11.39688599       5.22096795       8.96389548       0.00210692      -0.00396204      -0.00496173
H       11.51742279       4.95237743      10.70334814      -0.00217262       0.00465584      -0.00334918
H        6.80735506       1.66258823       9.67526950      -0.00236362       0.00419885       0.00011537
H        7.20585696       3.05318533      10.64294883      -0.00448331       0.00993664      -0.00706989
H        7.11430776       3.24074612       8.87283991       0.00288051      -0.00101957      -0.00835983
