141
Lattice="12.43137884228416 0.0 0.0 0.0 12.43137884228416 0.0 0.0 0.0 12.43137884228416" Properties=species:S:1:pos:R:3:forces:R:3 energy=-374128.40625 stress="-0.001779145561158657 0.000747882091673091 0.0012390207266435027 0.000747882091673091 -0.0008833581814542413 1.6060057532740757e-05 0.0012390207266435027 1.6060057532740757e-05 -0.002835534978657961" pbc="T T T"
Ca      12.53418940      11.32787128       1.63672410      -0.01554157       0.01015189       0.00072986
Br       0.89012928      11.17819763       4.67639488      -0.02055853       0.02526844      -0.01508392
O       -0.46910394      11.72149713       3.90981392      -0.01651305      -0.02169862       0.01260687
O        1.43186029      12.29737775       5.69271091      -0.04615393      -0.01544425      -0.00514254
O        0.57651997       9.77613188       5.39550681      -0.00544374      -0.00144905      -0.00465617
O        1.92812835      10.93956175       3.42782408      -0.03324944       0.01508273       0.01613617
Br       7.83825799      11.82596085       8.43824661       0.00551862       0.00728398       0.00657802
O        8.39780130      11.90319602       9.96564779      -0.00116891      -0.00078954       0.00882006
O        8.96449938      12.44831517       7.43349005       0.00723475       0.01378658       0.01363885
O        7.51432518      10.29894289       8.01659018       0.01155391       0.00812566      -0.00388715
O        6.48511029      12.72739469       8.31024044       0.00447869       0.00376141       0.00653540
S        5.65088270       1.73823839      11.05068314      -0.00162468      -0.00535560       0.00376010
O        5.64700278       2.11741933      12.50776797      -0.01650629       0.00363952       0.00068641
C        7.11639281       2.52364165      10.35986458      -0.00303894       0.00330964       0.01102355
C        4.45897157       2.84268340      10.25659802      -0.00526285      -0.02361888      -0.01128465
H        7.96081913       1.88378345      10.60439584      -0.00095338       0.01072238       0.02135709
H        7.20191738       3.50762401      10.82095504      -0.01315647       0.00578080       0.00712167
H        7.02395689       2.58156923       9.27792372       0.00675713      -0.00203010       0.01021802
H        4.56380816       2.77257820       9.17564157      -0.00226862      -0.03779096      -0.00958207
H        4.66002665       3.85757157      10.60640384      -0.01347177      -0.01751862      -0.02563708
H        3.45978952       2.52483678      10.54578602      -0.00304133      -0.02658069      -0.00778351
S       13.04292328      10.17183642       9.35042333       0.01904136      -0.00322556       0.01326800
O       13.30287702       8.68461474       9.38601735       0.01381859      -0.00380874       0.02070801
C       12.08623668      10.51842125      10.84036396       0.02188081       0.00851226       0.01136714
C       11.67779207      10.48728685       8.22889387       0.01911712      -0.00813410       0.01153636
H       12.61832395      10.04003825      11.66284922       0.02333698       0.01240277       0.01222102
H       11.09942310      10.06948844      10.72615537       0.02091289       0.01000813       0.01663030
H       12.00988790      11.59801049      10.96572870       0.02602635       0.00939776       0.00431571
H       11.34609471      11.50852526       8.40185528       0.02820401      -0.00276150      -0.00398953
H       10.88525417       9.76879654       8.43815679       0.01315501       0.00203598       0.02138704
H       12.03940646      10.37800978       7.21331513       0.01605501      -0.02535455       0.01421633
S       10.07603057       6.97477623       9.83902343       0.01121622      -0.00128019       0.00071013
O        9.68846535       8.09426167       8.93817447       0.00848472      -0.00441432      -0.00329542
C       11.41045353       6.08461723       9.02020611       0.01258466      -0.00073725       0.00278488
C        8.78618424       5.72540858       9.66790719       0.01382166      -0.00368369       0.00481448
H       12.23951586       6.79145557       8.97753951       0.01083583       0.00073990       0.00034890
H       11.09495848       5.80798838       8.01473935       0.01250441      -0.00517637       0.00434484
H       11.68460023       5.20391958       9.60211065       0.01573155       0.00195312       0.00521977
H        9.05090367       4.84692664      10.25545518       0.01440306      -0.00023383       0.00949264
H        8.66915669       5.46561825       8.61533074       0.01580924      -0.00959943       0.00622387
H        7.87769592       6.18741579      10.05557852       0.01219462      -0.00469686       0.00159431
S        4.68677361       9.60818899       6.53217899       0.00342549       0.01051128      -0.01393437
O        4.60662778      10.70040834       5.52599620      -0.00471328       0.00326478      -0.01482058
C        5.94337317       8.44925590       5.95004474       0.00706834       0.01291049      -0.01162872
C        3.27233600       8.51925832       6.25231046       0.00795525       0.00059029      -0.00823784
H        6.90656943       8.92776976       6.11393075       0.00509183       0.01842649      -0.01624950
H        5.77960003       8.24301951       4.89061593       0.00474171       0.00796714      -0.01020958
H        5.88374155       7.53676893       6.54593190       0.01434962       0.01589811      -0.00765358
H        3.44376886       7.56111149       6.74332291       0.01232999       0.00411369      -0.00407756
H        3.13348164       8.39992009       5.17677865       0.00882649      -0.00432953      -0.00742684
H        2.39090189       8.99002985       6.67850402       0.00677991      -0.00117111      -0.00929873
S        9.53618291       9.55282447       0.47675743      -0.01879418       0.01774174      -0.00133920
O       10.40229679      10.60998923       1.14362888      -0.01601034       0.01587576      -0.00537175
C        8.07595114       9.42633642       1.49355975      -0.01268196       0.01684655       0.00727648
C       10.24119493       7.95050225       0.88028978      -0.01505455       0.01890641      -0.00615004
H        7.52513103      10.35858896       1.38993956      -0.01092546       0.01827903       0.01309508
H        8.36137525       9.25512972       2.53096286      -0.00539023       0.01509912       0.00489226
H        7.46876671       8.60355861       1.12105734      -0.01681212       0.01840292       0.01112470
H        9.50887530       7.20105058       0.57986658      -0.01380484       0.01764265      -0.00525318
H       10.48729615       7.89479950       1.94175807      -0.01226562       0.01835721      -0.00714618
H       11.14284062       7.83734002       0.28602676      -0.01603895       0.02254754      -0.00820443
S       10.85558022       1.72729188       2.02055792      -0.01875442       0.00781348       0.00400400
O       11.83188493       1.02795386       1.06995110      -0.01411271       0.01214257       0.00725836
C        9.26889523       1.58637504       1.19533864      -0.01368493       0.00861444      -0.00607371
C       11.18573352       3.47087647       1.75196250      -0.01871232       0.00850981       0.00889954
H        9.03599448       0.52269198       1.19755407      -0.01047324       0.00800040      -0.01447694
H        9.37016172       1.93827107       0.17109342      -0.00876647       0.01489078      -0.00327122
H        8.52764812       2.14893305       1.75402836      -0.01883469       0.00280307      -0.00761564
H       10.51087637       4.05933113       2.36519419      -0.02415532       0.00870358       0.00229360
H       11.08577472       3.69061395       0.68890467      -0.00900578       0.00671669       0.00792225
H       12.21138515       3.63263259       2.07770047      -0.02214468       0.01065098       0.01810350
S        8.92589270       1.86605794       5.10243992      -0.01481476       0.00607824      -0.00174296
O        9.15821105       2.84856822       3.97976909      -0.02986112       0.00358844      -0.00697160
C        7.93015885       0.54000218       4.39960215      -0.00385588      -0.00566331       0.00729853
C        7.62195684       2.62473815       6.08609584      -0.01666355      -0.00256890       0.00187805
H        8.60300881      -0.09023752       3.81976576       0.00037552       0.00102334       0.00549931
H        7.17573150       0.99335139       3.75546817      -0.01228278      -0.01640488       0.01005179
H        7.47083076      -0.04536266       5.19319730       0.00696021      -0.00820943       0.01133797
H        7.20531604       1.89720333       6.78038430      -0.00631788      -0.00314520       0.00700761
H        6.86845298       3.00276781       5.39432973      -0.02458329      -0.01259582       0.00552113
H        8.07909329       3.45416414       6.62514131      -0.02136264       0.00295556      -0.00304136
S        2.32105430       1.10726916       2.07623361      -0.01244774      -0.00633538      -0.00581670
O        2.18979250      -0.02590608       1.06995943      -0.02189060      -0.00045735      -0.01143301
C        2.60663219       2.56769107       1.06932548      -0.01467609      -0.00141019       0.00064212
C        3.94513658       0.99068779       2.83032627      -0.00859749      -0.01969501      -0.01894204
H        1.78795101       2.59109620       0.35248872      -0.01797152       0.00212981       0.00484248
H        3.57920148       2.47918278       0.58237397      -0.01700330       0.00559303      -0.00409667
H        2.56588251       3.44903604       1.70980037      -0.01469351      -0.00666561       0.00759947
H        4.08436363       1.89750252       3.42183507      -0.00361174      -0.03155270      -0.00297374
H        4.70044984       0.92191080       2.04747317      -0.01214214      -0.00846846      -0.02287331
H        3.93695429       0.12704070       3.49373301      -0.00782282      -0.02918552      -0.03193776
S        4.88933369       6.50435216       2.09193807      -0.01064444      -0.01902813      -0.00461954
O        5.86164198       7.50920286       2.61464167      -0.02151537      -0.00343394      -0.01300967
C        4.40944673       5.46528967       3.48490209       0.00485547      -0.01435214       0.00359082
C        5.82601019       5.29025925       1.15262701       0.00125405      -0.01359567       0.00282493
H        3.93510091       6.12972697       4.20482306       0.00192764      -0.01516187       0.00211998
H        5.28506607       4.98326301       3.92012322       0.01115127      -0.00256556       0.00297604
H        3.68775956       4.72412073       3.14428034       0.01229666      -0.02435583       0.01027048
H        5.17024034       4.49970031       0.78771814       0.00859112      -0.02088775       0.00615530
H        6.60670054       4.85950588       1.77834893       0.00449540      -0.00344760       0.00545482
H        6.26063658       5.83966090       0.31529119      -0.00375295      -0.01327558       0.00066492
S       12.39343422       2.17858684       9.26671303       0.01079118       0.00702167       0.00478223
O       13.06250070       0.85243329       9.37045511       0.02501488       0.01528263       0.01237730
C       10.97194297       2.10165880      10.37864673       0.00377506      -0.00617853      -0.00636235
C       11.44310040       2.21758682       7.73255590       0.02180627      -0.00594838      -0.00147092
H       11.37977417       1.90619104      11.37050165      -0.00368211      -0.00340881      -0.00288612
H       10.31524963       1.28324186      10.07587515       0.01040196      -0.00931579      -0.01161468
H       10.44033291       3.05436577      10.36034272      -0.00111371      -0.00945543      -0.01139671
H       10.90876263       3.16876388       7.68948042       0.01901673      -0.00819445      -0.00885251
H       10.74124024       1.38347738       7.70855865       0.02408020      -0.00763941      -0.00175624
H       12.14799144       2.14883679       6.90704395       0.02689247      -0.00761707       0.00344871
S        9.33427898       7.29070026       4.45276236       0.01739240      -0.00216722      -0.00481905
O       10.78782944       7.14401814       4.14921013       0.01545095      -0.02084330      -0.01450527
C        9.05215140       6.62781988       6.10541293       0.01848759      -0.00083119      -0.00480425
C        8.51007247       5.93697270       3.59653352      -0.00625786       0.01403117      -0.00288281
H        9.37378168       7.35449060       6.85189151       0.02755685      -0.00493567      -0.00528903
H        9.62618565       5.70165900       6.17396172       0.00833715      -0.00689605      -0.00693391
H        7.98727851       6.43049709       6.22517582       0.01713484       0.00992833       0.00028133
H        7.44927643       5.96498804       3.83466749      -0.00516135       0.03816902      -0.00223497
H        8.96754906       4.99206917       3.89142189      -0.02733797       0.00410303      -0.00309838
H        8.63138888       6.11549862       2.53041199      -0.00365875       0.01030675      -0.00284267
S        1.78798084       8.29854454       1.73273092      -0.00653875       0.00971001      -0.00394815
O        0.50015186       9.07645774       1.54386510      -0.00126040       0.01492944      -0.01068678
C        2.99652472       9.26208334       0.83765096       0.00816101       0.00685906       0.01516324
C        1.61055744       6.91689835       0.59038926      -0.00373901       0.01890475      -0.01353586
H        3.02244246      10.23951794       1.31547522       0.00062614       0.00595498       0.01628537
H        2.66276111       9.35424722      -0.19753848       0.02602741       0.00924402       0.01012699
H        3.97134476       8.79050328       0.89614644       0.00605847       0.00501333       0.03137207
H        2.57422383       6.42413761       0.47617985      -0.00700526       0.01183017      -0.00631984
H        1.24634770       7.29543673      -0.36587623       0.00927000       0.02765732      -0.01473603
H        0.88984261       6.23530741       1.04066850      -0.01339877       0.02200703      -0.02546556
S        5.27218524       8.20274631      11.06016157      -0.01079512      -0.01882297       0.00330299
O        6.69614306       7.74219327      10.99895627      -0.01610744      -0.03767696       0.02188629
C        4.37940334       7.41759056       9.70604598       0.00081956      -0.00448139      -0.01056474
C        5.17991088       9.88465141      10.42228500       0.02267277      -0.01843286       0.00450635
H        4.39155880       6.34626960       9.89986852      -0.01286755      -0.00452019      -0.01293130
H        4.89293656       7.64661817       8.77256326       0.01624836      -0.00823703      -0.00256422
H        3.35100618       7.78662644       9.68637666       0.00532286       0.00606517      -0.02319413
H        4.12729356      10.16005125      10.34008675       0.02766216      -0.00205979       0.00062342
H        5.67206952       9.93084645       9.45136900       0.02955368      -0.02314363       0.00800002
H        5.68434010      10.53957218      11.13009875       0.02881046      -0.02842396       0.00877805
