149
Lattice="12.962878531273729 0.0 0.0 0.0 12.962878531273729 0.0 0.0 0.0 12.962878531273729" Properties=species:S:1:pos:R:3:forces:R:3 energy=-74049.0078125 stress="-0.000574919453356415 0.00036214727151673287 0.0005292847054079175 0.00036214727151673287 -0.0005307500250637531 0.00012950206291861832 0.0005292847054079175 0.00012950206291861832 0.00012215826427564025" pbc="T T T"
Ca      15.94237799      11.69413767       2.03873963      -0.01130711      -0.04049331      -0.00995123
O        4.89458130      12.86972399       1.51784418      -0.03092881      -0.02830354      -0.01916200
O        4.42456366      12.43446213       3.64795629       0.00365674       0.01683980      -0.00733924
C        5.17027541      12.91216958       2.75257098      -0.01387399       0.00336120      -0.02355804
H        6.11697481      13.39093524       3.05968670      -0.01486826       0.01913354      -0.04127844
O        1.27044282      11.50511240       3.22376960      -0.00825140      -0.01008616      -0.00134194
O       -0.31737898      12.23495029       4.63253419      -0.03901875       0.00214839      -0.01052241
C        0.71364834      11.64671061       4.38850414       0.01861554      -0.02583018      -0.01044495
H        1.28238372      11.15662887       5.21278331      -0.01313004      -0.00220713      -0.00454092
C        5.45672274       4.00741056       4.94173481       0.00135282       0.00012952      -0.00138056
C        4.06395684       4.00623308       5.55819134       0.00214851      -0.00091761       0.00080281
C        6.15550856       5.35825406       5.04867492       0.00162287       0.00010639      -0.00074835
C        3.35226122       2.66214878       5.46717626       0.00195125      -0.00051910      -0.00245258
C        7.58224978       5.34334815       4.51814161       0.00143456      -0.00085493      -0.00131163
C        1.98919592       2.66197634       6.14682312       0.00271165      -0.00175592      -0.00137892
H        6.07024435       3.24226981       5.43254975       0.00101797      -0.00020313      -0.00210743
H        5.39291781       3.71273528       3.88728870       0.00117825       0.00012435      -0.00133100
H        3.45028945       4.77464119       5.07199533       0.00238685      -0.00087789       0.00100842
H        4.13906437       4.30680023       6.61004274       0.00155910      -0.00251053       0.00159538
H        5.56874164       6.10842367       4.50716546       0.00130785      -0.00004724      -0.00047779
H        6.15568950       5.67671139       6.09682313       0.00278726       0.00103352      -0.00100982
H        3.23661481       2.38808714       4.41374521       0.00099085       0.00407868      -0.00362346
H        3.98634686       1.88521166       5.90649951       0.00128417      -0.00132975      -0.00366864
H        8.19395578       4.62310926       5.06629004       0.00168458      -0.00126401      -0.00186792
H        8.05686896       6.32194796       4.60948993       0.00210036      -0.00116208      -0.00167315
H        7.60732959       5.05756849       3.46434771       0.00003372      -0.00074860      -0.00127347
H        2.08409834       2.88308803       7.21272711       0.00221097      -0.00440842      -0.00066832
H        1.33538793       3.42303519       5.71398483       0.00369603      -0.00069503      -0.00013956
H        1.48563238       1.69908645       6.04681577       0.00087345      -0.00050852      -0.00500970
C        9.62725129      10.67272830       4.85735049      -0.00987974      -0.00047560      -0.00598711
C        9.87641131      10.25630061       3.41583649      -0.00501318       0.00089011      -0.00542483
C        8.59610528      11.78926693       4.95945365      -0.00828505       0.00094864      -0.00682008
C       10.76973421       9.03276345       3.26785085      -0.00446486       0.00098723      -0.00245327
C        8.23727402      12.15702627       6.39043763      -0.00739594       0.00126225      -0.00676733
C       10.86450564       8.56568840       1.82249645       0.00000826       0.00018200      -0.00186455
H        9.27388280       9.80446891       5.42934063      -0.01262116      -0.00065723      -0.00806816
H       10.56919590      10.99600296       5.31001072      -0.01077601      -0.00229736      -0.00267245
H       10.31983761      11.09658331       2.87172816      -0.00241320       0.00133941      -0.00281863
H        8.91288353      10.04559631       2.93438524      -0.00299206       0.00148640      -0.00935885
H        8.97455438      12.67152029       4.43383774      -0.00680606       0.00026128      -0.00673464
H        7.68904706      11.48114095       4.42719756      -0.00871104       0.00270952      -0.00676629
H       11.76812503       9.26002217       3.65561855      -0.00581542       0.00126372       0.00060728
H       10.37641563       8.22077204       3.88979223      -0.00627363       0.00126183      -0.00335015
H        7.91406504      11.27620960       6.95111214      -0.00880927       0.00173603      -0.00700106
H        7.42573153      12.88440845       6.42403104      -0.00572215       0.00302567      -0.00632938
H        9.09362262      12.58370421       6.91686282      -0.00610058      -0.00084005      -0.00690773
H        9.86926205       8.37386957       1.41510933       0.00127602      -0.00084214      -0.00433942
H       11.33172264       9.32894862       1.19485043       0.00112383       0.00001882      -0.00112111
H       11.44274387       7.64808618       1.72536797       0.00086552       0.00051601       0.00047268
C        1.65469671       7.81675705       9.47872598       0.00381771       0.00852293       0.00825885
C        1.83710172       9.18480487      10.13070842       0.00622898       0.00728184       0.00914252
C        1.93774227       7.79825814       7.97964622       0.00625966       0.01053897       0.00882235
C        1.46974460       9.18547727      11.61212605       0.00735143       0.00540709       0.00861484
C        1.73489231       6.41968786       7.36366197       0.00779542       0.01164383       0.00575614
C        1.68873680      10.53306701      12.30299970       0.01308708       0.00263983       0.01263764
H        2.30851425       7.08961348       9.97263867       0.00168438       0.00659555       0.00809921
H        0.63077699       7.46697661       9.65163062       0.00287029       0.00999075       0.00602114
H        1.22552373       9.92440244       9.60198709       0.00738391       0.00859082       0.00972375
H        2.87807222       9.50755213      10.01360426       0.00654730       0.00537685       0.00864389
H        1.29007696       8.52573026       7.47784558       0.00715157       0.01132429       0.00882281
H        2.96486798       8.13306282       7.79758959       0.00657454       0.01092245       0.01136340
H        0.41777452       8.90218130      11.71870008       0.00589561       0.01101978       0.00870334
H        2.04552762       8.41089148      12.12840239       0.00371575       0.00116441       0.00661559
H        2.40378232       5.68493941       7.81633411       0.00778304       0.01108914       0.00501971
H        1.92680572       6.42206038       6.28972381       0.00891883       0.01381294       0.00585699
H        0.71352620       6.06476514       7.51633512       0.00776412       0.01081625       0.00400490
H        2.75404644      10.80720745      12.28948809       0.01429762       0.00029805       0.01074103
H        1.14996184      11.33396549      11.79092052       0.01404180       0.00582971       0.01580794
H        1.30792950      10.50125519      13.33426748       0.01204122      -0.00185079       0.01276419
C       11.18743448       9.07170958       8.85300824      -0.00094295       0.00369911       0.00038336
C       10.14475656       7.98004566       8.65144429      -0.00030679       0.00327262      -0.00042960
C       10.64543299      10.47756850       8.63677706      -0.00143552       0.00324649      -0.00118567
C       10.69762400       6.57936752       8.88248280      -0.00030345       0.00341727      -0.00002097
C       11.72107683      11.55105604       8.71874163      -0.00186357       0.00361785      -0.00067884
C        9.68347622       5.47478736       8.62831237      -0.00010321       0.00356632      -0.00108509
H       11.60848428       8.99049180       9.86280254      -0.00237896       0.00459378       0.00101638
H       12.02110252       8.89916892       8.16243969       0.00003207       0.00366568       0.00172147
H        9.74433439       8.04906086       7.63292072       0.00039412       0.00320939      -0.00068161
H        9.29712789       8.15586364       9.32288203      -0.00088167       0.00306039      -0.00102267
H       10.16549925      10.52183093       7.65756246      -0.00057629       0.00245011      -0.00166366
H        9.85824106      10.67985819       9.37143201      -0.00211799       0.00338302      -0.00212801
H       11.56503186       6.43128030       8.23185158       0.00031656       0.00350507       0.00072703
H       11.07392699       6.50551140       9.90859445      -0.00121158       0.00337517       0.00028118
H       12.22204867      11.53056580       9.69014989      -0.00271142       0.00426715      -0.00029251
H       11.30587829      12.55017390       8.57985369      -0.00193492       0.00337856      -0.00159666
H       12.47779640      11.40364729       7.94505417      -0.00105549       0.00325843       0.00010037
H        8.82000542       5.56691317       9.29094025      -0.00070770       0.00364212      -0.00183773
H        9.31318925       5.50870999       7.60084672       0.00083967       0.00371718      -0.00132391
H       10.11989809       4.48865861       8.79048010      -0.00045851       0.00346863      -0.00075644
C        5.32223817       4.44249251      10.19403107       0.00003549      -0.00028872      -0.00048614
C        6.42836890       3.43400022       9.91819037       0.00071502      -0.00078538       0.00048274
C        5.06713071       4.64251421      11.68178641       0.00287375       0.00416435      -0.00143191
C        6.72285815       3.23986055       8.43768641       0.00058961      -0.00090834       0.00013429
C        3.96281809       5.64603509      11.97044442       0.00013411      -0.00061807       0.00176925
C        7.86484223       2.26664766       8.19098736       0.00118944       0.00022456      -0.00036317
H        5.58325698       5.40518993       9.73642803       0.00041327      -0.00027239       0.00117995
H        4.39694498       4.11520256       9.70411011      -0.00001261      -0.00192676      -0.00033634
H        6.16013157       2.46880126      10.36376034       0.00090234      -0.00100440       0.00123741
H        7.34394706       3.75581909      10.42864168       0.00093383       0.00022329      -0.00036459
H        4.81166715       3.67969344      12.13383541       0.00367086       0.00691170      -0.00335827
H        5.99639247       4.96458279      12.16262407       0.00346223       0.00106086      -0.00007406
H        5.81686778       2.88700944       7.93292021       0.00051713      -0.00177838       0.00107831
H        6.96059308       4.20986811       7.98820612      -0.00061489      -0.00090900      -0.00071700
H        4.18552374       6.61921121      11.52558161       0.00212768      -0.00167899       0.00180998
H        3.82692333       5.79267993      13.04273245       0.00167825      -0.00171178       0.00262779
H        3.00962472       5.31057059      11.55572083      -0.00041996      -0.00104389       0.00182381
H        8.77345915       2.59616039       8.69758144       0.00116198       0.00099468      -0.00102197
H        7.62327269       1.27211245       8.57135736       0.00243601       0.00010033      -0.00026273
H        8.09498668       2.16706796       7.12969894       0.00043152       0.00039508      -0.00032568
C        5.84768218      10.91042165       9.56758867      -0.00004955       0.00064296       0.00083530
C        6.17750338       9.45642492       9.88658347       0.00171632       0.00121212       0.00110543
C        5.01800313      11.07720013       8.30018104       0.00146665      -0.00028899      -0.00025180
C        7.08991143       9.29073502      11.09674971       0.00038153       0.00245249       0.00230098
C        4.60679729      12.51693358       8.02568231       0.00076663      -0.00063834      -0.00088228
C        7.30053077       7.83485355      11.48984657       0.00057828       0.00266391       0.00290504
H        5.31485260      11.35533097      10.41761199      -0.00100037       0.00042177       0.00033000
H        6.77896560      11.48095085       9.46674330      -0.00065422       0.00148392       0.00170866
H        6.64756381       8.98885593       9.01256813       0.00320850       0.00169314       0.00164217
H        5.24477052       8.90237619      10.05577667       0.00227067      -0.00005522      -0.00021092
H        5.59001577      10.69244340       7.45174990       0.00318241       0.00067504       0.00056955
H        4.12274544      10.44991523       8.36708654       0.00223857      -0.00165048      -0.00190684
H        8.05409714       9.76259236      10.88191014       0.00042930       0.00312394       0.00353864
H        6.66997128       9.84069290      11.94582468      -0.00177160       0.00223193       0.00145942
H        3.98407205      12.91046021       8.83277012      -0.00136758      -0.00167154      -0.00216106
H        4.04330934      12.60097762       7.09498822       0.00298092      -0.00099310      -0.00205119
H        5.48190484      13.16501843       7.94199487       0.00033376       0.00011983       0.00098771
H        6.36610509       7.38382787      11.82767373       0.00013813       0.00208402       0.00069050
H        7.65653470       7.24473861      10.64249452       0.00272609       0.00224774       0.00406013
H        8.02973610       7.73258692      12.29497376      -0.00202596       0.00325692       0.00522867
C        2.47156857       7.77331115       2.39887484       0.00131068      -0.01294906       0.00660598
C        3.08703137       8.12013690       3.74848472       0.00182599      -0.00888790       0.00521159
C        1.34078602       6.75586973       2.50787995      -0.00320905      -0.00823846       0.00569296
C        4.34242973       8.97613077       3.66214800       0.00517896      -0.01388386      -0.00001478
C        0.77924194       6.32611392       1.16034283      -0.00090095      -0.00557416       0.00375712
C        4.91659211       9.34626071       5.02040909      -0.00003231      -0.00431035      -0.00048900
H        2.08046591       8.68746144       1.92396607       0.00579818      -0.01295245       0.00258800
H        3.24935249       7.38684825       1.72861189       0.00091684      -0.01816995       0.00922245
H        3.34149529       7.19139201       4.27093473      -0.00039742      -0.00708580       0.00935176
H        2.34087260       8.62581571       4.37250901       0.00403342      -0.00342445       0.00345352
H        1.71783899       5.87876123       3.04440108      -0.00882007      -0.00989506       0.00693870
H        0.54412671       7.17405645       3.13183103      -0.00352463      -0.00499858       0.00304258
H        5.09551341       8.46955181       3.04920419       0.00499979      -0.02466415       0.00852546
H        4.12548961       9.91465274       3.12874726       0.01120291      -0.01896464      -0.01204408
H        0.38969767       7.17982030       0.60400330       0.00325440      -0.00383632       0.00350600
H       -0.03358235       5.60764953       1.27551656      -0.00329664      -0.00336230       0.00026783
H        1.54938025       5.85917343       0.54543011      -0.00020060      -0.00681323       0.00562420
H        4.16735169       9.85556300       5.62867872      -0.00117247       0.00520606      -0.00995223
H        5.23500857       8.45072888       5.55790372      -0.01058422      -0.00173135       0.00994958
H        5.77248859      10.01527612       4.92722358       0.00561863      -0.01144236      -0.00092315
