150
Lattice="12.39730166624293 0.0 0.0 0.0 12.39730166624293 0.0 0.0 0.0 12.39730166624293" Properties=species:S:1:pos:R:3:forces:R:3 energy=-115011.8203125 stress="-0.0011551177594810724 -0.0003601477510528639 0.00027563213370740414 -0.0003601477510528639 -0.0009423093870282173 0.0007686958415433764 0.00027563213370740414 0.0007686958415433764 -0.0012727592838928103" pbc="T T T"
Ca      13.58440115      12.60578566      -0.17435138      -0.00449399      -0.03507093      -0.00866556
S        7.11025346      12.09165845       9.88747635      -0.00321710       0.02223670      -0.00059050
N        7.23760104       9.28720393      10.13746920      -0.00052693       0.01687503       0.01253602
C        7.19210455      10.45920850      10.02744909      -0.00204405       0.03315172       0.00521784
S        1.55308089      10.02889797       1.01643219       0.01207655      -0.02860122       0.00427765
N        3.12438552      12.31080050       1.29338583      -0.00429793      -0.01591158      -0.00147419
C        2.58904773      11.25449672       1.29050193       0.00173179      -0.02053082       0.00128300
O        1.91027323      11.06534986       6.63804539      -0.02006554      -0.00839326       0.01658612
C        2.16057097      10.35865803       4.39523419      -0.00147508       0.00747003       0.01324153
C        0.80800742       9.89661055       4.93285808      -0.00756204       0.00828797      -0.00114700
C        2.91343143      10.70382177       5.67222521      -0.01199807       0.00044653       0.02171278
C        0.60796817      10.89529749       6.05766162      -0.01470819       0.00308305       0.00197226
H        2.67426442       9.61909949       3.78354080       0.00260136       0.00826229       0.01581822
H        2.02402334      11.25540718       3.78873534       0.00646295       0.00956067       0.01481828
H        0.00961906       9.91867215       4.19169924      -0.00072171       0.01422029      -0.00827324
H        0.87568195       8.88151252       5.33041411      -0.01412668       0.00614831      -0.00515313
H        3.46450230       9.83473230       6.05239465      -0.01372102      -0.00090438       0.02055497
H        3.60970471      11.53703713       5.55635704      -0.01318845       0.00285643       0.03290258
H        0.25737660      11.85494874       5.65302850      -0.00417471       0.00739938       0.00323746
H       -0.07810676      10.58848834       6.84567154      -0.02445656       0.00306173      -0.00675139
O        2.34557201      12.09193468      10.37361376      -0.00582859       0.01438936      -0.01405231
C        3.88249285      10.65408101       9.23450468       0.00840935       0.01802583       0.00389647
C        2.66294874       9.86614404       9.70810349       0.00424408       0.01417160      -0.01306245
C        3.76690000      11.98300028       9.96999982       0.00003877       0.01462558       0.00765719
C        1.62197905      10.95184902       9.82513844       0.00007933       0.01100916      -0.01589018
H        4.82392769      10.15777021       9.45419079       0.00566906       0.01755264       0.01306677
H        3.81449018      10.81905585       8.16206003       0.02245403       0.02278683       0.00373814
H        2.35281270       9.09288301       9.00621996       0.01259384       0.01894940      -0.02164513
H        2.84580458       9.40756500      10.68359577      -0.00413588       0.00792383      -0.01457381
H        4.36383108      12.02620902      10.87829175      -0.01435688       0.00930484       0.01727912
H        3.99764321      12.84043512       9.34282982       0.01065801       0.01730263       0.01589063
H        1.19346540      11.22644972       8.86453228       0.00087045       0.00974853      -0.01612234
H        0.82045344      10.69265242      10.52357736      -0.00172651       0.00595837      -0.01851442
O        5.07928990       5.99768495      12.29584203      -0.00227031      -0.00072058       0.00385958
C        4.08632847       4.93174595      10.43846254       0.00242957      -0.00369662       0.00320208
C        4.49136543       6.34824764      10.03293751       0.00286308      -0.00417668       0.00249630
C        4.05501469       5.06241535      11.95599205      -0.00072587      -0.00223568       0.00287259
C        5.51096900       6.69161934      11.10922023       0.00081524      -0.00331446       0.00384653
H        3.12987328       4.60696670      10.02841337       0.00338927      -0.00423397       0.00171717
H        4.85161977       4.21652375      10.12810877       0.00299761      -0.00389129       0.00545448
H        4.91074151       6.42226563       9.03004849       0.00440867      -0.00537728       0.00313979
H        3.62927024       7.01823032      10.09506345       0.00282922      -0.00420173       0.00043570
H        3.08191226       5.45452361      12.28714927      -0.00154001      -0.00291437       0.00069237
H        4.24282921       4.12278269      12.48224991      -0.00082296      -0.00144589       0.00387150
H        6.51002258       6.33934684      10.82731206       0.00091147      -0.00519708       0.00656143
H        5.58926272       7.75639254      11.31572307       0.00137645      -0.00300604       0.00229613
O       11.25552408      10.08457884       8.94391457       0.00213288      -0.01325864      -0.00259492
C       10.44430973       8.39051718      10.40903488      -0.00783080      -0.00756389       0.00021249
C       10.80092593       9.65183026      11.20003271      -0.01935658      -0.00064082      -0.00519359
C       11.11208403       8.65758080       9.06066137      -0.00657664      -0.01201093      -0.00076190
C       10.71752418      10.70480425      10.10660704      -0.01346527      -0.00814057      -0.01264107
H       10.80780538       7.47210138      10.87153231      -0.00286797      -0.00224629       0.00657696
H        9.36053708       8.33462449      10.29613342      -0.00703996      -0.01552537      -0.00127340
H       10.11850761       9.85703116      12.02476042      -0.02908197       0.00159742      -0.01392056
H       11.81669440       9.57121962      11.60277340      -0.02272692       0.00699218       0.00515325
H       12.11562067       8.21621187       9.00809198      -0.00901771      -0.01677121      -0.00167598
H       10.52130554       8.29585836       8.21650457      -0.00936326      -0.01065949       0.00060114
H        9.68275012      11.02153459       9.94657402      -0.01344901      -0.01530094      -0.02478908
H       11.30821946      11.61703567      10.29154596      -0.02065817      -0.00400691      -0.01345074
O        9.51779661       7.16349533       5.82523640       0.00834637       0.00873336      -0.01821974
C       10.28954471       5.08281351       5.09999536      -0.00272617       0.00150397      -0.00533655
C        8.76220391       5.05051166       5.02184936      -0.00304642       0.00526547      -0.00032853
C       10.48775548       6.17205682       6.14173365       0.00313114       0.00615391      -0.01166689
C        8.39180609       6.52852203       5.19639423      -0.00028154       0.00663519      -0.00052352
H       10.73256862       4.12868797       5.38612041      -0.00490802       0.00170320      -0.00166170
H       10.71852872       5.39043252       4.14220965      -0.00455932      -0.00466782      -0.00801301
H        8.38291582       4.63323860       4.08928384      -0.00670485       0.00500540       0.00132555
H        8.35823888       4.45352122       5.84194782      -0.00180397       0.00676911       0.00118244
H       10.31133791       5.77411034       7.15326981       0.00074586       0.01272163      -0.00949693
H       11.47168052       6.64566151       6.12349221       0.00522557       0.00139354      -0.01419822
H        8.22428532       7.02995476       4.23884758      -0.01333055       0.00445554       0.00091541
H        7.50248247       6.66721703       5.81797299       0.00828114       0.00764435       0.01161277
O        7.33237270       9.97902163       2.80567996      -0.00901306      -0.01128027       0.01217040
C        6.48333845      11.33430897       1.05435318       0.00643796      -0.01072806       0.00515953
C        5.89873435       9.92893732       0.93568346       0.00324504      -0.00903779       0.00296301
C        7.69082138      11.06349566       1.93771586      -0.00048715      -0.01270846       0.01405844
C        6.09590755       9.40913252       2.34818228      -0.00737783      -0.00843180       0.00450498
H        6.74807979      11.77208901       0.09087698       0.01387291      -0.01216385       0.00657105
H        5.77421683      11.99371695       1.55522491       0.00473499      -0.00811063      -0.00070158
H        4.85467644       9.91206233       0.62469874       0.00534900      -0.00635434      -0.00364721
H        6.47639147       9.34720223       0.21508012       0.00597167      -0.01134263       0.00711250
H        8.55581175      10.76227688       1.32763964       0.00325376      -0.01519561       0.02069777
H        7.98407453      11.91624350       2.55776377      -0.00306382      -0.01309001       0.01548180
H        5.28449083       9.74467613       3.01007035      -0.01084140      -0.00604826      -0.00112188
H        6.16741394       8.32041795       2.41393073      -0.01053956      -0.00851023       0.00558054
O        3.82291887       4.74155817       5.89097418       0.01702987       0.00350174       0.00481241
C        3.78921813       7.02950700       5.40798737       0.00460495       0.00173795       0.00096826
C        2.43380605       6.66466787       6.01514885       0.00590098      -0.00335383       0.00051637
C        4.23534183       5.67374457       4.89304637       0.01047737       0.00336552       0.00227439
C        2.71679388       5.28945191       6.62109364       0.00931747      -0.00383419      -0.00125462
H        3.73268842       7.78498305       4.62620155       0.00173897       0.00107819       0.00070342
H        4.47368806       7.38395712       6.18311598       0.00302190       0.00484337       0.00086230
H        2.07681254       7.38238789       6.75381736       0.00382293      -0.00534381       0.00138362
H        1.68207609       6.59105991       5.22461109       0.00611816      -0.00397889       0.00056082
H        3.74748152       5.44885240       3.93258460       0.00984722      -0.00071521       0.00363579
H        5.31434394       5.57364475       4.76277733       0.01062584       0.00838050       0.00080050
H        3.00991046       5.36952414       7.67194225       0.00225426      -0.00590270       0.00069886
H        1.86353791       4.60705723       6.55360819       0.01302630      -0.00762159      -0.00884593
O       11.07022371       0.55725751       7.85449639       0.03066834       0.00912300       0.02155048
C        9.68384943       2.45026163       7.62572683       0.01441747      -0.00199941       0.00418478
C       11.06491081       2.89766116       8.10548119       0.01137006       0.00908488       0.00248292
C        9.70737021       0.98446407       8.02586012       0.02399257      -0.00268638       0.00312224
C       11.91368662       1.69605678       7.71159236       0.01868750       0.01512486       0.00203751
H        8.85806035       2.99669077       8.08151068       0.01062752      -0.00882613       0.00516479
H        9.60280909       2.54961052       6.54005476       0.01270358      -0.00077496       0.00449124
H       11.42025608       3.82817744       7.66548537       0.00307862       0.01146658       0.00095278
H       11.05247386       3.01921581       9.19315761       0.01300074       0.00932246       0.00261751
H        9.41388077       0.86342915       9.07323904       0.01206228      -0.00734280      -0.00127113
H        9.05576671       0.34043184       7.43480436       0.03656366      -0.00667349      -0.00666806
H       12.24763214       1.77792821       6.66792197       0.00557315       0.01197962      -0.00260907
H       12.80549638       1.55773522       8.33161932       0.02627185       0.02624737      -0.00725842
O       10.88832764       5.72502622       1.34231277       0.00066075      -0.00016427       0.01813813
C       10.62291474       7.88125143       2.27323311      -0.00174606       0.00651169      -0.00162470
C        9.37721660       7.55840103       1.44786915      -0.00317672      -0.00117791       0.00367033
C       11.63334085       6.90059343       1.69808616      -0.00155252       0.00662726      -0.00078361
C        9.48316518       6.05009340       1.28716522       0.00062440      -0.00179106       0.00873075
H       10.95070793       8.91675822       2.17793558      -0.00532320       0.00691509      -0.00789913
H       10.44271465       7.68411324       3.33311548       0.00253417       0.01055542      -0.00019708
H        8.45502453       7.87204914       1.93268663      -0.00257850      -0.00234585       0.00544810
H        9.42086258       8.04222853       0.47325108      -0.00775921      -0.00438443       0.00194582
H       12.11401528       7.31039579       0.79989341      -0.01209030       0.00103089      -0.00902891
H       12.41721508       6.60783214       2.40154365       0.00601941       0.01686242      -0.00539985
H        8.97666008       5.52555300       2.10523991      -0.00277478      -0.00083771       0.00688142
H        9.07034578       5.68893097       0.34240049       0.00615542      -0.00448716       0.00732514
O       12.37346802       1.41656054       1.40958879      -0.00685737      -0.01031449      -0.04510821
C       10.13425431       1.23870895       0.88530942      -0.01911432       0.00069979      -0.00702140
C       10.40698326       2.73606385       1.10041593      -0.00335959      -0.00009239      -0.01654479
C       11.21084636       0.60997279       1.74061352      -0.00413731      -0.00822741      -0.03181985
C       11.89386292       2.79423734       1.49082054       0.00131282      -0.00853962      -0.03541988
H        9.12559249       0.93303800       1.15092030      -0.01389447       0.00929530       0.02233953
H       10.29090958       0.96121684      -0.16398064      -0.04849562      -0.00203776      -0.00996771
H       10.19578153       3.33332926       0.21719383      -0.00830654      -0.00491937      -0.01857781
H        9.79467463       3.12893722       1.91204604       0.00988697       0.01153401      -0.01253527
H       11.00799995       0.71757362       2.81182829       0.01722657      -0.01938916      -0.02677035
H       11.44950027      -0.43867707       1.54002466      -0.01278012      -0.00760759      -0.04756215
H       12.51314618       3.40003688       0.83277563      -0.00396784      -0.01095185      -0.04242736
H       12.03582810       3.13485676       2.51836783       0.01630808      -0.01235253      -0.03654513
O        4.21168656       1.46048923       5.83464587      -0.00087056      -0.01323365       0.00976157
C        5.04504688       1.24402059       3.66088829       0.00450313      -0.00299948       0.01110005
C        6.21954956       1.61575888       4.56350648       0.00012887       0.00509375       0.01342076
C        3.87863706       1.76575965       4.48041168      -0.00050105      -0.01245639       0.00995713
C        5.64068332       1.38252742       5.96198156      -0.00016308       0.00090090       0.01270831
H        5.09400286       1.67797777       2.66357664       0.00300567      -0.00129849       0.01179112
H        4.97080848       0.15930150       3.55405011       0.01276140      -0.00343949       0.00980700
H        7.11094919       1.01446900       4.38330149       0.00484648       0.01176332       0.01485456
H        6.48148888       2.66729365       4.42232039      -0.00727897       0.00693408       0.01427091
H        3.76633363       2.84961754       4.35831508      -0.00715468      -0.01288640       0.01243058
H        2.92465665       1.28554165       4.24957867       0.00339758      -0.01852602       0.00711678
H        5.89428856       0.38863951       6.34502020       0.00843962       0.00420845       0.01483200
H        5.98265844       2.12254736       6.69075125      -0.00906610       0.00556129       0.01191097
