142
Lattice="12.97130586655356 0.0 0.0 0.0 12.97130586655356 0.0 0.0 0.0 12.97130586655356" Properties=species:S:1:pos:R:3:forces:R:3 energy=-357359.4375 stress="-0.003134133294224739 -0.00037035038985777646 0.0012586853699758649 -0.00037035038985777646 -0.0004738582647405565 -0.0007624637510161847 0.0012586853699758649 -0.0007624637510161847 -5.0691764045041054e-05" pbc="T T T"
Ce      13.15682682      10.39044026      -2.11622857      -0.01694798      -0.00709030      -0.00878212
P       11.58559143      11.18945153       5.00775419       0.00158757       0.00390954      -0.00334305
O       11.12245078      10.87367401       3.45343112      -0.00130594       0.01358805      -0.00506896
O       12.85167062      12.17245479       4.78237052       0.00068271       0.00451529      -0.00069414
O       10.45901836      11.91119241       5.64230449       0.00254405      -0.00186354       0.00400597
O       12.15269541       9.91815235       5.55508604       0.00409621       0.00064099      -0.01382677
H       10.22984211      11.22949344       3.38488604      -0.00216272       0.01141085      -0.00263290
H       12.53874333      13.08219486       4.75994053       0.00175220       0.00458875      -0.00369626
P        1.89078904       9.20105572       7.88209100      -0.00713944      -0.00256592      -0.00342549
O        0.58564257       8.73722915       7.20259529      -0.00622441      -0.00082237      -0.00602620
O        2.25935908      10.49719088       7.04289453      -0.00779778       0.00477237       0.00739045
O        1.50248096       9.78469066       9.33353568      -0.01408701      -0.01139888      -0.00311303
O        2.92287206       8.16582252       8.02660027      -0.00424790       0.00038829      -0.00372459
H        0.02666502       9.32828214       6.51609002      -0.00101949      -0.00009690      -0.00897425
H        3.14596799      10.84893845       7.20954764      -0.00422344      -0.00297089       0.00416052
P       11.25567424      12.43224813      12.27871005       0.00376114      -0.00684148       0.01168740
O       10.95913724      10.80568984      12.06507987      -0.01511657       0.00625712       0.01063517
O       11.14466353      12.66073890      13.83592621       0.02178615      -0.03423351       0.01266931
O       12.74562245      12.34835817      11.86773308      -0.00075594      -0.01899281       0.00712486
O       10.31205904      13.27049606      11.55105624       0.03500643      -0.00698377       0.03202176
H       10.06824140      10.58245787      11.76591862      -0.01300061       0.01462072       0.00374100
H       11.62689701      12.06609313      14.42934093      -0.00465453      -0.04288346       0.01982838
C        9.40969539      11.36427287       8.49466870      -0.00675925       0.01978462       0.00908768
C       10.73319983      11.80667294       8.45632708      -0.00374224       0.00995442       0.00638700
C        9.15079418      10.05241366       8.89680712      -0.01492025       0.01918729       0.00109158
C        8.30697876      12.23641522       8.00829295      -0.00124681       0.03232750       0.01983946
C       11.77755921      10.93379150       8.71543028      -0.00954106       0.00125043      -0.00188588
C       10.18629509       9.16924064       9.17435706      -0.02041453       0.01011393      -0.00809340
C       11.50212803       9.58863342       9.06543844      -0.01758483       0.00090131      -0.00963008
H       10.93388015      12.81839976       8.13486074       0.00355820       0.01065306       0.01345006
H        8.12552797       9.69775529       8.91377037      -0.01711968       0.02633174       0.00227290
H        7.54394282      12.37522632       8.77453107       0.00471060       0.03748319       0.02446327
H        8.68158183      13.20446532       7.68620982       0.00600331       0.02969560       0.02030797
H        7.82840545      11.76199851       7.14960871      -0.01251720       0.03932680       0.02309904
H       12.79074814      11.25607954       8.46128590      -0.00803934      -0.00460409      -0.00290868
H        9.97842032       8.13793424       9.41914193      -0.02742661       0.01036133      -0.01397267
H       12.28065523       8.82525988       9.05634870      -0.02203985      -0.00310194      -0.01510304
C        3.89786377       3.62686288       7.95115051      -0.00278230      -0.00004986      -0.00722313
C        3.33828808       2.51369289       8.58019813      -0.00702266      -0.00044224      -0.01202554
C        3.20514246       4.83702298       8.00397542       0.00102272       0.00176254      -0.00347737
C        5.22651094       3.52668355       7.25872066      -0.00285429      -0.00195407      -0.00675249
C        2.12646399       2.60440554       9.25451342      -0.00739227       0.00076434      -0.01340498
C        1.99050454       4.93153790       8.67351523       0.00065845       0.00299336      -0.00464273
C        1.44876426       3.81744428       9.30486348      -0.00358680       0.00251744      -0.00966348
H        3.87370371       1.57162864       8.56355347      -0.01031454      -0.00205644      -0.01532219
H        3.61798546       5.73016258       7.54942473       0.00374536       0.00187436      -0.00038829
H        5.75328658       4.48095389       7.28760917      -0.00301588      -0.00198478      -0.00894238
H        5.86100367       2.77182338       7.72615722      -0.00291461      -0.00110899      -0.00539620
H        5.10979479       3.25029696       6.20766084      -0.00271968      -0.00429368      -0.00598821
H        1.72011387       1.73458007       9.75838379      -0.01086153       0.00011721      -0.01756724
H        1.48868674       5.89029509       8.70727742       0.00348057       0.00423726      -0.00203906
H        0.51146498       3.89412164       9.84165068      -0.00410637       0.00327749      -0.01095886
C        5.27802712      10.54251664       8.34090088      -0.00283800       0.00459779       0.00420761
C        5.03475274      11.86191086       7.94632837      -0.00588493       0.00471617       0.00712793
C        5.42828474       9.57606277       7.34925752       0.00377864       0.00794411       0.00205278
C        5.32908447      10.17049593       9.79355585      -0.00733247       0.00085791       0.00312442
C        4.95805661      12.20833417       6.60047363      -0.00334992       0.00802484       0.00802995
C        5.33127959       9.91089514       6.00413360       0.00751958       0.01141909       0.00285525
C        5.10513098      11.22735611       5.62340401       0.00356457       0.01150645       0.00589348
H        4.91878043      12.62434178       8.70913754      -0.01147745       0.00177437       0.00891002
H        5.56219920       8.54267374       7.63878326       0.00663120       0.00774063      -0.00047749
H        5.75465905       9.17636610       9.92891838      -0.00849605       0.00044428       0.00211609
H        5.92055849      10.88705028      10.36771735      -0.00878473      -0.00106257       0.00654173
H        4.32413407      10.14587091      10.22452083      -0.00848770       0.00068674      -0.00001135
H        4.76952279      13.23621050       6.31604895      -0.00663241       0.00780334       0.01012331
H        5.40030930       9.13791406       5.25044313       0.01387974       0.01395570       0.00119452
H        5.01555752      11.47852039       4.57415927       0.00673325       0.01430587       0.00651729
C        1.02280399       8.41343251       2.64527546       0.00024638      -0.00004041      -0.01186731
C        1.31000488       8.12595906       3.98027598       0.00417438       0.00200936      -0.01259550
C        0.75023680       7.35481767       1.78359227       0.00109054      -0.00106639      -0.01047118
C        1.03041003       9.83421410       2.16812891      -0.00699335      -0.00075787      -0.01208322
C        1.31573593       6.81709628       4.44054861       0.00861698       0.00268631      -0.01176581
C        0.76622396       6.03820949       2.23463931       0.00576511      -0.00051232      -0.00951218
C        1.04536698       5.76748862       3.56739710       0.00983249       0.00141023      -0.01022577
H        1.51778987       8.93757567       4.66515687       0.00418584       0.00308707      -0.01403363
H        0.53933738       7.56746776       0.74043790      -0.00247739      -0.00250551      -0.00987284
H        0.86037284       9.88656448       1.07855177      -0.00442405      -0.00172681      -0.01212242
H        0.25479298      10.41763253       2.66164454      -0.01185605      -0.00616011      -0.01364884
H        1.98628625      10.31471138       2.38024727      -0.01138738       0.00624745      -0.00975009
H        1.52176456       6.62305465       5.48584750       0.01124928       0.00418374      -0.01228297
H        0.55484436       5.22586617       1.54852152       0.00612485      -0.00160278      -0.00798330
H        1.03843158       4.74668585       3.92947346       0.01457962       0.00175332      -0.00957604
C        9.22553376       5.94722717      10.78432875       0.00160394      -0.00139424       0.00077985
C        8.50001046       7.11647072      11.00048155      -0.00066411      -0.00394608       0.00648413
C       10.35795250       5.72325172      11.56848097       0.00321478      -0.00120926      -0.00236970
C        8.78759820       4.94664034       9.75614753       0.00188669       0.00229415      -0.00267196
C        8.86680269       8.02038139      11.99069920      -0.00107769      -0.00673123       0.00905549
C       10.73789536       6.62756620      12.55238122       0.00235377      -0.00418363       0.00038326
C        9.98309270       7.77548996      12.77997237       0.00018523      -0.00721057       0.00675552
H        7.61532611       7.30125180      10.40315658      -0.00166370      -0.00405856       0.00816769
H       10.92832273       4.81218927      11.42558387       0.00528919       0.00119706      -0.00708288
H        9.01275583       3.93100662      10.08354468       0.00298656       0.00037810      -0.00947979
H        7.71370431       5.01694698       9.57848453       0.00158334       0.00247460       0.00159981
H        9.29974481       5.10576408       8.80262944      -0.00053778       0.00791955      -0.00288364
H        8.24690114       8.89352014      12.17037723      -0.00204407      -0.00854598       0.01279576
H       11.59426726       6.41264717      13.17844757       0.00363679      -0.00491802      -0.00211859
H       10.24273164       8.44651593      13.59015777      -0.00056984      -0.01042730       0.00952542
C        8.98123618       6.94878364       5.22458343       0.00631095      -0.00403322       0.00444856
C        8.97787338       5.57500450       5.46131760      -0.00431757      -0.00494459      -0.00263999
C        9.72228262       7.43706566       4.14825767       0.01170113      -0.00430384       0.00825249
C        8.25093986       7.89343182       6.12551176       0.01148942      -0.00350383       0.00785148
C        9.70371271       4.70997645       4.65005980      -0.00969779      -0.00612751      -0.00582042
C       10.44383149       6.57702429       3.33563754       0.00652117      -0.00545679       0.00518535
C       10.43734306       5.20937318       3.58233104      -0.00410615      -0.00638786      -0.00186844
H        8.40639505       5.18139441       6.29515661      -0.00862337      -0.00500978      -0.00592184
H        9.75705754       8.50461719       3.96322182       0.02013717      -0.00380687       0.01398318
H        7.81761527       8.72735050       5.57361908       0.01581752       0.00064120       0.01106426
H        7.45226883       7.39022208       6.67094851       0.00909209      -0.00111847       0.00617160
H        8.93629887       8.33147294       6.85270482       0.01359458      -0.00975250       0.00923604
H        9.70240390       3.64690682       4.85840795      -0.01896233      -0.00690410      -0.01134150
H       11.03418827       6.97807147       2.52408592       0.01036166      -0.00602493       0.00785531
H       11.01512041       4.54258064       2.95503370      -0.00841289      -0.00717966      -0.00476483
C        5.09011127       9.92170425       1.58317874       0.00934715       0.00452650      -0.00050500
C        6.09878924       9.47765917       2.44022914       0.01170228       0.00779167      -0.00188032
C        4.10910833       9.00889125       1.19816086       0.00795940       0.00349722       0.00606431
C        5.06507196      11.33881059       1.08521776       0.00850009       0.00227207      -0.00620282
C        6.11491018       8.16762619       2.90687935       0.01360187       0.00948285       0.00201576
C        4.11095635       7.70536389       1.67458844       0.00969118       0.00522687       0.01035435
C        5.11019521       7.28343947       2.53778242       0.01281633       0.00812095       0.00785560
H        6.87040606      10.17074425       2.75745191       0.01234305       0.00888015      -0.00648195
H        3.32843466       9.32716040       0.51616788       0.00577158       0.00122340       0.00778810
H        4.06320031      11.62492964       0.76273168       0.00827979       0.00003344      -0.00739023
H        5.38320831      12.03705417       1.86047880       0.00808509       0.00552495      -0.00929368
H        5.73589376      11.47719481       0.23297485       0.00861400      -0.00081066      -0.00617900
H        6.91235426       7.83407717       3.55900857       0.01576525       0.01213638       0.00048283
H        3.34253940       7.01362272       1.36163301       0.00832222       0.00455374       0.01567547
H        5.11583203       6.26331627       2.89778288       0.01448127       0.00942284       0.01094173
C        5.63133741       3.75089931      11.95031259       0.00101708      -0.01743600       0.00012491
C        4.75916512       4.55916278      11.22073089       0.00228155      -0.01847037       0.00022399
C        6.51925976       4.36110167      12.83588251      -0.00115725      -0.01835378       0.00268771
C        5.63729192       2.26239423      11.75639032       0.00171438      -0.01440403      -0.00445938
C        4.79847134       5.94371436      11.34193581      -0.00254978      -0.01867009       0.00286593
C        6.54880986       5.74016727      12.97503612      -0.00321399      -0.01823305       0.00654039
C        5.69766245       6.53519657      12.21814755      -0.00427452      -0.01834247       0.00607459
H        4.04642534       4.10546286      10.54614670       0.00500955      -0.01996293      -0.00069375
H        7.19904623       3.74780939      13.41665600      -0.00067824      -0.01630026       0.00316401
H        6.19003603       1.75866542      12.55029088       0.00965874      -0.00428661      -0.01098101
H        4.62204538       1.86373753      11.72343776       0.00395823      -0.02249804       0.00256310
H        6.11854307       1.99878589      10.81007551      -0.00892161      -0.00653416      -0.01116097
H        4.12730061       6.55329508      10.74594098      -0.00286375      -0.01779078       0.00198426
H        7.24838610       6.19955976      13.66155151      -0.00324379      -0.01615672       0.00718139
H        5.73289860       7.61220869      12.32179626      -0.00344665      -0.01715669       0.00502353
