149
Lattice="11.582822445000696 0.0 0.0 0.0 11.582822445000696 0.0 0.0 0.0 11.582822445000696" Properties=species:S:1:pos:R:3:forces:R:3 energy=-313375.78125 stress="0.003622397780418396 0.0003353709325892851 0.00024480662250425667 0.0003353709325892851 0.0019748820923268795 -3.685838782985229e-05 0.00024480662250425667 -3.685838782985229e-05 0.002552835736423731" pbc="T T T"
Ce      11.61633920      10.41758203      -0.09097539       0.00993848      -0.00449673       0.01242638
O        3.95682911      12.31607384       0.78637701       0.00690351      -0.00542897      -0.00138941
O        4.15289225      10.21001588       1.58422069      -0.00006106      -0.00218135       0.00881857
C        3.72831958      11.08862525       0.80762934       0.00513434      -0.00465541       0.00147694
H        3.00760230      10.72095673       0.00410677       0.01125538      -0.00972289      -0.00215325
O        8.44797354      11.67963542       2.71790182      -0.00534439       0.00758368      -0.01099467
O       10.06231886      10.81189796       1.43887230       0.01050171       0.00036544       0.00754505
C        9.03270784      10.73007618       2.23033638      -0.00009716       0.00615261      -0.00781479
H        8.72331599       9.69224630       2.45164909      -0.01368803       0.01321486      -0.01130965
O        5.31414478       8.81186019       8.09323915      -0.00407624      -0.00981355       0.01389214
O        7.10861230      10.12849362       7.77655778      -0.00775278      -0.00739906      -0.00236583
C        5.97028801       9.87499260       8.22806065      -0.00338316      -0.00866839       0.00752836
H        5.46823669      10.69536856       8.80582915      -0.00035867      -0.01007324       0.01306224
N        3.14418209       7.45053661       0.49698933      -0.00256363       0.00067979      -0.00799736
H        3.12180209       6.72153645       1.21033145      -0.00793639       0.00283455      -0.00593626
H        3.51244892       8.27833857       0.96959968      -0.00797330       0.00230364      -0.00601819
H        3.92430315       7.16371421      -0.10979766       0.00549841      -0.00209991       0.00247017
N        7.63129848       6.62386193       7.60406502      -0.01063401       0.00368728       0.00346950
H        8.20440708       6.68356244       6.77139969      -0.01347365      -0.00316725       0.00088105
H        7.00006200       7.42597176       7.59362165      -0.00033124       0.01219303       0.00853374
H        7.06268770       5.79138422       7.49672303      -0.02260301       0.01168413       0.00328015
N        0.17709775       4.37870665      10.79855046       0.00245629      -0.01804215      -0.00076440
H       -0.11531346       3.93294126       9.93700292       0.02133597      -0.02864647      -0.00168836
H       -0.31748885       3.92126779      11.56163830      -0.00752203      -0.01414649      -0.00476152
H        1.17896476       4.21899617      10.91872665       0.00187212      -0.00855032       0.02022311
N        0.99219021       8.97438911       5.76788724      -0.00401793       0.01783924      -0.00785613
H        0.44703736       8.18956170       6.12845187      -0.00129848       0.01241996      -0.01542503
H        1.12136555       9.60469453       6.55263893      -0.00340406       0.00694079       0.00107228
H        1.92587878       8.60573489       5.57345282      -0.00348037       0.02136006      -0.01347411
N        5.87858499       6.95433540      10.67567186      -0.00572351      -0.00738287       0.00283162
H        6.28356245       6.03490201      10.50789898      -0.01744866      -0.01055185      -0.00974387
H        6.48197344       7.41753532      11.34622014       0.01401298      -0.01429414      -0.01004022
H        5.94032379       7.48706410       9.81092146      -0.02133866      -0.00529162       0.00278515
N        3.36061458       3.83337961      -0.07180291      -0.00806937      -0.00178278       0.00955929
H        4.14463859       4.15622660      -0.63329892      -0.03001101       0.00850168      -0.01492303
H        3.64781364       2.92124914       0.27616227       0.00708155      -0.00601490      -0.01453765
H        3.36205065       4.43745932       0.74965495       0.01785779      -0.01548015       0.02020889
N        6.96263942      10.60211596       0.08114599       0.00986421      -0.00832152      -0.01879192
H        6.57523764      10.78192005      -0.84035843      -0.00200377      -0.00304294      -0.01285742
H        6.22256952      10.13932703       0.60345165       0.01029272       0.00020941      -0.01058235
H        7.04973556      11.50842453       0.53109181       0.02637152      -0.00995763      -0.01889886
N        1.26020435       9.84199537       2.20363904      -0.00164762       0.00326246       0.01761693
H        0.89477972       9.00530027       2.65580794       0.00485650      -0.00425941       0.00945565
H        1.12394481      10.56562629       2.90647553      -0.02033154      -0.00370556       0.02119815
H        2.27573387       9.70999770       2.15203375       0.00092620       0.01751144       0.02499018
N        5.32842094       2.21371718       3.13048113      -0.00833824      -0.00242037       0.00157458
H        4.88045719       1.89928189       3.98547435      -0.00437134      -0.00795370       0.00165077
H        6.29950545       1.92573056       3.20493354      -0.00221965       0.01597359       0.00353336
H        4.92628283       1.64822750       2.38132783       0.00291249      -0.01075067       0.00272103
N        9.46279648       4.27374683       5.32949415       0.00561316      -0.00486690       0.01130760
H        8.87788703       3.64786122       5.87377680      -0.00476670      -0.00768732      -0.00302755
H       10.22226292       3.71079279       4.95958254       0.00121227      -0.00697757       0.00493360
H        8.90799569       4.56531818       4.53221055       0.01355067       0.01983185       0.01539713
N        3.85554379       1.49055073       9.33418119      -0.00136879       0.00886609       0.00355449
H        3.16092510       2.21117311       9.49707228       0.01202956       0.01532181       0.03248889
H        4.08275836       1.12803329      10.25713448       0.00777180      -0.01832760      -0.00960825
H        3.40719035       0.75020156       8.80342221      -0.01717082       0.02933611      -0.01204028
N        0.91455156       6.30409799       3.63130394       0.00396150       0.00985718      -0.00197916
H        1.09675630       6.23142721       2.63811236       0.02166285       0.00532909       0.00152190
H        1.67918438       6.82782123       4.04534059      -0.01219712       0.02665211       0.00672568
H        0.05952919       6.82981781       3.77802508      -0.00889470      -0.00607447      -0.01831303
N        1.07518830       3.13633819       4.12127452       0.00680783       0.00950886       0.00381505
H        1.87088861       2.93842526       3.51998354      -0.00848442      -0.01348363      -0.00871930
H        1.44516031       3.04045924       5.06784612       0.02131236       0.01954019      -0.00052889
H        0.92498582       4.14440348       4.01610325       0.01671477       0.00971062      -0.00903017
N       11.42378116       7.88540457       0.41285782      -0.00551857      -0.00210595       0.00452018
H       12.35525486       7.48288549       0.54677534      -0.00475174      -0.01032105      -0.02538086
H       10.95989764       7.35319444      -0.33316983      -0.02910951       0.01213881       0.00790742
H       10.87110074       7.68850601       1.24487104       0.01514360      -0.01200776       0.01580095
N        3.39919459       6.44666748       8.42781188      -0.01049405      -0.01351449      -0.00807089
H        3.82355299       7.36861903       8.31982491      -0.00853446      -0.01301245       0.00255211
H        4.07435673       5.92707522       8.98136113      -0.00014228      -0.02915592      -0.03548042
H        2.60967207       6.56117094       9.05371455       0.00437600      -0.02363264       0.01289059
N        4.94567293      10.86981612       5.24505131      -0.00029421      -0.01273990      -0.01798092
H        4.48116534      10.07604113       4.81602473       0.00000003      -0.01987385      -0.00546418
H        5.64996314      10.49780330       5.87614696       0.00894339      -0.00247724      -0.02180323
H        5.44213116      11.34578975       4.49932650      -0.01209428      -0.01632070      -0.02842262
N       10.99224582       6.46623224       7.13519854       0.00337698      -0.01180169      -0.00846308
H       10.33487003       6.71633837       7.86659051       0.01781458      -0.02032163       0.00720540
H       11.83856423       6.13976279       7.58763063       0.01395993      -0.01008932      -0.02656077
H       10.58363249       5.66544082       6.64948910      -0.00292838      -0.01318243      -0.00225234
N        6.27411786       2.13432714       7.20050501       0.00912394       0.00071871       0.02898297
H        5.83521311       2.36898795       6.31579429       0.01359194       0.03291547       0.03540373
H        5.51316943       1.91574822       7.84572791       0.00494188       0.00537317       0.02622917
H        6.74482231       1.24831185       7.03982058      -0.01382942      -0.00753137       0.00777894
N        3.97638743       5.22372776       2.83725652       0.00954114      -0.00560926      -0.00128791
H        4.44495813       4.31613757       2.88316193       0.02307938       0.00109334       0.00080500
H        3.46337938       5.31573728       3.70755157      -0.00696746      -0.02023064      -0.00944217
H        4.71409317       5.92277032       2.87586365      -0.00450321       0.00852594       0.01186054
N        0.97858753       1.12506328       0.82078614       0.00022066      -0.00127292       0.00241402
H        1.97212007       1.28689239       0.61973284      -0.00119263       0.00686491       0.00230063
H        0.90546611       1.14170747       1.83670421      -0.00315361      -0.00198611       0.00232291
H        0.46840369       1.95986154       0.53150095      -0.00711596      -0.00604713       0.00069311
N        9.21940375       0.63819451       8.05145378       0.00794116      -0.00284308      -0.00358289
H        9.56979050       0.80814325       7.10547273       0.01679492      -0.01451716      -0.00245167
H        8.77541209       1.50200362       8.34780163       0.00194684       0.00108083      -0.02340826
H        8.45505587      -0.03880707       7.95790031       0.00995306      -0.00492475      -0.00406818
N        6.25176851       8.13155526       3.07128121      -0.01620130       0.00328901      -0.01568817
H        6.99716480       7.90247727       2.42111855      -0.01255796       0.00569753      -0.01220277
H        6.61918912       8.84592403       3.69376389      -0.01680805      -0.00871073      -0.00157347
H        5.53268510       8.60861541       2.53251757      -0.00694994       0.01764812      -0.01709650
N        2.60122541       3.57488433       7.14061124      -0.00613165      -0.00330879       0.00540823
H        1.93478101       3.40688371       7.88783659      -0.01274846       0.00485245       0.00164761
H        2.75634582       4.58337354       7.15994904       0.00355605      -0.00449282       0.00340804
H        3.47505054       3.17676696       7.47417384      -0.01223913      -0.01335433       0.00977983
N        9.53357678       9.63272572      10.26093879       0.00687826       0.01492934       0.00440332
H        8.72140189       9.85370232      10.86318058      -0.00271726       0.02349863      -0.00993580
H        9.28570062      10.03378647       9.35576104       0.03178985       0.01840229      -0.00077242
H        9.51305131       8.60655551      10.13608099      -0.00259937       0.01571760       0.00394112
N        9.46106979       7.67940472       4.45096807       0.00837900       0.00362460       0.01617026
H        9.69077693       8.64661345       4.65841468       0.00633901       0.00556669       0.01055071
H        9.93577276       7.14157602       5.17403200      -0.00254431       0.01079954       0.02965552
H        8.46632858       7.58372028       4.63489250       0.00515097       0.00860874       0.00100516
N        8.74065935       6.06165316       1.78580982       0.00442635       0.00253829       0.00182593
H        9.03004284       6.49691976       2.66250160       0.01153675      -0.00520430       0.00334367
H        9.43607535       5.36203197       1.54935855      -0.00396095      -0.00278503      -0.00769609
H        7.87171135       5.56714417       1.96137376       0.00034952       0.00991058       0.00294521
N        6.82530476       3.68650941      10.37712497      -0.01669602       0.00388601      -0.02494598
H        6.37216094       2.99152044      10.96036630      -0.00792837       0.00701678      -0.01408314
H        7.80070160       3.70326817      10.65282430      -0.01643401       0.02023691      -0.02646045
H        6.79375304       3.32917415       9.42537053      -0.01175228      -0.01008209      -0.02015811
N        9.37636659       6.56918250      10.19136871       0.00392695       0.00668836      -0.00403758
H        8.73431463       6.49002280       9.39449664       0.00255698       0.01674952      -0.00457297
H        8.83272121       6.46358580      11.04500961       0.00061549       0.00056363      -0.00696958
H       10.02258964       5.78437419      10.16651945       0.00032504       0.00322685      -0.01118901
N       10.51455238       0.73724916       5.11812854       0.01466565      -0.00732167      -0.00078505
H       11.18480800       1.39898770       4.73166148       0.01518996      -0.00086871       0.01155458
H        9.76328413       0.64404055       4.44153608       0.01142841       0.01172483      -0.00019766
H       10.96918462      -0.16846730       5.18071534       0.01126831      -0.01037164      -0.02284194
N       10.17150617       2.75350945       1.83177988       0.00297633       0.00757071       0.01634449
H        9.35133250       3.25944662       2.15156067       0.00352760       0.02281989      -0.00711395
H       10.85311853       2.84796578       2.58545098      -0.00753894       0.01132879       0.02520812
H        9.87233768       1.77901208       1.85129662      -0.00951379       0.01156320       0.02752093
N        1.65325886       9.03589169       9.92340443       0.00275356      -0.00520915      -0.00084478
H        2.37331345       9.51375686       9.38300697       0.00137085      -0.00484219      -0.00300512
H        1.14727368       8.47076799       9.24425355       0.00110814      -0.00812238       0.00239646
H        2.15203487       8.37683582      10.54827659       0.00444633      -0.00318700       0.00098270
N        3.98495874       7.61492571       5.44370434      -0.00141439       0.00639874       0.00052746
H        4.46095601       8.14921269       6.17104931      -0.00255079      -0.00003789       0.00619783
H        4.69065533       7.42611177       4.73576772       0.00019296       0.00871900       0.00118725
H        3.77250715       6.73269236       5.90044278      -0.00766949       0.00375202      -0.00722399
N        0.19248388       0.36360844       9.39975321       0.00096981      -0.00623739       0.00763953
H        0.41868708       1.31798303       9.67347647       0.00414377      -0.00826979       0.01221997
H        0.87321170       0.14439063       8.66234550      -0.00103989      -0.00395676       0.00475457
H       -0.74709051       0.41814145       8.92093332      -0.00028956      -0.00003809       0.01058382
N        2.22983916       0.29630791       6.77197780       0.00033309       0.00469340       0.00704432
H        1.56499630       0.01466600       6.05837860      -0.00654308      -0.00422099       0.01709121
H        3.13764745      -0.02949789       6.42413695      -0.00180095       0.00760071      -0.00137000
H        2.27231468       1.31143836       6.70752531      -0.00901786       0.00485517       0.00090045
