148
Lattice="12.715344289964499 0.0 0.0 0.0 12.715344289964499 0.0 0.0 0.0 12.715344289964499" Properties=species:S:1:pos:R:3:forces:R:3 energy=-916572.3125 stress="-0.000751411251258105 0.0002748195256572217 0.0009760154352989048 0.0002748195256572217 -0.0008096135570667684 -0.0004259282286511734 0.0009760154352989048 -0.0004259282286511734 -0.0008814114262349904" pbc="T T T"
Ce      12.45941590      12.55543468       2.04647650       0.00529461       0.01705499       0.00558090
I        0.09829950      12.94082518       4.94666399      -0.01212671      -0.01417902       0.01439010
I       11.80958525      12.66480235      11.83636616       0.00218499       0.03182421       0.01009133
I        5.47526377      14.16560130      12.08655261      -0.01378918       0.01401551       0.00390905
O       12.82760229       8.28968135       7.27189530      -0.03067663      -0.00403097      -0.02780414
N       11.86619919       9.13442922       9.16669067      -0.00609879      -0.00065205      -0.01673603
C       11.56025684      10.42469312       8.57926197      -0.00879033       0.00100838      -0.01135883
C       11.58126225       8.95113705      10.57177413       0.00593122       0.00156773      -0.01349010
C       12.49528948       8.18508540       8.44700848      -0.01997119      -0.00261028      -0.01966846
H       12.22487990      11.19695587       8.97508023      -0.00734398      -0.00089502      -0.01141389
H       10.53554277      10.71083654       8.82021255      -0.00771415       0.00010564      -0.00861181
H       11.67350362      10.35769306       7.50098857      -0.01138329       0.00312686      -0.01209047
H       12.20398748       9.60050121      11.18952351       0.01119748       0.00320739      -0.02027640
H       11.77603410       7.91706352      10.84790617       0.00894049       0.00221634      -0.01305747
H       10.53129058       9.18910723      10.77202880       0.00799784       0.00067842      -0.00419886
H       12.69054517       7.27475829       9.03594975      -0.01735602      -0.00312024      -0.02544144
O       10.28223482       6.18142697       9.26314744      -0.00801790      -0.01259112       0.03441000
N        8.34828496       7.41028332       9.14751863       0.00716534      -0.00570270       0.00906655
C        8.35755622       7.58480019       7.70970237       0.01613320      -0.00348582       0.01074836
C        7.28194940       8.04255122       9.88448096      -0.01053917       0.00192383      -0.00768321
C        9.32727190       6.73045428       9.78217056      -0.02612370       0.00249279       0.03283150
H        8.44605921       8.64345787       7.45829643       0.02344950      -0.00655633       0.00607852
H        7.43215699       7.18769145       7.28131922       0.02465791      -0.00587155      -0.00254202
H        9.21184452       7.05654801       7.29622819       0.02426073      -0.00846919       0.02333457
H        7.30601220       9.12886104       9.75659729      -0.00984296       0.00263530      -0.01088981
H        7.39431064       7.81356369      10.94211802      -0.02716261       0.00555655      -0.00627066
H        6.30895686       7.67150952       9.55169201      -0.00737551       0.00143971      -0.02176729
H        9.16850300       6.72509980      10.87631124      -0.02751349      -0.00049226       0.01422206
O        4.79486756      10.41718520       1.78297953      -0.00174737      -0.01597673      -0.00254413
N        7.04950328      10.67868619       1.47690607      -0.00499064       0.00186817      -0.00448966
C        7.24955538       9.39728427       0.84934020       0.00343521       0.00420237      -0.00719102
C        8.20336777      11.53475490       1.61979035      -0.01065199       0.00929353      -0.00409319
C        5.81124372      11.09352875       1.82886882      -0.00825739      -0.00875324      -0.00376548
H        7.83432803       8.72749896       1.49022300       0.00608695       0.00617725      -0.00780797
H        7.78876704       9.52862504      -0.09233666       0.00418365       0.00948025      -0.00573948
H        6.27454074       8.95568229       0.65639059       0.00642028      -0.00084896      -0.00940306
H        8.94991878      11.07211091       2.27604505      -0.00421885       0.01013525      -0.01134212
H        7.89766122      12.47792026       2.06767512      -0.01539268       0.00337660       0.00452703
H        8.65835304      11.74000171       0.64582596      -0.01721294       0.01951118      -0.00464815
H        5.82275562      12.13664268       2.17996492      -0.01625304      -0.00753152      -0.00514108
O        2.09257094       6.74759560       5.12666995      -0.00649077      -0.00334322      -0.00216258
N        2.74128436       8.76903482       5.96595740       0.01070645      -0.01064631       0.00197859
C        1.99593344       9.52755955       4.99191645       0.02428266      -0.00481185      -0.00334479
C        3.22294587       9.51513529       7.10381496       0.00104424      -0.02098186       0.01309457
C        2.65597994       7.42044950       5.97518928      -0.00896275      -0.00992936       0.00249881
H        2.63176040      10.30898398       4.57340951       0.03030032      -0.00943677      -0.00154704
H        1.12561181       9.98723441       5.46747972       0.02466652      -0.00001968      -0.00826082
H        1.67730945       8.85365272       4.20110104       0.02516789      -0.00266597      -0.00503330
H        3.80517740      10.37537497       6.76236717       0.01140739      -0.02270427       0.02787231
H        3.86378992       8.88456183       7.71856465      -0.01138727      -0.03021526       0.01610295
H        2.38882774       9.88075019       7.71069862      -0.00310498      -0.02036293       0.00694901
H        3.19776247       6.96884935       6.82431597      -0.02798441      -0.01455137       0.01182145
O        8.75403297       1.81018467       9.08562431      -0.00352943       0.00675917       0.02536458
N        6.57164124       2.15364779       8.49957948       0.00319284       0.00527033      -0.00269333
C        6.59909333       3.56770195       8.80596640       0.00035606       0.00633990      -0.00869110
C        5.27556316       1.56577970       8.24379371       0.00579706       0.00457844      -0.01345807
C        7.66413379       1.39434319       8.72791115      -0.00343263       0.00411370       0.01250383
H        6.15260012       3.74192010       9.79141318      -0.00915053       0.01122806      -0.01436579
H        6.04978106       4.11772329       8.04034371       0.00886159       0.00302862      -0.01650947
H        7.63608903       3.89442499       8.82995623       0.00029758       0.00578578       0.00061146
H        4.62740631       1.67602410       9.11768298      -0.00164349       0.00278410      -0.01901159
H        5.39538200       0.50079421       8.04596377       0.00886910       0.00517078      -0.01446986
H        4.81025785       2.04523932       7.37868544       0.01279818       0.00548290      -0.01661402
H        7.47560627       0.32443562       8.53102777       0.00044957       0.00493115       0.01533150
O       11.77832513      10.42382351       2.61142656      -0.00697764       0.01680836      -0.02143505
N       11.71848509       8.17295925       2.82899554       0.00101386       0.01874849       0.00101218
C       11.59012978       7.95796095       1.39810304       0.00704982       0.00664750       0.00293744
C       11.79907646       6.99366023       3.67845730      -0.00176091       0.02779627       0.01318544
C       11.77395682       9.38651086       3.33444214      -0.00283222       0.02404392      -0.01114708
H       10.65300332       7.43298920       1.20349615       0.00960615       0.00291348       0.00237608
H       12.43258766       7.37715387       1.02395035       0.01060209       0.00715123       0.01073954
H       11.58230620       8.91545732       0.89000280       0.00718518       0.00296581      -0.00333919
H       10.87960880       6.40946844       3.58441889      -0.00214803       0.02760276       0.01587658
H       11.95331517       7.28660995       4.71370588      -0.00632539       0.04025440       0.01018456
H       12.64991875       6.38671672       3.36640640      -0.00089705       0.02376531       0.02346420
H       11.81366796       9.45641935       4.42040475      -0.00182487       0.03460100      -0.01243119
O       10.98418647       1.63498546       2.04740904       0.00820068       0.00869069       0.01290187
N        9.87371332       3.38005910       1.09639572       0.00327286      -0.00243670       0.00026399
C        8.58259446       2.70920571       1.04357176       0.00448298      -0.00516745      -0.00567833
C        9.91206949       4.75593108       0.65038280       0.00457234      -0.00832301      -0.01499134
C       10.95405522       2.79515829       1.56833676       0.00179589       0.00695492       0.00948928
H        8.10527670       2.90698989       0.08648517       0.01485321      -0.01671935      -0.01254058
H        7.93875868       3.07438407       1.84736513      -0.00516282       0.00580509      -0.01928827
H        8.72508778       1.64103328       1.14762550       0.00257872      -0.00312459       0.01123841
H        9.49153825       4.82828807      -0.35261549       0.01885208      -0.02224931      -0.02038604
H       10.93957317       5.11056280       0.63880000       0.00243628      -0.00313340      -0.00600799
H        9.32166183       5.37535533       1.33205131      -0.00661527      -0.00183149      -0.03298512
H       11.86358785       3.40034762       1.52272477      -0.00288117       0.01416499       0.01958492
O        9.44054214       0.64153554       5.97710156      -0.02559234       0.00681472       0.01164085
N       10.28158981       2.65958263       6.68795233      -0.01495892       0.00014736       0.00799426
C       11.32405361       2.12297160       7.53782423      -0.02268172      -0.00534385       0.01271479
C       10.02555049       4.07359182       6.83048012      -0.00044912       0.00276794      -0.00832297
C        9.41614990       1.86198403       6.03268668      -0.01641589      -0.00235188       0.00393359
H       11.10867325       2.37060226       8.57738873      -0.02098264       0.00505780       0.01036453
H       12.29166327       2.54082519       7.24820163      -0.01775372      -0.01870514       0.01120056
H       11.34764879       1.04365349       7.42618328      -0.03549612      -0.00571257       0.02105804
H        9.81827654       4.31608264       7.87362622       0.00167511       0.01605985      -0.01106238
H        9.16681844       4.35293974       6.21966208       0.00293402       0.00412846      -0.01172216
H       10.89270860       4.66574179       6.52310573       0.00543433      -0.01006387      -0.01459458
H        8.63864999       2.45265758       5.51089160      -0.00746816       0.00542936      -0.00514486
O        9.43713084       9.82785672       5.23339521       0.00326180      -0.01036087      -0.03069317
N        7.14319331       9.94140419       5.23237413       0.00695749      -0.00668214      -0.00711575
C        7.03611529      10.90532266       6.30988270       0.02029661      -0.00218759      -0.00995189
C        5.91661192       9.38370767       4.70435625       0.00141045      -0.00393306       0.00563716
C        8.34344547       9.50994912       4.79536875       0.00489545      -0.00882091      -0.01559909
H        6.60103374      10.43928078       7.20057533       0.02684096       0.00255397      -0.00482053
H        6.38521014      11.72661928       6.00023599       0.02040021      -0.00113283      -0.00707553
H        8.01997680      11.31063445       6.53156548       0.02282822      -0.00406744      -0.02065032
H        5.43383531       8.72036129       5.42731319       0.00531524       0.00042658       0.01177636
H        6.13013543       8.82318829       3.79687779      -0.00815066      -0.00769140       0.00597377
H        5.21639679      10.17565603       4.43548634       0.00250101      -0.00226194       0.00880140
H        8.23141965       8.79802580       3.95509415      -0.00774984      -0.01309958      -0.01333606
O        1.44463294       7.84444507      12.22984620      -0.00643682      -0.01240855       0.01409733
N        2.58828328       5.93927402      11.70405248      -0.00002076      -0.00681231       0.00197860
C        1.40580168       5.10976215      11.66247420       0.00369859      -0.01066068      -0.00249798
C        3.85779741       5.29007857      11.45918578       0.00199042      -0.00059918      -0.00577300
C        2.48731509       7.25496524      11.98395087       0.00022376      -0.01040453       0.00940683
H        1.40570947       4.39650735      12.49327920       0.00556816      -0.01436412      -0.00590837
H        1.37182200       4.54851950      10.72742506       0.00593956      -0.00566560      -0.00541180
H        0.53128666       5.75174049      11.72961361       0.00102788      -0.01428008       0.00069986
H        4.06218998       4.51317346      12.20147421       0.00482167      -0.00755453      -0.01424715
H        4.65346294       6.03266939      11.49233350      -0.00017516       0.00091779       0.00026307
H        3.86168596       4.80788515      10.47902450       0.00140581       0.00915588      -0.01057473
H        3.46336085       7.76828356      11.97209406      -0.00488043      -0.00681496       0.01319521
O        1.85764274       0.68083825       1.82674471       0.01477487      -0.01397669       0.01694405
N        3.78880436       1.35176557       2.84229113       0.00689906      -0.00365593       0.02131805
C        3.68087373       0.43153177       3.95604740       0.00769204      -0.00534993       0.01996082
C        4.94009784       2.23552846       2.86805891       0.00300983       0.00056577       0.02089471
C        2.90667761       1.39071214       1.86685774       0.00985646      -0.00663733       0.01911485
H        3.51606511       0.98802973       4.87918879       0.00415256      -0.00672549       0.02005899
H        4.60804445      -0.13628684       4.02908717       0.00975356      -0.00187734       0.02092727
H        2.84688133      -0.23971677       3.79167128       0.01019859      -0.00812192       0.01823829
H        4.90669919       2.83783603       3.77808167       0.00161669       0.00078228       0.02070212
H        4.94704631       2.85000381       1.97321195      -0.00315823      -0.00035939       0.02022305
H        5.85001921       1.63293695       2.85810404       0.00477991       0.00337081       0.01825451
H        3.14045646       2.06871908       1.04499280       0.00613488      -0.00276119       0.02137339
O        5.43793187       4.73613155       5.50995924       0.00152206       0.00135458      -0.00350118
N        5.49532480       5.63511924       3.40260326      -0.00095958       0.00093213      -0.00296926
C        4.07263831       5.52986479       3.14735713      -0.00139579       0.00248442      -0.00056650
C        6.29929610       6.20312360       2.34834453      -0.00206200      -0.00005426      -0.00437851
C        6.03652140       5.24983256       4.57902342      -0.00002301       0.00001520      -0.00360131
H        3.89467802       4.89750697       2.27332177      -0.00338032       0.00452998      -0.00153869
H        3.65455787       6.52043003       2.95849801      -0.00115467       0.00300652       0.00203637
H        3.58046602       5.11822918       4.02234508      -0.00012513       0.00112358      -0.00064284
H        6.34520188       5.53327041       1.48248335      -0.00541583       0.00009546      -0.00444180
H        7.31060366       6.37995155       2.71473895      -0.00108165      -0.00236231      -0.00640978
H        5.87008619       7.15377302       2.02563499      -0.00090867       0.00085920      -0.00299859
H        7.12392834       5.45029092       4.61476325       0.00068086      -0.00158355      -0.00594721
