148
Lattice="12.460961337496588 0.0 0.0 0.0 12.460961337496588 0.0 0.0 0.0 12.460961337496588" Properties=species:S:1:pos:R:3:forces:R:3 energy=-1026505.0625 stress="0.0008189668878912926 -9.290511661674827e-05 7.943713353597559e-05 -9.290511661674827e-05 0.00020453926117625087 0.0001031821702781599 7.943713353597559e-05 0.0001031821702781599 0.0009073105757124722" pbc="T T T"
Cf      13.32776555      13.22556413       0.24977583       0.01850355       0.00143300      -0.00320566
F       11.43277191      13.57792105      -0.37481627       0.02137703       0.01013074      -0.00577091
F       12.93637087      12.97633114       2.21007433       0.00488274       0.02709973      -0.00238246
F        9.58924249      11.65922657       3.42954898      -0.00812963      -0.04785728       0.00514928
O        9.00444666      10.87177500       1.17664439      -0.02186620       0.00969344      -0.00467917
C        7.67204880      11.22019584       0.98641712      -0.02042937       0.01440604      -0.00112167
C        6.88616638      11.32283652       2.29187211      -0.02158830       0.01277426      -0.00224894
H        7.58740087      12.18454641       0.44824120      -0.01703945       0.01545268       0.00139147
H        7.21593859      10.45619730       0.33037399      -0.02651387       0.01720518      -0.00290045
H        5.86236921      11.66556948       2.11509604      -0.02121095       0.01384979      -0.00322869
H        6.84958172      10.35823579       2.80079031      -0.02353260       0.01212694      -0.00413393
H        7.38985060      12.01745064       2.96327793      -0.02423409       0.01141433       0.00112033
H        9.30102824      11.24629592       2.08467493      -0.02109355      -0.01170094       0.00526594
O        1.29159176       2.84544463      11.34769182       0.01373231      -0.00719449       0.00561240
C        1.90744943       2.56504801      10.06040972      -0.00079805      -0.00132009       0.00061795
C        2.67028189       1.27320121      10.16259187       0.00846188       0.00228116      -0.00716483
H        1.12953212       2.48894924       9.30157248      -0.00559211      -0.00543958       0.00732297
H        2.57602366       3.39237371       9.81724307      -0.00641549       0.00252229      -0.00351023
H        3.17683888       1.06442137       9.22121111      -0.00316790       0.00495396      -0.01507156
H        3.42593605       1.31622452      10.94610690       0.01859811       0.00599874      -0.01814514
H        1.98465355       0.43444081      10.33864678       0.01555078      -0.00164828       0.00133327
H        0.47596171       3.33835599      11.20327082      -0.01133347      -0.02508068       0.00772992
O        3.07608187       1.26089636       1.01288813       0.01906328       0.00269377      -0.01853205
C        3.63965398       2.24128471       1.91098712      -0.00245923       0.00246258      -0.00522812
C        3.33101619       1.96904271       3.36282144      -0.00929712      -0.01536034      -0.01000559
H        4.71522998       2.28142418       1.72293140      -0.00177598       0.01955100       0.00180873
H        3.21117484       3.19100065       1.58761382      -0.01406623      -0.00087294       0.00209514
H        3.77971905       2.74981046       3.98006902      -0.02229743      -0.01538828      -0.00058766
H        2.25672913       1.95678095       3.53793501      -0.01031935      -0.02963059      -0.01751259
H        3.75084379       1.01196156       3.67737136      -0.00059502      -0.01351374      -0.01615060
H        3.58966491       0.42809030       1.00678819       0.01622134       0.00009450      -0.00575039
O        6.81120759       4.11643458       1.91359977       0.00390306      -0.00217605       0.00483817
C        6.30252358       4.48635483       3.19996931      -0.00202531      -0.00175226      -0.00022009
C        6.98814002       5.71758400       3.74241257      -0.00574246      -0.00271887       0.00654945
H        5.21791954       4.64768525       3.14878238      -0.00185716      -0.00507975      -0.00242081
H        6.47213681       3.62826118       3.84956008      -0.00206599      -0.00416133      -0.00029945
H        6.57635762       6.00273754       4.71106127      -0.00817850      -0.00702960       0.00664377
H        8.05732983       5.53400421       3.86239793      -0.00562979      -0.00044194       0.00784851
H        6.86298808       6.56498654       3.06343338      -0.00634236      -0.00034709       0.00884271
H        6.71535119       4.88326918       1.34018116      -0.00631166       0.00206253      -0.00238504
O       12.07085185       0.19095290       9.27853786       0.01281732      -0.00534052      -0.00774327
C       10.76918120       0.72930840       8.97692518       0.00932509      -0.00761473      -0.00102034
C       10.86207579       1.95900127       8.09467937       0.00329810      -0.00783587      -0.00234321
H       10.15350783      -0.02909493       8.48554820       0.01045170      -0.00961691       0.00037241
H       10.33021544       0.96500219       9.94515726       0.01267456      -0.00861894       0.00003988
H        9.86707965       2.36544864       7.90931276       0.00161852      -0.01007858       0.00127790
H       11.46820447       2.73277477       8.57371190       0.00341418      -0.00615571      -0.00483087
H       11.30091630       1.71259653       7.12616381       0.00003459      -0.00767174      -0.00373879
H       12.38396796      -0.23056980       8.47208880       0.00974586      -0.00349450      -0.00570187
O        8.20308439       3.52141681      10.38394899      -0.00110930      -0.00224388      -0.00564176
C        8.89916289       3.72140812      11.62594753      -0.00599027       0.00624336       0.00006028
C       10.38531611       3.89877649      11.40839782      -0.00606382       0.01140892      -0.00113571
H        8.48636712       4.59289651      12.14461862      -0.01044196       0.01059842      -0.01005550
H        8.69440377       2.83831665      12.22731688      -0.00328194       0.01273277       0.00568587
H       10.87812202       4.04956066      12.37074120      -0.00762282       0.02037085      -0.00123776
H       10.79695238       3.00315680      10.94433820      -0.00308024       0.00954688       0.00534637
H       10.58261401       4.77788003      10.78794763      -0.00808995       0.00768273      -0.00671571
H        8.53700944       4.17458064       9.75926741      -0.00913656      -0.01252821      -0.00213407
O       10.91785476       5.75019776       6.64168650      -0.00224185      -0.02033877      -0.00065488
C        9.61387425       6.30927838       6.78153971      -0.00287980      -0.00279407      -0.00231469
C        8.54222653       5.25207251       6.90922771      -0.00401914      -0.00179785       0.00603941
H        9.58549926       6.99209079       7.63928755       0.00620182      -0.00440192      -0.00074530
H        9.45489224       6.92088886       5.89225120      -0.00413532      -0.00582644       0.00077450
H        7.55066104       5.69602558       7.00704916      -0.00247443       0.00244784       0.01247311
H        8.53199907       4.58314978       6.05002271      -0.01206820      -0.00122438       0.00623851
H        8.71596908       4.62994151       7.79356694      -0.00054625      -0.00205352       0.00485283
H       10.97453445       4.99058433       7.22805420      -0.00084482       0.00340847      -0.00780360
O        2.18899025       5.50345231       2.81917139       0.00031370       0.00108689      -0.00010544
C        2.30222725       6.90664538       3.03223779       0.00141424      -0.00703266      -0.00510292
C        3.68893006       7.31088875       3.48522506      -0.00263715       0.00489434      -0.00523749
H        2.02437460       7.44918358       2.11844870      -0.00934687      -0.00172889       0.00245851
H        1.55755019       7.15125822       3.78964173      -0.00016698      -0.01578742       0.00289443
H        3.74257441       8.38712306       3.65972883      -0.00986737       0.00389898      -0.00030461
H        3.96304798       6.80307735       4.41056444       0.00500736       0.00221555      -0.00894347
H        4.43108946       7.06145206       2.72158988      -0.00256020       0.01346932      -0.00941189
H        2.85811000       5.25951763       2.17408040       0.01559182       0.00334859      -0.02887987
O        5.82725888       8.87818984       9.68775461       0.00553360       0.00200677       0.02707702
C        6.49950325      10.14928402       9.59321410       0.00673237      -0.00217611      -0.00023375
C        5.48873218      11.27148330       9.49025153       0.01936477       0.00018197       0.00115882
H        7.12401513      10.28102682      10.47972099       0.01142681       0.00497780       0.00690487
H        7.16077251      10.15250789       8.71923102       0.00445938      -0.01317141       0.01055813
H        5.98572677      12.23513351       9.61643528       0.01523332       0.00047426      -0.02420632
H        4.99386117      11.28315889       8.51889511       0.00068579      -0.01587784       0.00037779
H        4.72521263      11.17141054      10.26237128       0.01661898       0.01723579       0.00971617
H        6.33328210       8.34977991      10.32343061       0.01124656      -0.00030330       0.01374567
O        3.98766932      11.34095422       0.22177956       0.01648158      -0.00418542       0.02772810
C        3.39593763      10.07344464       0.55299927      -0.00686967      -0.00601536       0.00239470
C        1.89771888      10.25004789       0.61134944      -0.00453642      -0.00159118      -0.00671957
H        3.66941586       9.34041642      -0.21092064       0.00511153       0.01491076      -0.01385885
H        3.77917148       9.73210911       1.51812757      -0.01878310      -0.02570477       0.00055975
H        1.40844860       9.29545515       0.80194356      -0.01927672       0.01085138       0.00644388
H        1.60301491      10.92451266       1.42186277      -0.00034993       0.01301566      -0.01563385
H        1.51659269      10.60144527      -0.35673096       0.00850666      -0.00647642      -0.01388335
H        4.94594813      11.22885237       0.17619511      -0.00596529      -0.01279701       0.01067636
O        5.58046845       3.86181926       9.41537533      -0.00276867      -0.01096958      -0.00009161
C        5.16289600       5.17755390       9.78383570       0.00521824      -0.00757764      -0.00392947
C        4.63570541       5.23090202      11.20572221       0.01093180       0.00036354      -0.00232041
H        5.99197855       5.88615499       9.66603869       0.00972018      -0.01209816      -0.00907717
H        4.39093017       5.46729404       9.06912462       0.00538442      -0.00506843      -0.00259018
H        4.33248262       6.24918656      11.46050936       0.01440771       0.00205088      -0.00489566
H        3.77614071       4.57023940      11.33295295       0.00977913       0.00255555       0.00341370
H        5.40825121       4.91628561      11.91129406       0.01272121       0.00168699      -0.00400531
H        6.39886896       3.66008656       9.90395881      -0.00279931      -0.01326371      -0.00132440
O        4.95171966       7.80033818       7.07010332       0.01044291       0.00973558       0.04077142
C        4.08350421       8.88676439       6.76567784       0.00619674      -0.00145626       0.00939969
C        2.61943707       8.50189947       6.86375983       0.00840449      -0.00637549       0.00902516
H        4.28661652       9.71976150       7.44142285      -0.00414350       0.01251990      -0.00156054
H        4.31586256       9.23300347       5.75359823       0.01174606      -0.01968710       0.01010996
H        1.98406475       9.36881292       6.66845894       0.00436255      -0.01453608      -0.01140319
H        2.36820997       7.72575130       6.14058585       0.01707405      -0.02220093       0.01968001
H        2.39037627       8.12420765       7.86097969       0.00136633       0.00901192       0.01276228
H        5.31226343       7.97641150       7.95155954      -0.00078856       0.02324203       0.04184532
O        7.88174792       7.70842156      11.37446620      -0.00733932      -0.01358698      -0.02186841
C        8.72518026       7.32500755      10.29214787       0.00743893      -0.00434570      -0.00591353
C       10.18002673       7.68549743      10.50389967       0.00023913       0.01758194      -0.00244616
H        8.62432681       6.24425181      10.11234426       0.02282525      -0.00385970      -0.01064629
H        8.32595761       7.82808244       9.40824236       0.00323498      -0.00746796      -0.01043642
H       10.77351398       7.38346124       9.63769174       0.00872266       0.03107188      -0.00138742
H       10.29373863       8.75977899      10.64739782      -0.01523377       0.01790354       0.00512985
H       10.57337553       7.17415828      11.38262023       0.00570047       0.01869275      -0.00263321
H        8.31791700       7.44139405      12.20385723      -0.00022136      -0.01336693      -0.00191417
O        9.52646089       6.75559104       1.11505820      -0.02501792       0.01411754      -0.01505345
C       10.14071953       7.85516970       1.83598482      -0.01772301       0.00166765      -0.01139924
C        9.25439992       8.37586034       2.93613578       0.00022253      -0.00058043       0.00321555
H       11.11268470       7.52694952       2.22263615      -0.01211834       0.00063905      -0.02867676
H       10.30175408       8.63354409       1.09190921      -0.02695468       0.00794452      -0.01157194
H        9.63099048       9.32238967       3.32576981       0.00716927      -0.00369218       0.00358907
H        8.26425611       8.58139031       2.53134314      -0.00580382       0.00440084       0.01991098
H        9.16630253       7.65709611       3.75290727       0.01026828      -0.00592561       0.00046725
H        9.27577783       6.08757214       1.76162048      -0.03295616       0.00457011      -0.00389969
O        9.77581477      11.33078619       5.89684668       0.02830839       0.02528918       0.01262474
C       10.71760745      10.29534533       5.92935063       0.01554132       0.01367778       0.01288317
C       11.92153430      10.57755673       5.03951924       0.01993692      -0.00016481       0.01433015
H       11.03321670      10.15910396       6.97450026       0.01247579       0.00891994       0.01301372
H       10.26699568       9.33649822       5.62243598       0.00401333       0.02008706       0.01028621
H       12.64642851       9.76116481       5.09148395       0.00376235      -0.01474193       0.00666112
H       11.58814986      10.71433860       4.01000704       0.02004373       0.01264069       0.01586145
H       12.40389150      11.51000027       5.34053082       0.03896033      -0.01246430       0.02167501
H        9.62704624      11.53312829       4.91534245       0.01066807       0.00248799       0.01190210
O        6.00976886       3.15327279       6.66628958      -0.01177423      -0.00139445      -0.00037101
C        5.99387753       1.73177714       6.70109870      -0.00556350      -0.00253958      -0.00623088
C        7.34941351       1.13035036       7.02068649      -0.00485289       0.00263532       0.00064488
H        5.24401041       1.38278785       7.42346988      -0.00874141      -0.00812085      -0.01217788
H        5.66620984       1.39937508       5.71229227       0.00218770      -0.00011568      -0.00921774
H        7.32206009       0.03947687       6.97976878       0.00015717       0.00268205      -0.00288631
H        8.09650736       1.45297072       6.29509390      -0.00152679       0.00838141       0.00650574
H        7.67876406       1.42952640       8.01888192      -0.01197188       0.00094405       0.00365652
H        5.90196449       3.46933943       7.57912481      -0.00864338      -0.00591756      -0.00046604
