148
Lattice="12.442924301903036 0.0 0.0 0.0 12.442924301903036 0.0 0.0 0.0 12.442924301903036" Properties=species:S:1:pos:R:3:forces:R:3 energy=-1623403.125 stress="-0.0008194773690775037 0.00048024427087511867 6.413976370822638e-05 0.00048024427087511867 -0.00034401222364977 -0.00028769423079211265 6.413976370822638e-05 -0.00028769423079211265 0.0008052316843532026" pbc="T T T"
Cf      11.63978243      11.11681921       0.94893161      -0.00049135       0.00850759       0.00553370
I        2.96159518      11.31144838       0.11032880       0.00314425       0.00791034       0.00538792
O        2.69526117       9.78348781      -0.76940268       0.01056469       0.00771224       0.00194708
O        4.12111427      11.11616883       1.44710845      -0.00592944       0.00369136       0.01317681
O        3.28615730      12.70623849      -0.93981716       0.01117390       0.00848719       0.01124197
O        1.35170100      11.68536880       0.93904695       0.00024861       0.00795795      -0.00041497
I        0.38397243      11.34273792       4.58743157       0.00091104      -0.00253291       0.00149807
O       -0.66008322      10.80363992       3.15308742      -0.00447492      -0.00169900       0.00568280
O       -0.27775172      10.45829648       5.98005383       0.00106067      -0.00106555       0.00247955
O        2.06503689      10.86811722       4.22004907      -0.00220614      -0.00817517      -0.00637077
O        0.19197783      13.11073189       4.67992409       0.00587567      -0.00178017      -0.00094144
I        8.01561583      10.85844834       9.09569523       0.01233860       0.00793496       0.00338755
O        9.03459743      12.32623252       8.92798786       0.01950499       0.00253254       0.00018641
O        6.60292586      11.21516118      10.11945109       0.00367963       0.01665685      -0.01254550
O        7.58314438      10.18028382       7.51428676       0.02695955      -0.00657134       0.00493601
O        9.02798522       9.63101189       9.96766201      -0.00024170       0.01176700       0.02271111
O        4.96854563       4.25778131       8.78519698       0.00517228       0.03380650      -0.02275175
C        4.28203832       4.61338959       9.98594409      -0.00259233      -0.00131452       0.00283578
C        5.11770612       5.55017860      10.84339556       0.00064802       0.00410187      -0.00285500
C        2.90826022       5.18190674       9.66566677      -0.00064605       0.00581130      -0.00109275
H        4.16106626       3.66335566      10.51446491      -0.00056775       0.00655228      -0.00396103
H        4.64150919       5.73038194      11.80852625      -0.00016980       0.00311680      -0.00194229
H        6.10140758       5.11836391      11.02545629      -0.00044081       0.00211580      -0.00136970
H        5.24821282       6.51463677      10.34604045       0.00109756       0.00262508      -0.00142109
H        2.35221845       5.40631113      10.57743806      -0.00025076       0.00167159       0.00099175
H        2.33455261       4.47149019       9.07019481      -0.00108713       0.00639537      -0.00200900
H        3.00749012       6.10946596       9.09579828      -0.00153078       0.00628787       0.00291853
H        5.13643348       5.06266067       8.28353686      -0.00569145      -0.02093638       0.01440115
O       10.82352649       9.68657821      11.71951620       0.01430726       0.02113064      -0.00324808
C       12.04605031       9.68112309      10.93968667       0.01361153       0.01005904      -0.00499251
C       12.15913724       8.42738043      10.10289551      -0.00192019       0.00564438       0.00065434
C       12.13763676      10.96134055      10.13242480       0.02250031       0.00535077      -0.01084021
H       12.85715835       9.64829256      11.68889599       0.01376510       0.00621296      -0.00635204
H       13.14162334       8.40232482       9.63238198      -0.01019719      -0.00151216      -0.01587915
H       12.04618028       7.53642008      10.72109342       0.00501000       0.00990225       0.00770257
H       11.39184823       8.42404076       9.32971726      -0.01507287       0.00509585       0.01388727
H       13.11740113      11.05921378       9.66556612       0.01992249      -0.01184010      -0.01981922
H       11.98025964      11.85281991      10.75954745       0.04210623       0.00881658      -0.01167703
H       11.36964386      10.98240787       9.35879326       0.01799659       0.01558371      -0.00633894
H       10.03057109       9.77044663      11.06993635       0.01153918       0.01845061      -0.00298342
O        9.02653579       5.03281689       6.99291045      -0.01277423       0.00522864       0.00932790
C       10.09103856       5.86776632       7.46803146      -0.00499475      -0.00335211       0.00675339
C       11.44752356       5.36700538       6.99482141      -0.01035571      -0.01796493       0.00776330
C        9.81355835       7.26921470       6.96495664       0.00755802      -0.00208354       0.00414008
H       10.07060480       5.86607294       8.56650294      -0.00443255      -0.00060131       0.00679570
H       12.24171150       5.99553025       7.40449293      -0.00398888      -0.02538741       0.00654192
H       11.62592892       4.33648081       7.30471336      -0.02147800      -0.01902667       0.01053683
H       11.50916136       5.41751755       5.90639392      -0.01022940      -0.02148878       0.00765103
H       10.62339742       7.95057814       7.22617676       0.01352145      -0.00905491       0.00372030
H        8.88670432       7.66961496       7.37151918       0.01101249       0.00663409       0.00342418
H        9.73346581       7.25310578       5.87593151       0.00752622      -0.00293281       0.00419806
H        9.01359336       4.18461345       7.47405192      -0.01084956       0.00194050       0.00389315
O        3.59347881       8.54783010       4.90822842       0.00085497      -0.00650001      -0.01515990
C        2.99649236       7.52009836       4.12399837      -0.00252372      -0.00953817      -0.00853294
C        1.76347158       6.95401844       4.81380492       0.00027639      -0.00708494      -0.00136268
C        2.69699233       8.00113632       2.71026598      -0.00853483      -0.01497445      -0.00913602
H        3.75004335       6.72984208       4.06577734      -0.00273103      -0.00970501      -0.00901829
H        1.30714258       6.16338975       4.21506781      -0.00373819      -0.00726809       0.00196318
H        2.03277998       6.54878446       5.78923484       0.00363612      -0.00559648      -0.00157014
H        1.01846875       7.73989910       4.96696650       0.00203381      -0.00589614       0.00072111
H        2.45156461       7.15310369       2.06777591      -0.01046959      -0.01809165      -0.00427362
H        3.56272757       8.51425047       2.29057203      -0.01014794      -0.01638491      -0.01447853
H        1.86133589       8.70602477       2.71065600      -0.00918771      -0.01560432      -0.00866886
H        3.06188738       9.34941105       4.80844003      -0.00052819      -0.00722247      -0.01456507
O        8.53932357       2.68873999       8.54493663       0.00888215       0.00523698       0.00008553
C        8.29042407       3.04632461       9.91451934       0.00873711       0.00634392      -0.00029016
C        7.11339521       2.27257486      10.48456009       0.00639206       0.00959641      -0.00236860
C        9.55169380       2.85596398      10.74185234       0.00722271       0.00211038       0.00095898
H        8.03371134       4.10934076       9.87011773       0.01097928       0.00698221      -0.00208894
H        6.85650415       2.65091132      11.47684271       0.00821061       0.00673775      -0.00096238
H        6.24593990       2.36759143       9.83417206       0.00653040       0.01400217      -0.00177406
H        7.35435785       1.21423882      10.58488789       0.00424429       0.00898004      -0.00617568
H        9.38709348       3.14482205      11.78125617       0.00534435      -0.00339029       0.00192225
H       10.37678846       3.43943033      10.32908078       0.00773497       0.00459671       0.00619234
H        9.83238462       1.79976056      10.71989406       0.00814733       0.00223735      -0.00113390
H        8.69859172       1.72994535       8.51942779       0.01339560       0.00572857       0.00301972
O       12.00198571       5.94375468       2.06531334      -0.00523418      -0.00365034      -0.00602123
C       10.69494753       6.53219377       2.13487930      -0.00501281      -0.00290367      -0.00716044
C       10.80589083       7.95658389       2.63764505      -0.00467157      -0.00367433      -0.00525007
C        9.98586636       6.43887435       0.79593962      -0.00358352      -0.00133425      -0.00817907
H       10.15127602       5.93127481       2.86714089      -0.00665686      -0.00327605      -0.00864661
H        9.83089385       8.44115573       2.71451670      -0.00473477      -0.00438845      -0.00218360
H       11.29666989       8.00712909       3.60902057      -0.00310931      -0.00554261      -0.00595033
H       11.42464236       8.52371821       1.92910462      -0.00662235      -0.00211165      -0.00574813
H        8.96388124       6.81207489       0.87691353      -0.00357987      -0.00117462      -0.00902871
H        9.94323933       5.40246323       0.46349464      -0.00355760      -0.00106299      -0.00916064
H       10.50376798       7.04022763       0.04530052      -0.00262494      -0.00144388      -0.00762257
H       12.56939822       6.54658358       1.57349137      -0.00129777       0.00109312       0.00464997
O        9.65535343       2.98905994       1.80782819      -0.00606871      -0.00968744       0.00002447
C       11.06454757       2.91924629       2.04075383      -0.00564563      -0.00260505      -0.00176221
C       11.41462290       3.19734910       3.48741410      -0.00472325      -0.00095589      -0.00235420
C       11.60540917       1.56719108       1.58558420       0.00088662       0.00002807      -0.00165421
H       11.50612422       3.69136375       1.40888955      -0.00975975      -0.00109410      -0.00278783
H       12.49500324       3.18989287       3.63208872      -0.00449747       0.00416788      -0.00393405
H       11.03093291       4.16991331       3.78877001      -0.00876435      -0.00267811      -0.00189031
H       11.00020149       2.42750720       4.13997093      -0.00047836      -0.00277464      -0.00172528
H       12.69523019       1.54588720       1.64050208       0.00103390       0.00585841      -0.00282697
H       11.28333124       1.39534999       0.54848791       0.00107834      -0.00301335      -0.00137606
H       11.21092846       0.80527656       2.27373657       0.00569580      -0.00086517       0.00048202
H        9.19778193       2.71368172       2.60932568      -0.00380999      -0.01182135       0.00095387
O        6.15085332       3.14691989       4.37578315       0.00028807      -0.00031823       0.00229145
C        6.74526647       1.84746976       4.54587027      -0.00110784      -0.00092649       0.00246078
C        8.11042962       1.98313525       5.19626226      -0.00071722      -0.00275267       0.00194901
C        5.81184470       1.00142121       5.38785087      -0.00176495       0.00031835       0.00309223
H        6.84997210       1.37887356       3.55947453      -0.00210268      -0.00108916       0.00252187
H        8.62331454       1.02038901       5.23079762      -0.00186211      -0.00347252       0.00052087
H        8.73769435       2.69715836       4.65656082      -0.00030907      -0.00277075       0.00244714
H        8.00398285       2.35283703       6.21675583       0.00035067      -0.00405040       0.00248754
H        6.20777935      -0.01066490       5.48911086      -0.00040962       0.00128908       0.00774610
H        4.82330453       0.93872660       4.93407327      -0.00029816      -0.00331302       0.00062482
H        5.71118424       1.44050036       6.38170990      -0.00539646       0.00358216       0.00134982
H        6.85749727       3.82444196       4.37212672       0.00085288      -0.00088030       0.00250036
O        6.72320829      11.69355802       2.20717115      -0.00572658       0.00617582      -0.00913252
C        7.52489330      10.58213488       1.86142227      -0.00935751       0.00116751      -0.00148785
C        6.91934833       9.73418622       0.75682215      -0.00906572      -0.00098172      -0.00015193
C        8.87310735      11.14485218       1.42868658      -0.00616270      -0.00403130       0.00232640
H        7.69067733       9.95895891       2.75461866      -0.01580698       0.00435486       0.00196916
H        7.59965909       8.92632943       0.47642174      -0.01031648      -0.00317630       0.00349565
H        5.98032019       9.28850776       1.08221415      -0.01074070       0.00205495      -0.00043319
H        6.73000630      10.34118675      -0.13048643      -0.00560041      -0.00312588      -0.00245738
H        9.46807791      10.27046640       1.12553738       0.00048895      -0.00593791       0.02075509
H        9.33293012      11.68385222       2.26399303      -0.01631997       0.00975151      -0.00103734
H        8.72421843      11.81827249       0.57811141       0.00030114      -0.01647358      -0.00871954
H        5.80606842      11.51583757       1.94803485      -0.00738727       0.00517216      -0.00259280
O        4.40370028       4.19907616       2.45995527      -0.00463459       0.00124246       0.00667173
C        3.69237287       3.25742363       1.67120712      -0.00328386       0.00160611       0.00418353
C        3.32987091       2.01898237       2.47575575      -0.00649434       0.00233370       0.00385392
C        2.46350058       3.96150927       1.12615445      -0.00129473       0.00247756       0.00109620
H        4.31392516       2.94021708       0.81725389      -0.00131905       0.00108737       0.00620353
H        2.69924804       1.34747787       1.89171744      -0.00671305       0.00337997       0.00285337
H        4.22221874       1.46313764       2.76665307      -0.00790060       0.00067451       0.00502758
H        2.78349703       2.29897347       3.37898473      -0.00726059       0.00340524       0.00293861
H        1.94382684       3.32583457       0.40634439      -0.00071429       0.00210223       0.00107530
H        2.75346401       4.88645931       0.62474604       0.00072875       0.00130621       0.00016912
H        1.77641837       4.21539006       1.93602994      -0.00253466       0.00436312      -0.00054081
H        4.99907720       3.72007804       3.06977923      -0.00322828       0.00107043       0.00408019
O        7.78559289       5.37291107       4.50097538       0.00077778      -0.00112927       0.00418890
C        6.65078546       6.25501700       4.36409579       0.00111863      -0.00068969       0.00505194
C        6.69501911       7.39659766       5.35731993       0.00410628       0.00091529       0.00303298
C        6.63549429       6.73021577       2.92695977      -0.00176303      -0.00300831       0.00437677
H        5.74043824       5.66750892       4.54232190       0.00101614       0.00020808       0.00816704
H        5.79183070       8.00326844       5.27526112       0.00420770       0.00101332       0.00380026
H        6.75898599       7.01975618       6.37982437       0.00659130       0.00241593       0.00355212
H        7.56157767       8.03535657       5.18001533       0.00422406      -0.00010669      -0.00008072
H        5.73380599       7.31173465       2.73432607      -0.00053680      -0.00060764       0.00604070
H        6.64861256       5.88426596       2.23992184      -0.00609706      -0.00412908       0.00566433
H        7.50505465       7.36290396       2.73734192      -0.00040492      -0.00592385       0.00095069
H        8.09566411       5.34813424       5.42674815       0.00041550      -0.00133158       0.00446506
