136
Lattice="12.799562603550607 0.0 0.0 0.0 12.799562603550607 0.0 0.0 0.0 12.799562603550607" Properties=species:S:1:pos:R:3:forces:R:3 energy=-1121215.875 stress="-0.0012081324821338058 -0.0006684664404019713 0.0005176456470508128 -0.0006684664404019713 -0.0018738460494205356 -5.540349411603529e-05 0.0005176456470508128 -5.540349411603529e-05 -0.0006731701432727277" pbc="T T T"
Cf      12.64827321      10.97086156       1.53268675       0.00366026      -0.00223778       0.01530099
O        9.20418893      10.83249663       3.62114929      -0.00513387      -0.01879650      -0.01289934
O       11.62358009       9.88846881       3.07675736      -0.00192669      -0.01865256      -0.00157937
O       10.14791335       8.85509059       4.99936068      -0.00623077      -0.00642753       0.00105977
O       11.12518276      11.24416546       5.30011261      -0.01122695      -0.00575447      -0.01232898
Mn      10.49752763      10.21231031       4.28099599      -0.00583839      -0.01344807      -0.00444925
O        2.26160121      11.06975828       6.90764741      -0.00106978      -0.00559831       0.00870115
O        2.07301974       8.68589332       7.97793664      -0.00555246       0.01300144      -0.01209593
O        3.29754206       9.01525622       5.70854192      -0.00503087       0.00742030       0.00763834
O        0.72061473       9.27780153       5.82202111       0.00018525       0.01377454       0.00734508
Mn       2.08061983       9.51494163       6.62324844      -0.00443700       0.00726611       0.03010549
O       11.18850565      10.25918425      10.87325905      -0.01154057       0.01276255       0.01386952
O       10.65299203      12.83504876      11.38665964       0.04145795       0.02198446       0.01351839
O       12.95753302      11.67992711      12.39204269       0.01552451      -0.02105448       0.01101041
O       10.74654669      11.04791488      13.41301178       0.00561702       0.03198168       0.01652378
Mn      11.31239356      11.48119988      11.84790305       0.01203847       0.01932134       0.01699281
O       10.22218837       6.80391589       7.50508031      -0.00508112       0.00555798       0.00073588
C       10.00227684       5.83875348       6.50778658       0.00113893       0.00522304      -0.00039992
C       11.53769672       7.34655433       7.45531979      -0.00291935      -0.00021940       0.01178303
C        8.60501599       5.30142585       6.68932857       0.00207359       0.00121208      -0.00721405
C       11.62010289       8.47342002       8.44690099      -0.00357980      -0.00182998       0.01299793
H       10.12737719       6.29045754       5.51287083       0.00433241       0.00558269       0.00066084
H       10.74550720       5.02713326       6.59157212       0.00254232       0.00733346       0.00305936
H       12.26256367       6.55552073       7.69570794      -0.00891086      -0.00470084       0.01583803
H       11.75558512       7.70228688       6.44209856       0.00699457      -0.00059891       0.01420981
H        8.37889880       4.53974240       5.94171806       0.00761154       0.00328580      -0.01070312
H        8.51198850       4.85391515       7.67934388      -0.00114571      -0.00250228      -0.00950254
H        7.87397927       6.10715838       6.60454732       0.00015779      -0.00087231      -0.00792017
H       12.64246305       8.83764171       8.52475125      -0.00134444      -0.01367731       0.02545812
H       10.98230850       9.29779421       8.13417200       0.01084456       0.00529221       0.00558855
H       11.29503650       8.13874616       9.43176836      -0.02025662       0.00243364       0.00820886
O        4.30987854       4.95469578       8.15932834      -0.00678223      -0.00316229       0.00053582
C        5.30691963       4.16374920       7.53244811      -0.00118606       0.00331187       0.00137216
C        4.53013063       5.07140632       9.55281087      -0.00895867      -0.00099066       0.00035280
C        5.20865397       4.32326754       6.03501381      -0.00010963       0.00559624       0.00169289
C        3.38248709       5.82994274      10.17334171      -0.01305544      -0.00492856      -0.00310801
H        6.29545437       4.48456176       7.88435629      -0.00389087       0.00854978       0.00340031
H        5.18901605       3.11565120       7.83553854       0.00415371       0.00253302      -0.00046763
H        4.64040379       4.07477690       9.99784715      -0.00536604       0.00031954       0.00176093
H        5.48041167       5.60090231       9.72296743      -0.01181751       0.00339606       0.00084388
H        5.94813617       3.68075589       5.55421875       0.00287515       0.00968741       0.00123098
H        4.22533214       4.04512697       5.65941295       0.00150555       0.00221032       0.00049263
H        5.39995797       5.35677076       5.74258584      -0.00404946       0.00671497       0.00395924
H        3.57448043       5.97873122      11.23757531      -0.01425537       0.00110535      -0.00368917
H        3.25060202       6.80302912       9.70047046      -0.01805646      -0.00788713      -0.00666365
H        2.45079264       5.27381016      10.06619587      -0.00970209      -0.01010782      -0.00028570
O        6.40197530       8.40522893       6.24661984      -0.00986093      -0.00858712      -0.00523246
C        6.87926472       9.18785508       5.17355491      -0.01105908      -0.00948036      -0.00637352
C        5.86871084       9.20841113       7.28809007       0.00282902      -0.00654168      -0.00080639
C        7.29182510       8.26789467       4.05072410      -0.01613718      -0.00987288      -0.00771683
C        5.28860329       8.29096675       8.33075076       0.00383568      -0.00345996       0.00230664
H        6.08755695       9.87870755       4.84450045      -0.01015222      -0.00767592      -0.00387415
H        7.72673077       9.80382414       5.50446307      -0.00882542      -0.01175886      -0.00867060
H        6.65241974       9.85115338       7.70873584       0.01021355      -0.01274371      -0.00547647
H        5.08905515       9.86183520       6.87814332       0.00509357      -0.00052226       0.00542554
H        7.73407999       8.84404560       3.23886488      -0.01877458      -0.00984043      -0.00889087
H        8.04104059       7.56021458       4.40448457      -0.01559483      -0.01049833      -0.01070377
H        6.43007896       7.71187897       3.67661861      -0.01754996      -0.00939240      -0.00471307
H        4.77462976       8.86544796       9.10115393       0.01218235      -0.00077391       0.00541955
H        4.56334811       7.62180065       7.87069098      -0.00297146       0.00144854       0.00664455
H        6.07204981       7.68824259       8.79409121       0.00279324      -0.00799438      -0.00280787
O        2.34728051       5.47460990       4.58054975      -0.00336666       0.00550967      -0.00084671
C        2.73102481       6.55305098       3.74668039       0.00307366       0.00764904       0.00527143
C        1.88596752       5.91946375       5.85255693      -0.00053078       0.00109306       0.00096124
C        3.43602474       6.00050598       2.53070700      -0.00131920       0.01079485       0.00174570
C        1.41342419       4.72557057       6.64615208      -0.00543863      -0.00043893      -0.00533271
H        1.83535544       7.12734362       3.45890860       0.00692409       0.01500133       0.00988096
H        3.38176395       7.23988263       4.30154688       0.00789464      -0.00012374       0.00883484
H        2.69925622       6.43162335       6.37912880       0.00220537      -0.00545198       0.00327072
H        1.07533901       6.64607257       5.71795607       0.00295931       0.00550872       0.00552274
H        3.71359232       6.81410603       1.85819345       0.00471507       0.01305504       0.00738842
H        4.33649541       5.46187872       2.82270270      -0.00552996       0.00227317      -0.00224240
H        2.80439551       5.29867896       1.98665148      -0.00690444       0.01887032      -0.00186410
H        1.10052322       5.05242402       7.63761951      -0.00434767      -0.00470702      -0.00369500
H        0.57040227       4.23454845       6.15829883      -0.00722149       0.00580551      -0.00810637
H        2.21858264       4.00443887       6.78113622      -0.00862862      -0.00427870      -0.00969147
O        3.89688852       2.73514004       2.69432070       0.00418580       0.00156671      -0.00966546
C        2.78128069       1.87420987       2.83940272       0.00515229       0.00012706      -0.01108256
C        5.03608346       2.03107194       2.25252563       0.00656193       0.00393900      -0.00647618
C        1.65677681       2.63072148       3.49959374       0.00323758       0.00069693      -0.01543525
C        6.18630375       2.99490382       2.10491722       0.00335398       0.00721034      -0.00795511
H        2.48228063       1.48961215       1.85145221       0.00826532      -0.00179790      -0.01100779
H        3.08035445       1.00343673       3.43585486       0.00417823       0.00170386      -0.00856382
H        5.28319349       1.24081134       2.97614782       0.00843515       0.00680575      -0.00405583
H        4.81879800       1.53099393       1.29635510       0.00947064       0.00086993      -0.00525153
H        0.75958072       2.01589941       3.56334645       0.00358787       0.00054726      -0.01566393
H        1.93973197       2.94086798       4.50233582       0.00075151       0.00354914      -0.01579261
H        1.41857827       3.53622260       2.94571931       0.00382804      -0.00120550      -0.01852489
H        7.07844786       2.46393454       1.77135712       0.00581084       0.00923640      -0.00385517
H        5.94694750       3.76931974       1.37640670       0.00228669       0.00315987      -0.01157007
H        6.40251804       3.47730922       3.05822768      -0.00050273       0.01193622      -0.00973995
O        2.84738158      11.23349813       2.48440719      -0.01088616      -0.00512531      -0.00838524
C        1.92504859      10.87264986       3.49711711       0.00494772      -0.00291786       0.00735953
C        3.93234432      10.29300115       2.39220918      -0.00999212      -0.00190499      -0.02179507
C        1.05107796      12.05236654       3.85363375       0.00375588      -0.00447851       0.01123613
C        5.21867682      11.03559446       2.13062750      -0.01084009      -0.00007808      -0.02090177
H        1.33431454       9.97872871       3.19118131       0.00335428      -0.00529739       0.01942751
H        2.45834770      10.53347288       4.38253830       0.01771215       0.00382155       0.00102431
H        4.00000383       9.73783773       3.33338715      -0.00492726      -0.01085927      -0.02823466
H        3.71297140       9.57642731       1.59222397      -0.01164921       0.00595850      -0.02780473
H        0.14921774      11.73392785       4.37823826       0.00606196      -0.00702569       0.01340808
H        1.58545004      12.72198973       4.52441453       0.00343183      -0.00221735       0.00868845
H        0.79859879      12.68276739       2.98306283      -0.00112642      -0.00545542       0.01217851
H        6.04854894      10.33479714       2.03598730      -0.01200512      -0.00009985      -0.02904930
H        5.15540777      11.62520165       1.21641006      -0.01269916       0.00591035      -0.01663060
H        5.44252385      11.70456372       2.96133107      -0.00616700      -0.00593475      -0.01791635
O        7.74909450      11.20428967       9.47886159       0.00719804      -0.00103593       0.00513529
C        7.69962070      10.13610729      10.40629003       0.01266491      -0.00281213       0.00309086
C        8.84787493      11.07730031       8.57892018       0.00603338       0.00510621       0.00323039
C        6.51650268      10.35314626      11.31928682       0.01714253      -0.00545937       0.00851986
C        8.81474570      12.22564465       7.60312162      -0.00166588       0.00464475       0.00332230
H        7.60906880       9.18480724       9.86309116       0.01189384      -0.00189906       0.00213137
H        8.63233492      10.09035378      10.98296239       0.01463819      -0.00201115      -0.00055221
H        9.78464282      11.06599353       9.14645284       0.00675327       0.00988697       0.00135177
H        8.77290660      10.11408839       8.05292264       0.01007527       0.00512320       0.00297439
H        6.41908727       9.52290123      12.01954403       0.02121643      -0.00588281       0.00794639
H        6.64197939      11.27292154      11.89081473       0.02114355      -0.00568858       0.00787596
H        5.59308443      10.42878578      10.74374257       0.01433572      -0.00601551       0.01331040
H        9.62520899      12.11959487       6.88234641      -0.00328289       0.00777638       0.00126237
H        7.86809513      12.24542610       7.06033683      -0.00282711       0.00019907       0.00581422
H        8.93797416      13.17438336       8.12524536      -0.00462343       0.00512958       0.00263833
O        5.86815971       1.88385127      10.02486369       0.00045398      -0.00215417       0.00477019
C        7.20860116       1.67342601      10.45289035      -0.00085628      -0.00299135       0.00732975
C        4.99883641       0.85873698      10.46990042      -0.00019962      -0.00370968      -0.00018573
C        8.09269176       2.69690693       9.78522019       0.00116098      -0.00257465       0.01112226
C        3.59970491       1.14248497       9.97799094       0.00141370      -0.00283801      -0.00310749
H        7.26245746       1.76914357      11.54851779      -0.00324540      -0.00480928       0.00741571
H        7.52264693       0.65601696      10.19428982      -0.00068545      -0.00256819       0.00640543
H        5.35784953      -0.10679000      10.09506975       0.00137731      -0.00247717      -0.00172660
H        5.01862771       0.81176340      11.57089363      -0.00296853      -0.00653765      -0.00047946
H        9.12920666       2.54430419      10.08765702       0.00041142      -0.00498477       0.01187466
H        8.03199714       2.59887658       8.70087452       0.00215760       0.00032176       0.01098357
H        7.79164194       3.71118505      10.05232961       0.00245647      -0.00293529       0.01337864
H        2.91259651       0.37644918      10.33729722       0.00090155      -0.00477375      -0.00889853
H        3.25292636       2.11386584      10.33339045      -0.00039023      -0.00471073      -0.00039219
H        3.56451230       1.14082261       8.88928096       0.00497762       0.00176286      -0.00307593
