136
Lattice="12.951579442335358 0.0 0.0 0.0 12.951579442335358 0.0 0.0 0.0 12.951579442335358" Properties=species:S:1:pos:R:3:forces:R:3 energy=-1228320.375 stress="5.4330619605025277e-05 0.00018444834131514654 -0.00023565690935356542 0.00018444834131514654 -0.0005036905058659613 8.164144674083218e-05 -0.00023565690935356542 8.164144674083218e-05 -0.0001846528466558084" pbc="T T T"
Cf      15.41404208       9.30246926       1.96388525       0.02764273      -0.01140070       0.03282112
Br       5.39334404       9.75095222       0.65245339      -0.00876655      -0.01353338       0.01580219
O        5.41369497      10.90837368      -0.45924725       0.00424902      -0.02612597      -0.03703892
O        4.87672616      10.35901327       2.08733977       0.02073227       0.00360507      -0.03409433
O        4.20927301       8.64919405       0.29483010       0.01075083      -0.01754946       0.01235107
O        6.81199360       9.01766674       0.79965039       0.01266250      -0.01105967       0.00149588
Br      -0.36283542       9.26390063       3.84056470       0.00942653      -0.00635660      -0.01135552
O       -0.61705181      10.08601645       5.22889590      -0.01820095       0.01200777      -0.02955568
O        1.38370337       9.06808917       3.85545674       0.00929928       0.02004680       0.02592066
O       -0.95178614       7.75898215       3.99039114       0.02867866      -0.01112938       0.00551277
O        0.91494365       9.17904891       1.00175227       0.02587152      -0.01461500       0.01419628
Br       3.58722818       4.77596571       6.60999935       0.00747815      -0.01263800      -0.00286767
O        3.57562192       4.17876037       8.12084786       0.00966858      -0.01159054      -0.00090694
O        5.12801992       5.08056244       6.15795547       0.00748777      -0.01493675      -0.00512058
O        2.95492223       3.69738092       5.57678085       0.00401586      -0.01169384       0.00092721
O        2.74996680       6.16626149       6.56819193       0.01004589      -0.01130056      -0.00122582
C        1.69043634       5.63614505      10.68225195       0.00003180      -0.00281134      -0.00840878
C        2.05697636       7.09144703      10.94026098       0.00179796      -0.00268108      -0.01180339
C        0.94779917       4.97173000      11.83450994       0.00359455      -0.00053182      -0.00509042
C        2.70948412       7.74262570       9.72588104      -0.00383774      -0.00411633      -0.01525092
C        0.66479703       3.49984863      11.56369264       0.00297946      -0.00120461      -0.00076442
C        3.22336820       9.14839099      10.00058025      -0.00296606      -0.00319117      -0.01938199
H        1.08378562       5.56958007       9.77321598      -0.00302854      -0.00370092      -0.00613153
H        2.59807818       5.06922835      10.45163063      -0.00104150      -0.00348574      -0.01090743
H        2.74103215       7.14712372      11.79464829       0.00457251      -0.00092104      -0.01439580
H        1.16829488       7.65896068      11.23938014       0.00305393      -0.00203003      -0.00927548
H        1.53072015       5.07248604      12.75600823       0.00577316       0.00176081      -0.00698113
H        0.00845968       5.50300293      12.01757187       0.00361329      -0.00059663      -0.00435267
H        3.53085910       7.10964951       9.38169436      -0.00609297      -0.00427648      -0.01945665
H        1.99796508       7.75516165       8.89563111      -0.00763398      -0.00389289      -0.01174772
H        0.09176646       3.37982457      10.64205037       0.00128027      -0.00296649       0.00095385
H        0.10341703       3.03226270      12.37468890       0.00414012       0.00125719       0.00171742
H        1.59510874       2.94397394      11.43432254       0.00233009      -0.00220898      -0.00066813
H        2.41708479       9.81541277      10.31689715      -0.00029299      -0.00591905      -0.00777225
H        3.96676779       9.14519891      10.79762873       0.00705743      -0.00239579      -0.02774224
H        3.68859209       9.58248555       9.11406768      -0.01530749      -0.00152553      -0.02389821
C        6.89265174       4.47457166       8.83638204       0.00223970      -0.00035620       0.00423354
C        7.91407461       3.40531831       8.47636838       0.00304717      -0.00021296       0.00550944
C        7.41165824       5.49157446       9.84335330       0.00160065      -0.00013869       0.00452325
C        7.44547754       2.46362420       7.37194328       0.00423795      -0.00113949       0.00576439
C        6.39891943       6.59219248      10.13298159       0.00095126      -0.00027692       0.00354321
C        8.52633046       1.47052705       6.96758556       0.00463077      -0.00159109       0.00804146
H        6.58077747       4.99166717       7.92586772       0.00322564      -0.00067401       0.00386333
H        5.97745161       4.00800026       9.21373756       0.00239086      -0.00059342       0.00357993
H        8.17460169       2.81927345       9.36731854       0.00260551       0.00052062       0.00587311
H        8.84175814       3.89026244       8.15211872       0.00304368      -0.00005063       0.00579874
H        7.68592395       4.98448968      10.77438351       0.00049932      -0.00022304       0.00476369
H        8.33486238       5.93673489       9.45799156       0.00167644      -0.00030133       0.00549103
H        6.54661983       1.93331624       7.70077826       0.00384605      -0.00082569       0.00531100
H        7.13329108       3.05677010       6.50803323       0.00510360      -0.00207850       0.00486323
H        6.09647273       7.08681836       9.20732971       0.00312626       0.00092353       0.00374228
H        6.79615643       7.34926477      10.81134735       0.00102612      -0.00055709       0.00482301
H        5.49360849       6.18276830      10.58535355       0.00050649       0.00030093       0.00190730
H        9.40224825       1.99027204       6.57357676       0.00544001      -0.00200823       0.00954187
H        8.85817641       0.87768370       7.82298463       0.00290615      -0.00133419       0.00895865
H        8.18286058       0.77487452       6.20149975       0.00583580      -0.00170822       0.00789081
C       10.32204755       7.98140587       8.39869579       0.00424668       0.00122216      -0.00402078
C       10.91755872       9.33617014       8.76314870       0.00372118       0.00005913      -0.00137538
C       10.64873639       7.56131881       6.97078486       0.00479117       0.00337839      -0.00405234
C       10.56309967       9.80145332      10.17032048       0.00129339      -0.00127858      -0.00215089
C       10.02714566       6.23432185       6.56355048       0.00360844       0.00494379      -0.00708485
C       11.14596177      11.16839811      10.50444702      -0.00226746      -0.00020894       0.00352497
H       10.68627578       7.22229408       9.10224439       0.00345606      -0.00033239      -0.00486007
H        9.23343718       8.01674902       8.53503034       0.00389051       0.00121890      -0.00431526
H       10.57942407      10.08232405       8.03528633       0.00528631       0.00093195      -0.00108978
H       12.00661312       9.29154376       8.65546214       0.00432363       0.00006789       0.00059090
H       10.32135297       8.34296487       6.28148147       0.00625715       0.00549778      -0.00281805
H       11.73247641       7.51119254       6.84331182       0.00493211       0.00226275      -0.00355637
H        9.47339093       9.83051349      10.27702981       0.00074950      -0.00233776      -0.00502569
H       10.91887889       9.06510693      10.89740653      -0.00011520      -0.00160065      -0.00169659
H       10.40341919       5.41263446       7.17675974       0.00096723       0.00371557      -0.00692517
H       10.26054289       6.00785794       5.52253205       0.00606097       0.00579758      -0.00670853
H        8.93952823       6.24802617       6.67090290       0.00384033       0.00647825      -0.00990451
H       12.23555003      11.15351629      10.44322242      -0.00202706      -0.00069249       0.01111498
H       10.79014177      11.92518039       9.80233929       0.00450353      -0.00257976      -0.00644499
H       10.87231184      11.49304597      11.50914830       0.01281528      -0.01701978       0.01413777
C        4.81055184       8.16912070       4.54728773      -0.01129711      -0.00337046      -0.00161242
C        6.21539801       8.60629202       4.94241843      -0.01103860      -0.00121793      -0.00416397
C        4.83054025       6.98902914       3.58473109      -0.01037452      -0.00500724      -0.00001062
C        6.25365407       9.84602690       5.82890095      -0.00979829      -0.00269833      -0.00227547
C        3.45632988       6.47475479       3.18926465      -0.00885621      -0.01420701       0.00501709
C        7.66103464      10.20136378       6.29314608      -0.00914842      -0.00393626      -0.00347188
H        4.23849645       7.88608858       5.43502827      -0.01027504      -0.00396062      -0.00010002
H        4.28374320       9.02495857       4.10044484      -0.01360823      -0.00382060       0.00100474
H        6.80679792       8.79688294       4.03848231      -0.01439440       0.00136505      -0.00594342
H        6.70427128       7.77300691       5.45987330      -0.00815713      -0.00126544      -0.00728621
H        5.42080192       7.23797049       2.69581893      -0.01246080      -0.00587472      -0.00120163
H        5.34941230       6.17196958       4.08867780      -0.00591736      -0.00169590       0.00173396
H        5.82428041      10.69016404       5.27966693      -0.01038682      -0.00152311       0.00003889
H        5.60783026       9.68904618       6.69882222      -0.00888802      -0.00376645      -0.00126728
H        2.78945938       6.39632900       4.04605259      -0.00884135      -0.00652017       0.00566667
H        3.51207613       5.50000215       2.70538850      -0.00369287      -0.02124241       0.02157195
H        2.94571005       7.09633057       2.42827624      -0.01330103      -0.03078085      -0.00519989
H        8.10145259       9.38422123       6.86754366      -0.00909704      -0.00427310      -0.00375356
H        8.32335764      10.39250974       5.44621277      -0.00979950      -0.00434250      -0.00374943
H        7.66720465      11.09172405       6.92492739      -0.00771052      -0.00423780      -0.00341366
C        6.39442385       2.61312625       2.49234594       0.00573507      -0.00136980       0.00099799
C        6.41077757       4.08769026       2.11986288       0.00217748      -0.00199050      -0.00208294
C        5.48007392       2.31182933       3.67452106       0.00321639      -0.00081635      -0.00070050
C        7.27039096       4.42397918       0.90823341       0.00723243      -0.00148007       0.00165728
C        5.68482176       0.90878971       4.22385157       0.00745074       0.00275126       0.00608456
C        7.33692097       5.92209607       0.65222165       0.00608807      -0.00160158       0.00091864
H        6.08757027       2.01271423       1.62731573       0.01233315      -0.00508471       0.00148654
H        7.41627825       2.29445243       2.73193928       0.00655863       0.00345778       0.00542679
H        6.76558573       4.66196243       2.98140277      -0.00252070      -0.00063720      -0.00094369
H        5.38634393       4.43026655       1.94237105       0.00220570      -0.00435772      -0.00642446
H        5.64498893       3.04491304       4.46874645      -0.00145467       0.00267115      -0.00350255
H        4.43584063       2.45254001       3.37924441       0.00365686      -0.00603466      -0.00359765
H        8.27913934       4.02531604       1.06122092       0.00731361       0.00137675       0.00653398
H        6.87204661       3.91052121       0.02676452       0.01267251      -0.00237471      -0.00031671
H        5.56788308       0.14803915       3.44855968       0.00704474      -0.00294310       0.01005319
H        4.97784047       0.68838302       5.02440671       0.00953983       0.00574767       0.00911121
H        6.69239871       0.79548577       4.62771609       0.00740738       0.00670721       0.00442695
H        6.34808987       6.33215103       0.44002881       0.00573659      -0.00393352      -0.00324346
H        7.71796545       6.45225740       1.52685595       0.00158431       0.00011218       0.00216028
H        7.98016143       6.17021297      -0.19242188       0.00823240      -0.00077570       0.00335824
C        1.92317566      12.42653486       4.57452547      -0.01126647       0.01840878       0.00558306
C        2.59068969      12.12159168       3.24170178      -0.00964111       0.02397825       0.00509322
C        2.60004920      11.71125866       5.74005646      -0.00737733       0.02053851       0.00538760
C        1.73476528      12.40390084       2.01471628      -0.01285160       0.01629873       0.00557522
C        2.06113906      12.16403712       7.08777447      -0.01074846       0.01163818       0.00615740
C        2.45897704      12.27684597       0.67932157      -0.01132220       0.00937277       0.00628293
H        1.93255981      13.50928649       4.73769224      -0.01677663       0.01785544       0.00724636
H        0.87486920      12.11309295       4.54489606      -0.00907031       0.01181063       0.00470474
H        2.91292864      11.06764539       3.30411417      -0.00037386       0.02729338       0.00278673
H        3.53612444      12.65822736       3.15092363      -0.01485181       0.03279114       0.00477581
H        2.44337122      10.63471877       5.62238309       0.00016153       0.01940891       0.00288953
H        3.68194087      11.87373369       5.69694308      -0.00754178       0.02816993       0.00783010
H        0.84138207      11.76853286       2.01803495      -0.00961083       0.01193354       0.01016530
H        1.36059613      13.42840809       2.10872632      -0.01615837       0.01504016       0.00116286
H        2.23863032      13.22999540       7.24218993      -0.01403311       0.01129249       0.01403653
H        2.52585928      11.61752466       7.90907352      -0.01059277       0.00833002       0.00439839
H        0.98525265      11.98723676       7.14071973      -0.01092148       0.00866234       0.00559759
H        3.41215130      12.80535405       0.68536913      -0.01225790       0.01286124       0.00641058
H        2.68421713      11.24208393       0.38702908      -0.01027937       0.00821222       0.01667397
H        1.84729002      12.66351635      -0.13620666      -0.00899221       0.00556333       0.00338738
