139
Lattice="13.062376445284553 0.0 0.0 0.0 13.062376445284553 0.0 0.0 0.0 13.062376445284553" Properties=species:S:1:pos:R:3:forces:R:3 energy=-1082402.5 stress="0.0005397133063524961 -0.00024918386770877987 0.00038726741331629455 -0.00024918386770877987 -0.0005358297494240105 -0.00033953794627450407 0.00038726741331629455 -0.00033953794627450407 -0.0004982926766388118" pbc="T T T"
Cf      13.85115360      13.33527959      -2.47050763       0.01141255       0.00271040       0.01439054
Cl      11.97117208      13.49005510      12.28476942       0.01851588       0.00837733       0.02170581
Cl      12.79104940      13.40909167       8.30302383      -0.00130463       0.03038294       0.02120757
Cl       3.32847406      13.45872287      10.72498320       0.01203340      -0.02693601       0.02107533
O        3.95741805       9.01308713       9.34866700       0.00305122       0.01014583       0.00048427
O        5.04300290       7.18411537       9.02752776       0.00393498       0.01137322       0.00216968
O        5.58845916       8.98603213       7.77083492      -0.00392830       0.00747532      -0.01648617
C        3.66383752      10.38835075       9.02322920      -0.01302725       0.00283767      -0.01022963
C        2.21786642      10.61994186       9.39168567      -0.01772776      -0.01076390      -0.02019088
C        4.93348461       8.44864619       8.63216854      -0.00602800       0.00297037       0.00388438
C        6.04801195       6.43367612       8.32715032      -0.00212449       0.00561517      -0.00148828
H        4.33927316      11.03652180       9.58178759      -0.02613363       0.01602882      -0.01038116
H        3.84524315      10.55081667       7.96184146      -0.00904827      -0.00336405      -0.01091474
H        1.91575239      11.60427941       9.02096323      -0.03562398      -0.02013890      -0.02851428
H        1.58118168       9.87481602       8.91726948      -0.00509223      -0.02475940      -0.01456907
H        2.07594548      10.56367649      10.47374763      -0.02208935      -0.00369481      -0.02015856
H        5.89653613       6.50438590       7.25285348      -0.00469810       0.00815282      -0.00161567
H        5.91386435       5.40860581       8.64038485      -0.00544994       0.00555676      -0.00317924
H        7.03450802       6.81545041       8.59009684       0.00115907       0.00002086      -0.00438674
O        4.82260795       3.67807493      11.20252589      -0.01347937      -0.01561020      -0.00589990
O        2.67092094       3.59656231      11.39525459      -0.01215424      -0.02229168      -0.00364289
O        3.94566915       2.67055628      13.02998690      -0.00824042       0.00855190       0.00779283
C        6.14580047       3.27364469      11.63393210      -0.01197058      -0.00821853      -0.00242209
C        7.12303794       3.91679264      10.68890959      -0.01399130      -0.01213980      -0.00724638
C        3.83938496       3.24605009      11.97663670      -0.01042549      -0.00910085       0.00439358
C        1.51658555       3.06725723      12.04321507      -0.00986043      -0.00958050       0.01186882
H        6.29715839       3.59445311      12.66427470      -0.01250398      -0.00027233      -0.00475657
H        6.18804707       2.18348431      11.59164935      -0.00788814      -0.00853884       0.00586759
H        8.12942330       3.55012845      10.88621583      -0.01280758      -0.00828136      -0.00562663
H        6.86858263       3.67350877       9.65842099      -0.01452430      -0.01871471      -0.00560355
H        7.11964809       4.99996313      10.80923681      -0.01666589      -0.01151758      -0.01373893
H        1.67774620       2.01716422      12.30346247      -0.00873603      -0.00092086       0.04468232
H        0.69070602       3.21826529      11.35050763      -0.01004167      -0.03330268       0.00674669
H        1.30162730       3.59760358      12.97105603      -0.01461281       0.01764652      -0.00535932
O        8.87859107       5.49908198       6.85063283       0.00368402      -0.00503209      -0.00157574
O        7.90508736       6.73639335       5.37083083       0.00224426      -0.00443113      -0.00098158
O        9.16738747       7.74243013       6.96033614       0.00438482      -0.00971997      -0.00700015
C        9.73869416       5.35688622       8.00598239       0.00556599      -0.00340205      -0.00258203
C        9.88327063       3.88627294       8.29357291       0.00104567      -0.00325125       0.00069999
C        8.69915765       6.75688323       6.44477804       0.00737852       0.00328887       0.00042289
C        7.49300594       8.04162701       4.91240234       0.00358558      -0.00283180      -0.00088710
H       10.69574356       5.83028787       7.78383186       0.00632888      -0.00738472      -0.00587454
H        9.28198468       5.89918210       8.83738572       0.00863194       0.00021344      -0.00368944
H       10.43938333       3.75459534       9.22279111       0.00177161      -0.00264994       0.00044909
H        8.90566265       3.42181656       8.41274628      -0.00022480       0.00017532       0.00319373
H       10.41364069       3.38363468       7.49015982      -0.00107206      -0.00687437       0.00177547
H        6.99697281       8.57478786       5.72047387       0.00492971      -0.00246906      -0.00108194
H        6.80860479       7.85052355       4.09183575       0.00242221      -0.00320910      -0.00021732
H        8.34950613       8.61107603       4.55861009       0.00368336      -0.00476128      -0.00213713
O        7.64164003       5.69957693       0.62782471       0.00571689      -0.00343002      -0.00474746
O        5.97582499       7.07695698       0.54424962       0.00814570       0.00013690      -0.00500770
O        7.92666397       7.79510571       1.44549301       0.00136626      -0.01354110       0.00072110
C        9.02852898       5.42414263       0.94508702       0.00487052      -0.00653452      -0.00003608
C        9.28641808       3.95829100       0.72421909       0.00203605      -0.00579137      -0.00780964
C        7.25133880       6.94493789       0.92351121       0.01449311       0.00564772       0.00470865
C        5.43205891       8.39304442       0.75433855       0.00983785       0.00044981       0.00094649
H        9.64814813       6.05610102       0.30416234       0.00781706      -0.00410452       0.00582033
H        9.20860535       5.72357946       1.97882032       0.00085156      -0.01305723       0.00196540
H       10.31596877       3.72714096       0.99182238       0.00133899      -0.00908163      -0.00738365
H        8.63987664       3.34708910       1.35196386       0.00019161      -0.00804954      -0.01227871
H        9.12937176       3.67898745      -0.31502300       0.00320787       0.00060470      -0.00960606
H        5.46845861       8.65330927       1.81216571       0.00632287      -0.00589718       0.00208643
H        4.40485022       8.33415393       0.40914547       0.01072729       0.00251902      -0.00289437
H        5.99887551       9.12826918       0.18594685       0.01201892       0.00247222       0.00654529
O        2.16695820       8.32303474       2.81793320       0.00282612       0.00716362       0.00934258
O        2.63954034       6.59210647       1.62572857       0.00637649       0.01046570       0.00639450
O        3.49965247       6.72361516       3.71687085       0.00873327       0.00919417       0.00700629
C        2.24045342       9.05696603       4.05966779       0.00266388       0.00699618       0.00958839
C        1.33639643      10.25222766       3.91217517       0.00082427       0.00568396       0.01066058
C        2.83983523       7.16642277       2.81099327       0.00454241       0.01016036       0.00576138
C        3.23871897       5.29245501       1.47664855       0.01050651       0.01295651       0.00339462
H        1.92806118       8.40099263       4.87385418       0.00407995       0.00621858       0.00970376
H        3.28036766       9.33771167       4.23747088       0.00230172       0.00825854       0.00918055
H        1.38121242      10.86647078       4.81090635       0.00086609       0.00587618       0.01058646
H        1.63753453      10.86281807       3.06095254      -0.00069047       0.00630164       0.01056600
H        0.30235725       9.94070413       3.76182812       0.00117910       0.00443595       0.01166957
H        4.32266891       5.36334772       1.51178243       0.01010460       0.01532049       0.01222768
H        2.91921388       4.96018433       0.49849654       0.01912683       0.01700741      -0.00068712
H        2.88375659       4.61267332       2.24989477       0.00644234       0.00757965      -0.00327542
O        9.42321362      10.93835348       0.69091380      -0.00310999       0.00287741      -0.00348118
O        7.36677657      11.55084891       0.42506627      -0.00348379       0.00760118      -0.00300454
O        8.64578458      12.67319527       1.91941638      -0.00320177      -0.00815487      -0.00808251
C       10.69565700      11.05769511       1.36878788      -0.00391784      -0.00000930       0.00052634
C       11.63777895      10.09200797       0.70115758      -0.00580958      -0.00092399      -0.00108913
C        8.49856160      11.80463487       1.09383042      -0.00063956       0.01746738       0.01163459
C        6.26397055      12.39212494       0.79661837      -0.00151889       0.01006966       0.00054048
H       11.04262659      12.08665014       1.28316257      -0.00192811      -0.00098091       0.00286590
H       10.54270287      10.82300983       2.42483932      -0.00664578      -0.00236978      -0.00120002
H       12.62117580      10.14838217       1.16948801      -0.00641692      -0.00458641       0.00138744
H       11.27077085       9.06915128       0.78239211      -0.00848389      -0.00003964      -0.00444061
H       11.74639881      10.34687226      -0.35241247      -0.00255427       0.00165864       0.00005093
H        6.05619458      12.28618671       1.86092833      -0.00238622       0.00607436      -0.00082698
H        5.42398851      12.05421094       0.19621033      -0.00137320       0.01368906      -0.00260681
H        6.48358176      13.43529633       0.57749183       0.00127423       0.00971106       0.00402810
O       11.50814837       4.06243726       3.16606930      -0.00237152       0.00603195      -0.00022261
O       10.69548899       2.09348780       3.54887108      -0.00317495       0.00782090      -0.00107661
O       10.82125065       3.56832780       5.26168734       0.01369654       0.00181675       0.01292372
C       11.79730069       5.40319290       3.61813819       0.00566249       0.00298852       0.00112498
C       12.39082945       6.14140187       2.44906889       0.00379407       0.00497520       0.00182170
C       10.99097283       3.26317198       4.10820851       0.00579354      -0.00046059      -0.01216185
C       10.12933363       1.12958085       4.45793272       0.00153633       0.00416818      -0.00194725
H       10.86806547       5.85692380       3.97170762       0.00894019       0.00621340       0.00686306
H       12.48460194       5.34919508       4.46379155       0.00904089      -0.00225446      -0.00132608
H       12.63317058       7.16543900       2.73230248       0.00733551       0.00325121       0.00355962
H       13.30803639       5.66085070       2.11252229       0.00141115       0.00333543      -0.00261004
H       11.69299287       6.17619340       1.61349234       0.00090057       0.00888625       0.00424635
H       10.85863473       0.86516417       5.22338506       0.00534630       0.00209913      -0.00609821
H        9.86273359       0.28104007       3.83738134      -0.00263970       0.00606486      -0.00194019
H        9.24155797       1.54236832       4.93551178       0.00405720       0.00383167       0.00465615
O        5.21089063       3.08746141       5.01023399      -0.00119534      -0.00424013      -0.00347137
O        3.62281431       2.23784937       6.21368039      -0.00126743      -0.00462031      -0.00495252
O        4.95366872       3.81251155       7.13759208       0.00254059      -0.01093352      -0.00237858
C        6.23835214       4.09806739       4.84440255       0.00153218      -0.00616066      -0.00267023
C        6.95066370       3.81193161       3.55232822      -0.00129820      -0.00560077      -0.00434914
C        4.62946955       3.11343646       6.20907867       0.00157735      -0.00463349      -0.00155884
C        2.93305058       2.17481201       7.47639135      -0.00160745      -0.00715098      -0.00531426
H        5.75060008       5.07406783       4.83415645       0.00423375      -0.00509292       0.00038396
H        6.91170871       4.06383150       5.69902448       0.00254473      -0.01010491      -0.00362289
H        7.72733150       4.56428789       3.41126298       0.00148726      -0.00814933      -0.00344113
H        7.42002304       2.82757957       3.57205487      -0.00523250      -0.00737414      -0.00798565
H        6.26899678       3.85186013       2.70230394      -0.00223257      -0.00042573      -0.00335760
H        3.61132387       1.84023800       8.25902269      -0.00287297      -0.01521558      -0.00730997
H        2.12453103       1.46519762       7.32957161      -0.00534984      -0.00169158      -0.00920568
H        2.54036505       3.15883685       7.73185735       0.00392572      -0.00672922      -0.00001008
O        7.75545149      11.31125244       5.62024518      -0.00444025       0.00516777       0.00400413
O        5.83866253      11.57440844       4.65002142       0.00478573       0.00411139       0.00570962
O        6.08965221      12.33699157       6.76716893      -0.01048625       0.02665496       0.03315175
C        8.60552652      11.41166697       6.79298210       0.00468969       0.00340828      -0.00046101
C        9.97740688      10.93207989       6.39990175       0.00232416       0.00350696       0.00432692
C        6.52494437      11.79260707       5.78626144       0.02370298      -0.01761889      -0.03679633
C        4.49512934      12.07303474       4.69219069       0.00353444       0.00549121      -0.00240839
H        8.61078269      12.45043762       7.12720063       0.00453420       0.00722700      -0.00051284
H        8.16555850      10.79556841       7.57849973       0.00294760       0.00728303       0.00503144
H       10.65861109      11.06829994       7.24019949       0.00257041       0.00583373       0.00089386
H        9.95757956       9.87551564       6.14155131       0.00158885       0.00193188       0.00605781
H       10.36098692      11.50815744       5.55795849       0.00154230      -0.00018580      -0.00036427
H        3.92887890      11.56444587       5.47280750       0.00297238       0.00991020       0.00224110
H        4.07504101      11.85266496       3.71403392       0.00412115       0.00405805       0.00239068
H        4.48242898      13.14406505       4.88438438       0.00657920       0.00716916      -0.00365913
