145
Lattice="12.532564644256249 0.0 0.0 0.0 12.532564644256249 0.0 0.0 0.0 12.532564644256249" Properties=species:S:1:pos:R:3:forces:R:3 energy=-445572.1875 stress="-0.0022819358855485916 -0.0009385595330968499 -0.00076096854172647 -0.0009385595330968499 -0.0028923898935317993 -0.0005408716970123351 -0.00076096854172647 -0.0005408716970123351 -0.0028075105510652065" pbc="T T T"
Cs      14.28406296      14.06178927      -1.87609438      -0.00330132      -0.00301377      -0.01921538
Cl      11.78726182      10.11676483       2.70781329      -0.00407577       0.01696116       0.01352978
O       11.12121551      11.45855499       2.71304837      -0.01673353       0.00855160       0.02084495
O       10.75341156       9.07767180       2.94214269       0.00654054       0.00506639       0.01168932
O       12.32329672       9.91175215       1.31565553      -0.00439245       0.02793548       0.01223922
S        7.91084073      11.30635417       8.45491911       0.00622374       0.01353897       0.00714302
O        8.17745218      11.03983526       9.89885828      -0.01398641       0.02811909       0.00475562
C        9.13428493      12.51368795       7.93449591       0.00902233       0.01375979       0.00903909
C        6.50903244      12.44651682       8.43889858      -0.00001025       0.00712764      -0.02871130
H       10.08864604      12.00003645       7.82942308       0.01122081       0.01562853       0.02902386
H        9.21456386      13.29805927       8.68708054      -0.00644025       0.02071521       0.00272231
H        8.81060525      12.92705047       6.98414685       0.02125210       0.00299626       0.00051394
H        6.17397863      12.64495537       7.42206471       0.00869132      -0.01334485      -0.03530259
H        6.81219213      13.37223912       8.92143124      -0.01084553       0.01767085      -0.04212652
H        5.71630769      11.96760852       9.01015519      -0.00180101       0.01106791      -0.02836562
S        5.77053943       2.69650382      10.30814675      -0.00386918       0.00312096      -0.00735664
O        4.68930999       1.88046347      10.96548220      -0.00385958       0.00541025      -0.00720423
C        7.24723961       2.54755950      11.32358516      -0.00108635      -0.00385094      -0.01289120
C        5.42300264       4.41106293      10.69096678       0.00273965       0.00308782      -0.00281304
H        7.57687837       1.51263967      11.24920125      -0.00561061      -0.00467975      -0.01575308
H        7.01198636       2.80272321      12.35797512       0.00312775      -0.00436288      -0.01188247
H        8.00299818       3.20935729      10.89874002      -0.00075056      -0.00590003      -0.01455252
H        6.27354559       5.00441324      10.36021445       0.00324437       0.00154437      -0.00278364
H        5.25156731       4.51832709      11.76251919       0.00532929       0.00045075      -0.00183991
H        4.53734319       4.69624977      10.12525186       0.00195068       0.00725834       0.00072137
S       11.93579167      11.50380509      11.22422293       0.00034636       0.00601313      -0.00353742
O       12.10677243      12.22646260       9.90346020      -0.01548449       0.00194001      -0.00604498
C       11.47470317       9.80841592      10.87510572       0.00401866       0.00302130       0.00728135
C       10.34780548      11.99046986      11.88763825       0.00519359       0.00543448       0.00997695
H       12.31063708       9.34740713      10.35221078       0.00204915       0.00441294       0.00323017
H       10.57365196       9.82869740      10.26319490      -0.00020003      -0.00243893       0.01385026
H       11.28667806       9.32818823      11.83385984       0.01263919       0.00781981       0.01096743
H       10.20301935      11.43285955      12.81194158       0.02266585       0.02351981       0.02233975
H        9.58574859      11.74582772      11.14613609      -0.00197251      -0.01120692       0.02407581
H       10.38928390      13.05934967      12.08494662       0.00286563       0.00923184      -0.01175170
S       10.13593950       8.63923733       7.85023153       0.00018907       0.00191331       0.00583971
O        8.78995396       8.16071761       8.29188204      -0.00579977      -0.00302333       0.00543034
C       10.20163828       8.54057143       6.05222665       0.00112076      -0.00167540       0.00746554
C       11.28498255       7.32091372       8.26126900      -0.00080764       0.00372052       0.00915155
H        9.51925506       9.29634937       5.66892783       0.00238530      -0.00235756       0.00529383
H        9.87802206       7.56442148       5.69885145       0.00064304      -0.00259972       0.01134858
H       11.21189032       8.76068692       5.70895298       0.00227429      -0.00331989       0.00683706
H       12.26926702       7.49731409       7.82245121       0.00166924       0.00762522       0.01425527
H       10.85102076       6.37199585       7.94925505       0.00546926       0.00340073       0.00403902
H       11.36131597       7.32695365       9.34703098      -0.00528670       0.00121732       0.00915866
S        2.19425987       8.03150296       5.98278888      -0.00843021      -0.00485966       0.01388597
O        1.77044561       7.84350499       7.41479769       0.00739002      -0.00857145       0.00899422
C        3.55423706       6.88388957       5.71296358      -0.00636548      -0.00081518      -0.00533079
C        3.15106708       9.55045324       5.94017411      -0.00436455      -0.00391698       0.00721945
H        3.14317536       5.87949056       5.80193308      -0.00562461      -0.00254688      -0.00344776
H        4.31027660       7.07844329       6.47299114      -0.00164065      -0.00232513      -0.01458621
H        3.94797296       7.01673085       4.70608914      -0.01867923       0.00047524      -0.01058862
H        3.50891568       9.72420204       4.93052667      -0.02573450       0.00507724       0.00019448
H        3.97362640       9.45295906       6.64464145       0.00087951      -0.00746621      -0.00932692
H        2.46525897      10.35574351       6.19435107      -0.00530879      -0.00569494       0.02339722
S       12.11379852       3.40409503       1.27399761       0.00423574      -0.00288534      -0.01322770
O       13.06921858       3.28720185       0.10637975       0.00324535      -0.00572208      -0.01259315
C       11.75925125       1.71455237       1.77940964       0.00889051      -0.00107276      -0.00406282
C       10.49833362       3.78685012       0.58126369       0.00255078      -0.01060605      -0.01344293
H       12.45284168       1.41345221       2.55966953       0.00708620       0.00730030       0.00051828
H       11.88538460       1.06908242       0.91419905       0.01467984      -0.00562169       0.00050770
H       10.73937083       1.63758371       2.14244136       0.00824659      -0.00302651      -0.00745014
H        9.76390325       3.72276574       1.38831691       0.00385997      -0.00865419      -0.01273441
H       10.27285123       3.08337044      -0.22073081       0.00388303      -0.01496902      -0.00951745
H       10.54817253       4.80292712       0.19344863      -0.00014011      -0.01263568      -0.01852031
S        8.45871263       1.52258722       3.52625660       0.00331776      -0.00742221      -0.01150844
O        8.57565172       2.99401023       3.24935476       0.00516237      -0.00552857      -0.00957938
C        7.08544076       1.29234881       4.66829053       0.00224543      -0.00558135      -0.01335245
C        9.77316979       1.11189433       4.69031335      -0.00017691      -0.00853282      -0.00955582
H        6.17337319       1.64259820       4.18422997       0.00292040      -0.00550133      -0.01367925
H        7.25819673       1.89375826       5.56104568       0.00153863      -0.00625624      -0.01342486
H        7.01568993       0.22989228       4.90705061       0.00207358      -0.00571306      -0.01367273
H        9.76493034       0.03821161       4.87156707      -0.00532070      -0.00787534      -0.00671487
H        9.63459637       1.68911954       5.60305053       0.00056095      -0.00492331      -0.01231985
H       10.71568353       1.36735821       4.21924426       0.00165114      -0.01574060      -0.00907087
S        7.36636436       9.88508169       0.89175263      -0.00875497      -0.00235335      -0.00344169
O        8.51392740       9.40222723       0.07191235       0.02063167      -0.00607955      -0.00933957
C        6.80233579      11.45537810       0.17914901       0.01099201      -0.00141615      -0.00560260
C        8.02974852      10.57587242       2.41195244      -0.01163119      -0.01979938       0.00006956
H        6.27045773      11.23848376      -0.74473146       0.03751916       0.00594195      -0.02128904
H        7.67359001      12.06683387      -0.04570339       0.00980690       0.00930703       0.02879674
H        6.15294761      11.96032904       0.89465093      -0.01457258      -0.01621040      -0.01336163
H        7.20538838      10.98538063       2.99589719      -0.01941320      -0.01563642      -0.00461460
H        8.77577571      11.33315808       2.17552156      -0.00662249      -0.02296042       0.01252947
H        8.50614161       9.75290114       2.93649847      -0.02668333      -0.02443819       0.00273763
S        3.17728204       2.78869170       3.28298372       0.00111210       0.00516328       0.00399965
O        4.36330812       2.90993181       4.18536114       0.00493491       0.00758810       0.00239253
C        2.93343588       1.02714859       3.01581080      -0.00025516       0.00472766       0.01367314
C        3.73869859       3.15863635       1.60781698      -0.00162232      -0.00252755       0.00253654
H        2.56673572       0.57530296       3.93188410       0.00323611       0.01027172       0.01750711
H        3.89507577       0.58329738       2.75512554      -0.00215518       0.00252804       0.01221998
H        2.20826805       0.85283566       2.22230300      -0.00336003       0.00095864       0.01748504
H        2.88669645       3.07118636       0.93374856      -0.00308965      -0.00587174       0.00467571
H        4.54508629       2.48157538       1.32297609      -0.00296505      -0.00407860       0.00343826
H        4.07731070       4.19259130       1.62441327      -0.00167188      -0.00280735      -0.00386806
S        7.57458728       6.31680763       2.78248653       0.00108457      -0.00334704       0.00462681
O        7.17482672       7.62330463       3.39043611      -0.00180161      -0.00468802       0.00123209
C        7.23563050       6.42043922       1.00816015       0.01114348      -0.00391225       0.00251925
C        6.25452703       5.15850329       3.15547958      -0.00070184      -0.00283444      -0.00211684
H        7.90643009       7.16487146       0.57837190       0.01500170      -0.00728792       0.00598045
H        6.19201543       6.71409519       0.87505243       0.01303831      -0.00067650      -0.00296836
H        7.42000722       5.43962920       0.56809553       0.00976664      -0.00519925       0.00465099
H        6.43051576       4.23143777       2.61523743       0.00231982      -0.00371334       0.00136185
H        5.30092196       5.62163357       2.89663207       0.00145945      -0.00274934      -0.00836091
H        6.28468105       4.92923993       4.21689501      -0.00728547       0.00014076      -0.00119710
S        8.22501245       4.23910008       6.68834237      -0.01740271      -0.00847805       0.01553893
O        8.58766407       3.97056707       8.11939369      -0.02403277      -0.00849955       0.01326871
C        9.73016545       4.70297210       5.79927912      -0.01395488      -0.01181686       0.01906297
C        7.42521392       5.84737961       6.64713237      -0.01055259      -0.00451553       0.01091076
H       10.40864137       3.85410513       5.84527791      -0.01373639      -0.01163617       0.02707642
H       10.19087887       5.57126946       6.26253120      -0.01703738      -0.00980027       0.01717190
H        9.46429600       4.89098201       4.75920422      -0.00851845      -0.01744153       0.01710540
H        7.42568972       6.26385910       5.64041361      -0.00946821      -0.00770744       0.01019143
H        7.95015224       6.52583289       7.32513201      -0.00703917      -0.00628605       0.00807594
H        6.39575946       5.70770863       6.97195124      -0.01105438       0.00085141       0.01231126
S        1.84962383       5.93695747       1.86759516      -0.00306976       0.00564635      -0.01200873
O        3.17566198       6.48287421       2.31965114      -0.00091565       0.00558120      -0.01655632
C        1.44850075       6.75025345       0.30658292      -0.01246503       0.01189646      -0.00593001
C        0.57516519       6.71665759       2.87056031       0.00140369       0.00102174      -0.00307736
H        2.29836608       6.56886845      -0.34899114      -0.01706436       0.01549118      -0.01189373
H        1.28116924       7.81527178       0.46416441      -0.01213889       0.01086807      -0.00028640
H        0.56635162       6.26750263      -0.11210764      -0.01500484       0.01371698      -0.00239958
H       -0.39210568       6.63795775       2.37777613      -0.00160721      -0.00542177       0.00427144
H        0.83219890       7.76581946       3.00167002      -0.00384218       0.00233918      -0.00713492
H        0.55319555       6.20355598       3.82985723       0.01161240       0.00235941      -0.00260724
S        5.60600215       9.06290587       8.98156296       0.00682217       0.01095402       0.01400220
O        5.56669868       8.45803254       7.62025222      -0.00080597      -0.01892453      -0.01829779
C        5.96017443       7.72565338      10.12215469       0.02215093       0.01517111      -0.00114357
C        3.88054433       9.31845158       9.47630543       0.00603122      -0.00922919      -0.00196902
H        6.95536478       7.37145928       9.85768923       0.02229311       0.02038191       0.00398239
H        5.20116899       6.95800464       9.97704626       0.02798234       0.00948741       0.01983810
H        5.96078788       8.10127208      11.14502959       0.02668759       0.02895059       0.00479262
H        3.83551505       9.42270993      10.55845584       0.01234683       0.00279378       0.00550066
H        3.27509384       8.48351848       9.11798289       0.01306429      -0.00982788       0.01202012
H        3.53086634      10.23468699       9.00254496      -0.00166969      -0.01135351      -0.00282378
S        2.64630043       9.76025113       2.08088864      -0.00080460       0.00398588      -0.00380087
O        2.30840116      10.67569898       3.21273672       0.00537574       0.01072872       0.00184631
C        4.38248379       9.36563272       2.27669493      -0.00311750       0.00051881      -0.00530076
C        2.80244483      10.81195093       0.61941969      -0.00237325       0.00426185      -0.00164181
H        4.47932419       8.64201420       3.08110443      -0.00324791       0.00481565      -0.00152129
H        4.92664753      10.28102782       2.51379344       0.00062930      -0.00082067      -0.01236908
H        4.76964783       8.90770944       1.36987205      -0.00805518      -0.00669360      -0.00429702
H        3.08041409      10.20129341      -0.23799556      -0.00494624       0.00339313      -0.00202421
H        3.54319044      11.59336734       0.79117544      -0.00021073       0.00252543      -0.00338717
H        1.80394979      11.22003392       0.47010555      -0.00091699       0.00677434      -0.00041053
