144
Lattice="12.498086082547596 0.0 0.0 0.0 12.498086082547596 0.0 0.0 0.0 12.498086082547596" Properties=species:S:1:pos:R:3:forces:R:3 energy=-265140.15625 stress="0.00012050296936649829 -8.028396769077517e-05 6.525309254357126e-05 -8.028396769077517e-05 8.515122317476198e-05 9.901654630084522e-05 6.525309254357126e-05 9.901654630084522e-05 -0.00039548747008666396" pbc="T T T"
Cs      12.60222733      12.55764079      -0.80805338       0.00807453      -0.00275350      -0.00929942
O       11.94411416      11.84798381       3.58910424      -0.01865745      -0.00887853       0.02341795
N       11.11097681      12.61052607       1.46965228       0.04650903       0.01558995       0.00593352
C       11.52599629      12.23053436       2.52741383       0.01858561       0.00138335       0.01901746
C        5.20523567       3.45422521      11.68235948      -0.00203023      -0.00376183       0.00244781
C        6.48314124       4.28344877      11.70507918      -0.00317908      -0.00247717       0.00569036
C        3.93856820       4.29850364      11.75042360      -0.00255270      -0.00448954       0.00602495
C        7.75399946       3.44842594      11.60389618      -0.00278361      -0.00108981       0.00183572
C        2.66161725       3.46463105      11.74425369      -0.00230017      -0.00509119       0.00383922
C        9.01784949       4.29707098      11.57251887      -0.00187159      -0.00161773       0.00568243
H        5.18794602       2.84662951      10.76972538      -0.00204492       0.00033566      -0.00033739
H        5.21470293       2.74199394      12.51501428      -0.00169782      -0.00707835      -0.00013456
H        6.51343412       4.88357933      12.62294099      -0.00421026      -0.00523338       0.00742763
H        6.45893091       5.00304182      10.87774018      -0.00142648      -0.00184293       0.00768209
H        3.96621523       4.92066181      12.65125602      -0.00243029      -0.00790878       0.00842848
H        3.92562990       4.99347877      10.90463070      -0.00406406      -0.00110240       0.00866777
H        7.79607300       2.75139182      12.44725879      -0.00113200      -0.00692999       0.00065404
H        7.70493174       2.83079520      10.70058896      -0.00279532       0.00067997      -0.00042504
H        2.61793302       2.84339289      10.84469267      -0.00357472      -0.00077122       0.00086778
H        1.76958735       4.09443669      11.76376874      -0.00283180      -0.00585814       0.00844374
H        2.62702852       2.80550847      12.61691787      -0.00067933      -0.00834031       0.00047290
H        9.01256367       4.97180215      10.71308616      -0.00104068      -0.00079738       0.00697495
H        9.10247383       4.91137037      12.47150484      -0.00402314      -0.00446738       0.00770739
H        9.91552488       3.68043649      11.50461081      -0.00205581      -0.00217944       0.00569153
C        5.28160697       8.23222921       3.33679404      -0.00307140       0.00251147      -0.00348633
C        3.86454372       8.41891352       2.81136522      -0.00185743       0.00411838      -0.00641711
C        5.54847259       6.83704119       3.88809371      -0.00442258       0.00214764      -0.00361479
C        3.59465254       9.82891115       2.29996883       0.00052968       0.00619683      -0.00229512
C        6.97893192       6.65816360       4.37844995      -0.00504598       0.00192456      -0.00176036
C        2.15695306      10.03854196       1.83929358       0.00171426       0.00999518      -0.00410376
H        6.00237147       8.45141203       2.54074731      -0.00133108       0.00271912      -0.00189325
H        5.47232102       8.97041573       4.12535933      -0.00423888       0.00188896      -0.00267974
H        3.15305497       8.18576535       3.60764996      -0.00423209       0.00159572      -0.00917292
H        3.67131898       7.69392905       2.01125428       0.00022535       0.00702813      -0.00954691
H        4.84877927       6.63540815       4.70775777      -0.00551112       0.00229479      -0.00454330
H        5.32729526       6.09425710       3.11334241      -0.00359612       0.00222783      -0.00388670
H        3.82612688      10.54471750       3.09565214       0.00023183       0.00309016       0.00049201
H        4.28632354      10.05290263       1.48088693       0.00231734       0.00794704      -0.00030255
H        7.69105146       6.76201248       3.55682246      -0.00394326       0.00128273      -0.00092278
H        7.13324130       5.67841740       4.83438503      -0.00592513       0.00207490      -0.00109844
H        7.23253571       7.41498124       5.12475190      -0.00569423       0.00218198      -0.00182317
H        1.89888518       9.35452580       1.02556298       0.00177990       0.01256274      -0.00628400
H        1.44725056       9.87771899       2.65268847       0.00013146       0.00886846      -0.00568029
H        2.00158910      11.06605788       1.49640038       0.00400695       0.01008749      -0.00173714
C        3.51692613       2.82908827       3.33115845       0.00277264      -0.00398013      -0.00133753
C        4.90637107       2.94487001       3.94797512       0.00205297      -0.00604734       0.00051355
C        2.40568149       3.36983899       4.22308828       0.00162110      -0.00695090      -0.00082260
C        6.01571236       2.43832300       3.03310306       0.00300593      -0.00377680       0.00048077
C        1.01761034       3.22759251       3.61299426       0.00186929      -0.00615465      -0.00208512
C        7.41229873       2.60506165       3.61576029       0.00222674      -0.00540505       0.00275506
H        3.50361108       3.36907363       2.37614037       0.00347621      -0.00076871       0.00053826
H        3.31053750       1.77886982       3.09120114       0.00341362      -0.00322154      -0.00519216
H        4.93417911       2.38881533       4.89254569       0.00064957      -0.00887111      -0.00112081
H        5.09902602       3.99192985       4.20845450       0.00217824      -0.00685388       0.00376351
H        2.43453240       2.85051191       5.18603982       0.00081835      -0.01024559      -0.00241813
H        2.61066016       4.42400489       4.43983792       0.00171973      -0.00764483       0.00327184
H        5.83406468       1.38342091       2.80219884       0.00330923      -0.00322789      -0.00243829
H        5.95749463       2.97158462       2.07846790       0.00428770      -0.00131504       0.00174958
H        0.95774172       3.74017069       2.64973175       0.00081865      -0.00648182      -0.00213228
H        0.25134249       3.65506782       4.26158441       0.00155132      -0.00727104      -0.00180013
H        0.76053541       2.17809670       3.45388083       0.00297683      -0.00614816      -0.00308807
H        7.65459485       3.66188236       3.74571919       0.00157317      -0.00578567       0.00713175
H        7.49024942       2.12729168       4.59471230       0.00147286      -0.00931037       0.00089979
H        8.17440908       2.16506208       2.97110187       0.00310135      -0.00238898       0.00173166
C        8.61479617      10.37068944       4.30741999       0.00579745       0.00186378      -0.00190184
C        9.60678031       9.34601946       3.77094858       0.00501230       0.00083795      -0.00130197
C        8.62653916      10.46910243       5.82732431       0.00570548       0.00302222      -0.00206110
C        9.49010898       9.13473309       2.26567457       0.00599095       0.00198787      -0.00148025
C        7.61427200      11.46492502       6.37734454       0.00281268       0.00086677      -0.00333421
C       10.45249285       8.07684671       1.74296084       0.00494862       0.00114530      -0.00174373
H        8.84041582      11.35084177       3.87412997       0.00716258       0.00160360      -0.00187354
H        7.60357536      10.10917843       3.97397241       0.00562611       0.00271299      -0.00207817
H        9.45376407       8.38835873       4.28371222       0.00296368       0.00068375      -0.00224234
H       10.62220763       9.67663497       4.01022906       0.00491500      -0.00031021      -0.00008967
H        8.42193230       9.47629888       6.24413737       0.00838223       0.00281477      -0.00115272
H        9.63401344      10.74124198       6.15870063       0.00495800       0.00626372      -0.00263149
H        8.46133690       8.84660964       2.02163055       0.00579992       0.00372221      -0.00259755
H        9.67235538      10.08648419       1.75793421       0.00766748       0.00216585      -0.00088455
H        7.82016865      12.47233670       6.01040739       0.00183824       0.00144409      -0.00212958
H        7.62667499      11.49702889       7.46910253       0.00031189       0.00004059      -0.00328648
H        6.59904223      11.20407849       6.06733108       0.00399055      -0.00078741      -0.00589787
H       11.48832629       8.36367863       1.93742114       0.00551739       0.00261614      -0.00674736
H       10.28451056       7.11432035       2.23288139       0.00758230       0.00281450       0.00237343
H       10.34107109       7.92237987       0.66759108       0.00078823      -0.00279667      -0.00075084
C        2.00582850       9.74095391       7.48176334      -0.00622135       0.00266502      -0.00029030
C        1.98966510       8.97925815       6.16259090      -0.00969765       0.00362197      -0.00080636
C        3.14068334      10.75082838       7.59760571      -0.00564736       0.00215374      -0.00228515
C        0.85562118       7.96250797       6.08783398      -0.00727001       0.00071035       0.00307930
C        3.14263267      11.47997554       8.93462402      -0.00249225       0.00163899      -0.00193745
C        0.82146611       7.17603717       4.78576844      -0.00882744       0.00030528       0.00337318
H        1.04622258      10.25894527       7.60401153      -0.00580445       0.00261010       0.00272313
H        2.07585181       9.02431156       8.31032412      -0.00395668       0.00190009      -0.00103149
H        2.95169307       8.46774224       6.03085819      -0.00898108       0.00611077      -0.00507500
H        1.90028033       9.69020893       5.33351513      -0.01507961       0.00402343       0.00012377
H        4.09556928      10.23780195       7.46284658      -0.00616813       0.00163923      -0.00442079
H        3.06674811      11.47712584       6.78235352      -0.00687777       0.00246045      -0.00189388
H        0.94659130       7.26856760       6.93109311      -0.00274917       0.00115497       0.00294611
H       -0.09680379       8.48661982       6.22155498      -0.00829247      -0.00187099       0.00584171
H        2.23539015      12.08337350       9.03644632      -0.00084847       0.00387207      -0.00045607
H        3.99468681      12.15353648       9.03092125      -0.00071463      -0.00056119      -0.00257816
H        3.17690689      10.77177281       9.76753871      -0.00323633       0.00112322      -0.00239524
H        0.71660982       7.84204911       3.92724457      -0.01235999      -0.00000186       0.00356011
H        1.74083219       6.60229963       4.64785310      -0.00798611       0.00210682       0.00138768
H       -0.01291223       6.47307420       4.76195624      -0.00745225      -0.00141977       0.00561127
C       10.64871302       7.31898682       8.96815428       0.00431257      -0.00017759       0.00367326
C        9.86192456       6.33266604       8.11369774       0.00354314       0.00160950       0.00240950
C        9.91010171       8.63637516       9.17439415       0.00546992       0.00005885       0.00567701
C       10.56208669       4.99498657       7.90514181       0.00303751       0.00177550      -0.00003864
C       10.71108302       9.66310355       9.96599336       0.00764662      -0.00133470       0.00551334
C        9.71712740       4.00959941       7.10770115       0.00245190       0.00338376      -0.00134507
H       10.86678655       6.86575576       9.94263658       0.00435797      -0.00155802       0.00295672
H       11.61799688       7.51639880       8.49818278       0.00429755      -0.00018676       0.00362179
H        9.64945895       6.78716829       7.13731945       0.00344127       0.00326245       0.00327951
H        8.88508618       6.15613318       8.57731354       0.00352263       0.00121842       0.00254224
H        9.65104078       9.05662305       8.19794959       0.00449942       0.00127125       0.00650331
H        8.96137088       8.44118675       9.68496920       0.00599137       0.00036072       0.00679536
H       11.51801439       5.16143118       7.39680124       0.00283253       0.00247221      -0.00025502
H       10.80754313       4.56277245       8.88075464       0.00350110       0.00005437      -0.00089055
H       10.96468341       9.28319578      10.95957452       0.01067976      -0.00289917       0.00420967
H       10.14113975      10.58898044      10.09533871       0.00770769      -0.00175536       0.00832203
H       11.64472978       9.89936756       9.44411358       0.00615644      -0.00030650       0.00326398
H        8.76502685       3.81836840       7.60958008       0.00297949       0.00225117      -0.00089096
H        9.48894533       4.40120774       6.11387730       0.00155662       0.00557554      -0.00024031
H       10.22269973       3.05175329       6.97777490       0.00242229       0.00369555      -0.00385718
C        4.70502501       4.65943729       8.00673602      -0.00428343       0.00019830      -0.00361290
C        4.69922779       6.18126311       8.03708918      -0.00370514       0.00023782      -0.00387343
C        3.30951079       4.05113936       7.96579105      -0.00431389       0.00019234      -0.00225350
C        6.09541977       6.78058375       8.13325594      -0.00340945      -0.00054955      -0.00258051
C        3.33098850       2.52963384       7.98851566      -0.00399918       0.00017813      -0.00480099
C        6.10194689       8.29876563       8.05357512      -0.00199111      -0.00055051      -0.00382407
H        5.27722291       4.31669566       7.13593084      -0.00518145      -0.00005333      -0.00412077
H        5.24124964       4.28164636       8.88552876      -0.00352806       0.00019843      -0.00400716
H        4.09469882       6.53016150       8.88345059      -0.00432952       0.00060172      -0.00442198
H        4.19989798       6.55974215       7.13683448      -0.00275278       0.00033513      -0.00434297
H        2.72984328       4.42420862       8.81714973      -0.00284602      -0.00123341      -0.00062010
H        2.78987771       4.40175580       7.06872787      -0.00598745       0.00149614      -0.00079200
H        6.55764967       6.45840289       9.07265641      -0.00487336      -0.00020404      -0.00174329
H        6.71919706       6.36827032       7.33452269      -0.00264861      -0.00161974      -0.00146475
H        3.88884989       2.12926601       7.13930388      -0.00482361       0.00179304      -0.00604726
H        2.32556243       2.10465851       7.95239885      -0.00393254      -0.00000076      -0.00461079
H        3.81798630       2.16182454       8.89445243      -0.00295313      -0.00129372      -0.00592451
H        5.69514871       8.63743954       7.09771211       0.00050171      -0.00085556      -0.00493716
H        5.49068806       8.73731550       8.84646584      -0.00342420       0.00057825      -0.00554645
H        7.10897266       8.70593544       8.14607560      -0.00178462      -0.00138895      -0.00174465
