149
Lattice="12.198614374596705 0.0 0.0 0.0 12.198614374596705 0.0 0.0 0.0 12.198614374596705" Properties=species:S:1:pos:R:3:forces:R:3 energy=-304231.625 stress="-0.002001814544200897 8.326569150085561e-05 -0.0006329153547994792 8.326569150085561e-05 -0.0034457435831427574 -0.0010554238106124103 -0.0006329153547994792 -0.0010554238106124103 -0.003474816679954529" pbc="T T T"
Cs      12.62194735      11.49773361      -1.42750067       0.00240257      -0.01417591      -0.02730672
O        9.51939002      12.64693883       1.57110004      -0.00662065       0.01072288       0.00148919
O       11.52766285      11.98381288       1.09875414      -0.01502609      -0.00294018      -0.01923490
O       10.26568372      10.79157819       2.40706558      -0.02972203      -0.01198363      -0.03747952
N       10.41879801      11.80777154       1.69552162      -0.01520751      -0.00110897      -0.01959841
O        3.50158821       8.84852359       8.83674180      -0.00841784       0.02160859       0.00110424
N        5.25474281       8.27558155       7.48572275      -0.00860351      -0.00126484       0.01720752
C        5.25955861       6.87700565       7.85431003       0.01518524      -0.00291651       0.00404678
C        6.31971763       8.71570730       6.62173985      -0.01108053      -0.00330678       0.00807462
C        4.35618884       9.13410582       8.01796885      -0.01706028      -0.00496063       0.01689243
H        6.21581834       6.61343481       8.30734653       0.01839089      -0.00345996       0.00990984
H        5.11592479       6.25693740       6.96444692       0.01026224      -0.01577863       0.00608614
H        4.46126000       6.68623153       8.56233057       0.01451012       0.01335693       0.00285804
H        7.28641698       8.61991236       7.12548699       0.01368985       0.00198722      -0.01642987
H        6.15740646       9.75289883       6.32621326       0.00798590       0.00125715      -0.00380898
H        6.35303361       8.09973006       5.72072870       0.01270980       0.00785969      -0.01235738
H        4.47813878      10.15784951       7.61993991      -0.01105569      -0.02845305       0.01351030
O        2.00224247       9.80601962       6.30436354       0.00314033       0.01831228      -0.01095659
N        3.02081085       8.02966682       5.27596569       0.00357483       0.01523325      -0.00314689
C        2.13846729       7.00173254       5.79646774       0.00725451       0.01743110       0.00559755
C        4.01071084       7.65347644       4.29732073      -0.00087149       0.00741134      -0.00463362
C        2.85768662       9.32594318       5.57791110       0.00365430       0.01609164      -0.01165420
H        2.73275235       6.19554577       6.22775910       0.00927484       0.02178791       0.01030947
H        1.55520912       6.56366034       4.98197111       0.00658463       0.01145168       0.00996462
H        1.49027112       7.42699072       6.55989058       0.00862259       0.02017979       0.00458923
H        4.61972164       6.82767510       4.66781195      -0.00145347       0.00860846      -0.00172046
H        4.64900316       8.50527742       4.08640013      -0.00000773       0.00381374      -0.01346906
H        3.54233392       7.33708004       3.36700899      -0.00596100       0.00183414       0.00042197
H        3.61395677       9.95720064       5.07448710      -0.00200862       0.01474884      -0.01910681
O        5.35900879       2.29962111       1.11198582      -0.00353479      -0.01052287       0.00013849
N        3.21300527       2.20611090       1.90801417      -0.00395116      -0.00709930      -0.00246969
C        3.59551511       1.74470456       3.23094678      -0.00560366      -0.00209164      -0.00099403
C        1.82524398       2.57469256       1.69522261      -0.00323951      -0.00777607      -0.00537836
C        4.15752317       2.48924586       0.98583132      -0.00322282      -0.01177973      -0.00272711
H        3.30944405       0.70284415       3.39118329      -0.00769490      -0.00053397       0.00217374
H        3.11484596       2.37067710       3.98245511      -0.00521582       0.00141081      -0.00417939
H        4.67554219       1.83284341       3.32433221      -0.00589854      -0.00381558      -0.00162654
H        1.16261225       1.71889517       1.83267330      -0.00352509      -0.00733358      -0.00281973
H        1.69336735       2.94382451       0.67985532      -0.00038516      -0.00724205      -0.00538319
H        1.53800956       3.36524327       2.39050427      -0.00522245      -0.00452229      -0.01034299
H        3.72196092       2.92546343       0.07081255      -0.00152597      -0.01660070      -0.00560302
O        2.17039402      10.14045993       0.52227949       0.01428370      -0.00145870       0.00759453
N        1.42941421      10.37149495       2.68150450      -0.01239963       0.00909558      -0.00173073
C        0.91443471       9.01896278       2.76944046      -0.00961986       0.00915530       0.00398607
C        1.00852119      11.31799279       3.70568826      -0.02500112       0.01409113      -0.01147661
C        1.97273877      10.80629999       1.54142781       0.00215968       0.00249009       0.00297368
H       -0.17169741       9.06319464       2.85801156      -0.01010883       0.00584732      -0.00859551
H        1.32760910       8.50527605       3.63531003      -0.01903814       0.01818560       0.01318565
H        1.19438378       8.48602446       1.86448684       0.00248315       0.00320156       0.01239565
H       -0.04393521      11.14984377       3.93037093      -0.02720165       0.01513449      -0.02066648
H        1.10893432      12.32729808       3.31821632      -0.02143498       0.01300207      -0.01330051
H        1.58360479      11.21361834       4.62225518      -0.03552689       0.01858694      -0.00432646
H        2.25105670      11.87024812       1.59044527      -0.00306614       0.00334233      -0.00326804
O        8.65435418      11.26225355      11.27647576       0.00661278       0.01197326      -0.00282177
N        6.75337288      10.13588718      10.69374237       0.00650138       0.00864374       0.00651851
C        6.57321939      10.88401659       9.47532232       0.00417273       0.00055736       0.00205222
C        5.83748757       9.04275654      10.96634294       0.01013912       0.00709154       0.01084620
C        7.79255057      10.41860381      11.49921908       0.00760376       0.01329243       0.00323666
H        5.56808669      11.30815129       9.44256415       0.00186783      -0.00557025      -0.00050338
H        6.70642469      10.24032078       8.60581395       0.00737594      -0.00433806       0.00640520
H        7.31123061      11.67744506       9.45025981      -0.00072065       0.00474489      -0.00170998
H        4.80462803       9.39069176      10.92468507       0.00878540       0.00326757       0.01153082
H        6.03760042       8.64948328      11.95908452       0.01231928       0.00962050       0.01146361
H        5.95164939       8.24961038      10.22329519       0.01165403       0.00566182       0.01273379
H        7.78998896       9.79317129      12.40465567       0.01002294       0.01805001       0.00605714
O       12.21990822       7.95992863       8.14713882       0.00059456      -0.00279140       0.00016788
N       10.87685789       9.74268311       8.64089729      -0.00802264      -0.00948779      -0.00327866
C       10.22656224       9.05564082       9.73995017      -0.01044217      -0.01108718      -0.00543757
C       10.25460147      10.94802006       8.12443072      -0.01209801      -0.01136410      -0.00300221
C       11.81739885       9.08230592       7.90568003      -0.00362915      -0.00509822      -0.00014733
H        9.18962458       8.81860898       9.48816619      -0.00769532      -0.01831263      -0.00997096
H       10.21964760       9.68470821      10.62957863      -0.01728806      -0.00957415      -0.00678101
H       10.75353556       8.12225989       9.91762103      -0.00474674      -0.00642896      -0.00067384
H        9.23348757      10.74072236       7.78523456      -0.00506851      -0.01476456      -0.02238201
H       10.81883104      11.34186183       7.28066952      -0.00392635       0.00498448       0.01051611
H       10.17405925      11.71990904       8.89510285      -0.03379213      -0.02106585       0.00381774
H       12.21285448       9.68511142       7.07701659      -0.00273106      -0.00181010       0.00437951
O        9.00424702       6.60430857       8.13086913      -0.03376335       0.00914234      -0.02079308
N        9.93076581       6.50939532       6.04132187      -0.00439569       0.00022887      -0.00544134
C        9.72444634       7.90661898       5.74634310       0.00503410      -0.00025645      -0.01067958
C       10.43248443       5.67900842       4.97295343       0.01423532      -0.00212201       0.00635454
C        9.56155327       5.99162064       7.23265512      -0.02391958       0.00462478      -0.01078713
H        8.90975536       8.04043943       5.02723924       0.01441818       0.00085520      -0.02035736
H       10.63375200       8.33688822       5.32339354       0.01114762      -0.00436913      -0.00061396
H        9.47661562       8.41969341       6.67044875      -0.00467034       0.00374699      -0.01593509
H        9.71132738       5.63260713       4.14987773       0.03271726       0.00152599      -0.00890091
H       10.60468954       4.67020880       5.34111831       0.00075510      -0.00260091       0.00961037
H       11.37150761       6.07696771       4.58246119       0.02410397      -0.00656857       0.02797133
H        9.82034823       4.92235199       7.31532630      -0.03023792       0.00391662      -0.00547080
O        6.16157952       8.57497011       1.94573232       0.04084641      -0.00464672       0.01503593
N        6.63562487      10.66023657       2.76283388       0.01073158       0.00322886       0.01534235
C        5.94699616      11.40048793       1.72354946       0.00108224      -0.00789896       0.01528911
C        7.34924137      11.44087798       3.75050564       0.00436670       0.01248476       0.01223560
C        6.69022677       9.32428069       2.76087752       0.02905586       0.00496107       0.01436415
H        6.66569628      11.98361534       1.14494359      -0.00654477      -0.00017866       0.01484162
H        5.24723753      12.10231580       2.17364066      -0.00801881      -0.01802272       0.01532602
H        5.40969394      10.70533450       1.08395740       0.01091188      -0.01640418       0.01709220
H        8.09087136      12.06352017       3.24913436      -0.00019521       0.01543835       0.00979120
H        7.86867077      10.77218852       4.43345647       0.00789048       0.02005285       0.01679699
H        6.64736311      12.06333983       4.31358315      -0.00107582       0.00956386       0.00761570
H        7.27459905       8.93570191       3.61215842       0.03610671       0.01077142       0.00999030
O        3.04511717       4.78365856       3.63086042      -0.01587451       0.00123447      -0.00805688
N        4.17314340       5.44176438       1.75024956      -0.00640083      -0.00235564      -0.00307563
C        3.04087135       6.08803575       1.11856266      -0.00190267       0.00065114      -0.00719725
C        5.44257902       5.52035885       1.05378580      -0.00239241      -0.00211468       0.00500071
C        4.06001501       4.84337746       2.94529646      -0.01310408      -0.00142033      -0.00352466
H        2.85114038       5.63551624       0.14252003       0.00367110       0.00396279      -0.00941408
H        3.24731515       7.15113787       0.96667001      -0.00095086       0.00094512      -0.00234245
H        2.16948207       5.96056429       1.75664885      -0.00518839      -0.00113927      -0.01262343
H        5.32622898       5.15580299       0.03476259       0.00062536       0.00933187       0.00091660
H        6.16854304       4.89466781       1.56834408      -0.00893369      -0.01216643       0.00134203
H        5.78895770       6.55336612       1.03685334       0.00401413      -0.00431544       0.01769114
H        5.01794933       4.39680115       3.26735492      -0.01590103      -0.00385919       0.00063568
O        5.26119058       4.89820497      10.08569000      -0.00942540      -0.01595569       0.00148889
N        6.31539678       2.90158324       9.78433388       0.00983270      -0.00479220      -0.00249312
C        5.09226535       2.13401787       9.84183024       0.01720053      -0.01565279      -0.00682878
C        7.56271176       2.18363290       9.66351853       0.01624380       0.00721416      -0.00153552
C        6.27806669       4.24124489       9.90498856      -0.00336415      -0.00610507       0.00162999
H        5.10408413       1.47029855      10.70892823       0.01938084      -0.01532337      -0.00693831
H        4.97480122       1.54092519       8.93167992       0.02626735      -0.01636511      -0.00710294
H        4.26203319       2.83078014       9.92046125       0.01127101      -0.02287292      -0.01018075
H        7.70376399       1.50124709      10.50596170       0.01975039       0.00608557      -0.00344393
H        8.38519467       2.89595787       9.64715967       0.00962751       0.01445526       0.00318914
H        7.58370648       1.60867747       8.73281506       0.02420229       0.01016602      -0.00276470
H        7.27622132       4.70370718       9.81731247      -0.00793350       0.00344792       0.00482685
O       11.26390199       4.72288719       0.92703987       0.01611125      -0.00360131       0.00229137
N       10.06462286       6.67410920       0.96111627       0.00619550      -0.01043146      -0.00800227
C        8.76079294       6.05520986       1.01709295       0.00930299      -0.01584076      -0.00680948
C       10.08807323       8.11679436       0.98261357      -0.00092380      -0.01095527      -0.00551091
C       11.19514358       5.94169584       0.90297187       0.00986478      -0.00450683      -0.00160810
H        8.16933482       6.35376994       0.14690456       0.00836161      -0.01948230      -0.00694299
H        8.22257707       6.38772691       1.90897765       0.00820653      -0.01596671      -0.00787735
H        8.87836501       4.97526860       1.02535835       0.01360410      -0.01502064      -0.00465876
H        9.47462101       8.51482234       0.17496289      -0.00488888      -0.01236028      -0.00293586
H       11.10432203       8.47960245       0.85618516      -0.00348651      -0.00516126      -0.00644877
H        9.70173567       8.51042521       1.92417811      -0.00147767      -0.01555333      -0.00430152
H       12.09014154       6.58511038       0.83199836       0.00653735       0.00005746      -0.00040880
O       10.60205412       1.04919196       5.68538447      -0.00619900      -0.00252384       0.00507540
N        9.74557634       2.31079943       3.97317234      -0.00455751       0.00327915       0.00947890
C       11.02733862       2.59786057       3.36034546      -0.00488645      -0.00343050       0.00614442
C        8.56616282       2.77807678       3.27527647      -0.00397797       0.00833441       0.01239378
C        9.66185167       1.53487416       5.06907784      -0.00561976       0.00463450       0.00963712
H       11.15934408       3.67211673       3.23154609      -0.00400119      -0.00491789      -0.00261288
H       11.06783823       2.14417378       2.36908653      -0.00628379      -0.01135306       0.01007003
H       11.81072514       2.19772726       3.99846910      -0.00489065       0.00067997       0.00831056
H        8.52096886       3.87022337       3.28058449       0.00006541       0.00825915       0.01313873
H        7.67430947       2.39001737       3.76412339      -0.00405945       0.01136455       0.01395005
H        8.58095317       2.42662431       2.24362854      -0.00785822       0.00903423       0.01230907
H        8.61334703       1.37622898       5.38062981      -0.00457865       0.01262248       0.01570721
