150
Lattice="12.782391519724673 0.0 0.0 0.0 12.782391519724673 0.0 0.0 0.0 12.782391519724673" Properties=species:S:1:pos:R:3:forces:R:3 energy=-432136.0 stress="-0.0015585218789055943 0.00043214403558522463 0.00011212557001272216 0.00043214403558522463 0.000423824560130015 0.0010740632424131036 0.00011212557001272216 0.0010740632424131036 -0.0009948002407327294" pbc="T T T"
Dy      11.91582483      12.07615727       0.83735117      -0.01120460       0.00879347       0.01852697
P       11.00609507      10.13528575       2.19907249      -0.02155365       0.02837008       0.00242248
O       11.93645744       9.85417197       0.93619973      -0.03110087       0.01615727       0.03240335
O       11.91845174      11.18172890       2.96022691      -0.02841353       0.00211525       0.02042377
O        9.96494713      11.14206500       1.53466192      -0.00750446       0.01182377       0.01963234
O       10.48785429       8.96814896       2.94907835      -0.03618175       0.01707745       0.01664591
C        2.39330558       9.48110382       6.25740698       0.00483661      -0.00433321       0.00258675
C        1.79714383      10.68640242       6.60847598       0.00331883      -0.00607958       0.00612329
C        3.63964080       9.47549476       5.64363134       0.00362837      -0.00084677      -0.00000308
C        2.44253324      11.88681006       6.33242391      -0.00056497      -0.00446664       0.00468443
C        4.29339047      10.67327383       5.38509383       0.00038081       0.00094617      -0.00029927
C        3.69303298      11.87994160       5.72508397      -0.00155769      -0.00090890       0.00204228
H        1.88274065       8.54571332       6.44787226       0.00822963      -0.00570245       0.00391284
H        0.82889533      10.68973450       7.09357249       0.00527704      -0.00869711       0.00873053
H        4.09369549       8.53477556       5.35850883       0.00616351       0.00046957      -0.00010344
H        1.97398989      12.82898424       6.59034586      -0.00156697      -0.00564043       0.00675688
H        5.27029057      10.67099860       4.91761336      -0.00047345       0.00361241      -0.00188448
H        4.20365178      12.81195855       5.52091143      -0.00340296       0.00035127       0.00332484
C        7.02964076       9.95889883       8.69033873       0.01046623      -0.00009420       0.00219962
C        6.95534661      11.33580683       8.86798425       0.01799437       0.00154471      -0.00651625
C        5.86480081       9.20214430       8.68424653       0.00648849       0.00549863       0.01147068
C        5.72206717      11.95126807       9.04040979       0.02171925       0.00882332      -0.00643521
C        4.63127054       9.81358896       8.87675016       0.01025583       0.01309656       0.01093033
C        4.55996895      11.18802530       9.05638455       0.01802689       0.01454767       0.00169559
H        7.99212739       9.48380921       8.54910517       0.00752346      -0.00557778       0.00144964
H        7.86267968      11.92661022       8.86582350       0.02133823      -0.00343468      -0.01384830
H        5.91418847       8.13350336       8.51554397       0.00105604       0.00401558       0.01934610
H        5.66683006      13.02746694       9.14644101       0.02720098       0.00985263      -0.01212084
H        3.72669040       9.22164794       8.85528289       0.00699781       0.01749797       0.01794358
H        3.59464062      11.66300299       9.17969652       0.02073874       0.02063367       0.00125789
C       12.22621294      10.40741839      10.47033207       0.01482381       0.02855638       0.02280912
C       11.96975451       9.04882477      10.58065620       0.00976116       0.02801190       0.01049804
C       11.22621015      11.33068447      10.79226696       0.01507747       0.02918070       0.02609722
C       10.72740833       8.60487449      11.01445624       0.00740844       0.02816959       0.00272860
C        9.97723469      10.87929431      11.22201647       0.01273781       0.02895379       0.01814659
C        9.73414244       9.51475062      11.33877068       0.00820781       0.02874818       0.00762273
H       13.18975549      10.74700195      10.10603466       0.01663982       0.02896095       0.03048178
H       12.73659998       8.33091660      10.32486039       0.00822122       0.02832212       0.00615807
H       11.39626771      12.39245225      10.61368330       0.01975647       0.02912296       0.03497966
H       10.53981373       7.54172484      11.10675214       0.00342461       0.02841359      -0.00661151
H        9.18272888      11.57537230      11.46084938       0.01334776       0.02833352       0.02084551
H        8.77600172       9.16838180      11.70312558       0.00737989       0.02894416       0.00251018
C       11.24209939       6.55209212       6.80220513      -0.00375187       0.01020776      -0.00970216
C       11.76712239       7.78761738       7.16152342      -0.00965928       0.01223276      -0.00660614
C        9.96975490       6.47270086       6.24974872       0.00095816       0.00653525      -0.01941841
C       11.01947976       8.94176390       6.96710858      -0.01132333       0.00907402      -0.01371470
C        9.22606310       7.62788477       6.05101040      -0.00000162       0.00400256      -0.02637832
C        9.75329661       8.86353543       6.40516731      -0.00655314       0.00616136      -0.02340756
H       11.82051399       5.64903806       6.95222034      -0.00226609       0.01213793      -0.00474013
H       12.75703125       7.84896518       7.59516732      -0.01259825       0.01522801      -0.00045377
H        9.56082671       5.50694039       5.98134167       0.00581875       0.00484875      -0.02260740
H       11.42546588       9.90238988       7.25565497      -0.01546367       0.01143071      -0.01272070
H        8.24121919       7.57067582       5.60470197       0.00469455       0.00124599      -0.03633858
H        9.18172299       9.76529833       6.23106786      -0.00509784       0.00451700      -0.03126756
C        1.15365656       8.32865993       3.04847081      -0.01311496       0.00325102      -0.01959595
C        1.45512305       7.15050570       2.37799369      -0.01013176       0.00121244      -0.01609313
C        1.90765480       9.47059715       2.80432098      -0.00672337      -0.00026140      -0.01543203
C        2.48887850       7.11811352       1.44692176      -0.00320994      -0.00362396      -0.00705575
C        2.94818222       9.43778146       1.88485309       0.00054608      -0.00406666      -0.00642232
C        3.23461418       8.26423487       1.19450356       0.00280537      -0.00625730      -0.00288382
H        0.31170528       8.37623667       3.72699592      -0.01755548       0.00651269      -0.02667576
H        0.86823635       6.25889861       2.56707684      -0.01461665       0.00299223      -0.01937693
H        1.65550519      10.38349558       3.32720021      -0.00787572       0.00136051      -0.01745679
H        2.71657518       6.20054631       0.91629806      -0.00160323      -0.00477529      -0.00402729
H        3.54020547      10.32761795       1.70153554       0.00483399      -0.00691873      -0.00306178
H        4.04635188       8.23790013       0.47789855       0.00858092      -0.00976628       0.00382683
C       11.73088514       2.24788587       0.16750621      -0.01884978      -0.01929349      -0.01936795
C       11.99067156       3.44308315       0.83339657      -0.00643012      -0.02064437      -0.02079612
C       10.48970381       1.62797159       0.31345663      -0.02214126      -0.01196238      -0.00822232
C       11.01388219       4.01343031       1.63892839       0.00248009      -0.01431648      -0.01340060
C        9.52258641       2.18566069       1.14325490      -0.01240216      -0.00593543      -0.00112777
C        9.78753849       3.37853589       1.80168285      -0.00044808      -0.00661133      -0.00458127
H       12.50469950       1.82767500      -0.47250094      -0.02684428      -0.02449470      -0.02525316
H       12.95003342       3.92820129       0.72063734      -0.00400080      -0.02689352      -0.02829914
H       10.22342271       0.73185349      -0.25022405      -0.02973353      -0.01229963      -0.00187030
H       11.19864362       4.95811066       2.13623878       0.01265073      -0.01553908      -0.01558888
H        8.57062077       1.68988132       1.27099913      -0.01351334       0.00002480       0.00665310
H        9.02677166       3.82719335       2.42430852       0.00743426      -0.00154492       0.00149260
C        7.88890622       1.94798268       4.12385798       0.00437561      -0.01308511       0.00742182
C        6.96256469       2.96369377       4.33418271       0.00471319      -0.01081626      -0.00068924
C        7.48931423       0.73233297       3.57671594       0.00546800      -0.01504995       0.01079191
C        5.62126748       2.75667082       4.03280073       0.00600101      -0.00968513      -0.00654672
C        6.14846504       0.53362864       3.26692954       0.00571825      -0.01443703       0.00738913
C        5.21426875       1.53640629       3.50629126       0.00639172      -0.01142297      -0.00198825
H        8.93244351       2.11238241       4.36029602       0.00353153      -0.01361023       0.01092510
H        7.28812876       3.92145835       4.72205057       0.00435320      -0.01017259      -0.00270075
H        8.21970305      -0.04182727       3.36779420       0.00537921      -0.01613808       0.01453999
H        4.89588941       3.54432520       4.20066893       0.00697160      -0.00737537      -0.01447342
H        5.82773697      -0.40566953       2.83379261       0.00625577      -0.01637295       0.01146447
H        4.17081231       1.37029673       3.27671692       0.00726144      -0.01107235      -0.00566899
C        2.25644090       3.98956393      11.42716329       0.00704516      -0.00539067      -0.00317686
C        1.67506604       2.86537161      10.85447516       0.00742172      -0.00336008      -0.00732567
C        3.61796915       4.00674663      11.70167355       0.00583396      -0.00844373       0.00316462
C        2.44492619       1.73399007      10.60888660       0.00695366      -0.00350188      -0.00820870
C        4.39356875       2.88269120      11.44166540       0.00495115      -0.00943275       0.00420725
C        3.80206247       1.73831964      10.91615556       0.00566961      -0.00649323      -0.00262652
H        1.65333899       4.86386814      11.63168164       0.00803884      -0.00440991      -0.00472599
H        0.62493236       2.88338986      10.59005523       0.00830942      -0.00157014      -0.01051481
H        4.07923297       4.90122607      12.10190238       0.00565292      -0.01035176       0.00702126
H        1.99258515       0.85090930      10.17176554       0.00760128      -0.00113697      -0.01311195
H        5.45816059       2.90057428      11.64196247       0.00380242      -0.01220743       0.01004839
H        4.39667104       0.85141463      10.74653049       0.00534026      -0.00649527      -0.00359969
C        2.27798589       3.03279459       2.26399714      -0.00644998      -0.01332696      -0.00852327
C        2.26069697       1.87175634       1.49986423      -0.01161733      -0.01586064      -0.00412662
C        1.56193762       3.09637997       3.45487173      -0.00119464      -0.00670250      -0.00598943
C        1.53265857       0.76633180       1.93878097      -0.01194110      -0.01314268       0.00330539
C        0.82831515       1.99586267       3.88022259      -0.00260497      -0.00295557       0.00172223
C        0.81735416       0.81988970       3.13481668      -0.00785354      -0.00730196       0.00615980
H        2.85517258       3.88771024       1.93245645      -0.00597668      -0.01591861      -0.01434972
H        2.83018907       1.82875124       0.58187337      -0.01649693      -0.02034428      -0.00654799
H        1.57485793       4.00522384       4.04598908       0.00357678      -0.00508656      -0.00916171
H        1.59223269      -0.16841117       1.36741771      -0.01435529      -0.01583981       0.00829989
H        0.26509302       2.04283482       4.80361735       0.00148901       0.00127313       0.00302352
H        0.26165601      -0.04905576       3.47847436      -0.00814466      -0.00321567       0.01172785
C        6.26189529       5.41707755       1.26136410      -0.00742534      -0.00034869       0.01182208
C        7.45594253       5.31638753       0.55879171      -0.01003795       0.00369410       0.00513031
C        6.03484497       6.51608617       2.08368927      -0.00201929      -0.00224042       0.01731509
C        8.42966338       6.30068511       0.69708122      -0.01010290       0.00366891       0.00557354
C        7.00678858       7.50221473       2.20789605      -0.00013515      -0.00345638       0.01477349
C        8.21498797       7.39493682       1.52631884      -0.00751196      -0.00365981       0.00865166
H        5.51959255       4.63225737       1.18162426      -0.00701445       0.00114790       0.01282718
H        7.63776391       4.45779010      -0.07531120      -0.01392878       0.00501028       0.00038117
H        5.09765513       6.60737840       2.61767435      -0.00051419      -0.00464076       0.02222452
H        9.37842686       6.20074515       0.18235767      -0.01208802       0.00391448      -0.00168771
H        6.83327205       8.35998529       2.84590361       0.00226836      -0.00589350       0.02051038
H        8.99323370       8.13467314       1.68884902      -0.00411323      -0.00087115       0.00946505
C        7.52719729       3.24310134       7.84072994      -0.00093433      -0.00930383       0.00735141
C        8.05553342       2.70186721       9.00814635      -0.00167609      -0.00632878       0.00894208
C        7.40730751       4.62150463       7.71297176       0.00591759      -0.00943384       0.00070365
C        8.45292456       3.53601144      10.04652028       0.00432730      -0.00327067       0.00395787
C        7.80616934       5.45787844       8.74935986       0.01190202      -0.00622483      -0.00416104
C        8.32401766       4.91523825       9.91741788       0.01116621      -0.00330643      -0.00217944
H        7.21867887       2.59484172       7.03048561      -0.00571521      -0.01181822       0.01100547
H        8.15919868       1.62801935       9.10360908      -0.00682603      -0.00635742       0.01410142
H        7.00429378       5.04941744       6.80228266       0.00643584      -0.01177375      -0.00050913
H        8.86760963       3.11425811      10.95498588       0.00403010      -0.00078904       0.00534919
H        7.72800284       6.53279990       8.64242465       0.01718869      -0.00643316      -0.00966361
H        8.62090759       5.56868058      10.72664551       0.01606046      -0.00118518      -0.00591724
C        4.04715073       5.72495219       8.43418836      -0.00129174      -0.00419441       0.00221135
C        3.14134065       4.98622014       7.68258618      -0.00227775      -0.00196684       0.00120403
C        3.59153674       6.58117497       9.42807857      -0.00089887      -0.00049794      -0.00070159
C        1.77876442       5.10038402       7.93151851      -0.00234497       0.00397571      -0.00292100
C        2.22993082       6.70597745       9.66855666      -0.00098560       0.00464420      -0.00443034
C        1.32285732       5.95845096       8.92595521      -0.00200301       0.00728719      -0.00550537
H        5.10863081       5.61388753       8.26287852      -0.00119843      -0.00858790       0.00523904
H        3.49994609       4.31277718       6.91340401      -0.00289496      -0.00470714       0.00340959
H        4.29855079       7.14036405      10.02734261      -0.00054259      -0.00198860       0.00011227
H        1.07539310       4.50773113       7.35962940      -0.00317686       0.00602173      -0.00406095
H        1.88540678       7.35784576      10.46251887      -0.00064828       0.00736088      -0.00643297
H        0.26213733       6.02947986       9.13423462      -0.00225830       0.01207238      -0.00884138
