150
Lattice="12.941549435209767 0.0 0.0 0.0 12.941549435209767 0.0 0.0 0.0 12.941549435209767" Properties=species:S:1:pos:R:3:forces:R:3 energy=-600233.3125 stress="-0.0005430656019598246 -0.0009377099922858179 5.3160283641773276e-05 -0.0009377099922858179 -0.0008524303557351232 -0.0005318429321050644 5.3160283641773276e-05 -0.0005318429321050644 -0.0012977342121303082" pbc="T T T"
Dy      11.29006296      11.38652592       2.33800107      -0.00045348      -0.00704011       0.00174352
Cl       9.40454027      12.74667575       7.15049752      -0.00974846       0.00545818       0.00090723
O       10.45445383      13.82194507       6.84430108      -0.00976586       0.00248611       0.01325816
O        9.98727521      11.39973346       7.54164734      -0.01314765       0.00155377       0.00698155
Cl       5.82956795      12.70089828       4.83869126      -0.00251198      -0.00375962      -0.00892949
O        4.97029757      11.85874809       3.89475321       0.01122606      -0.01410937      -0.00603378
O        6.18818853      12.00227418       6.14065714      -0.00436214       0.00633007      -0.00136590
Cl       8.69852471      11.87161836      10.69583385      -0.00879145      -0.00582024       0.00048149
O        8.64147015      10.57670316      11.53985864      -0.00867658      -0.00740421      -0.00134355
O        7.54653633      12.85361061      11.07367873       0.00154734      -0.00016820       0.01197833
S       12.42826694       8.47278629       1.42465886      -0.00824571      -0.00773793       0.00655597
O       11.64367903       9.63935846       0.76027919      -0.00570929      -0.00687107       0.00484055
C       11.40683312       7.04002406       1.12700671      -0.01653764      -0.00532237       0.01650722
C       12.10572193       8.77369456       3.18504419       0.00434626      -0.00439131       0.00677395
H       11.54713319       6.77238919       0.08129212      -0.02339996      -0.01013801       0.01675943
H       10.36919301       7.30301414       1.31750898      -0.01132400      -0.00077908       0.02225606
H       11.77284047       6.24072330       1.76383444      -0.01343074      -0.00586990       0.01537867
H       12.42751155       7.94506713       3.81037594       0.00995332      -0.00433809       0.00040953
H       11.02506788       8.95441191       3.31265715       0.00533891      -0.00253985       0.02049401
H       12.73629717       9.61690486       3.51594387       0.00699276      -0.00506651       0.00382041
S       10.12338041       1.63494269       3.98883777       0.00642505      -0.00455904       0.00406247
O       10.97775597       0.47486957       3.43817559       0.00413008      -0.00735637       0.00266723
C        9.60044009       2.54994435       2.53604254       0.01059993       0.00024347       0.00689992
C       11.32777003       2.79085417       4.61218252       0.01274723      -0.01053891       0.00352338
H        8.75929947       2.01533517       2.09930128       0.00672843       0.00545365       0.00813815
H       10.43400850       2.66252920       1.84134665       0.00993407      -0.00194267       0.00425345
H        9.23801610       3.52123670       2.87442003       0.01840588       0.00133371       0.00878915
H       10.77924981       3.65751047       4.98068993       0.00929852      -0.00748421       0.00242184
H       12.02062640       3.07678150       3.82146776       0.01013356      -0.01284217       0.00692114
H       11.82384469       2.28990716       5.43880858       0.00746977      -0.00907463       0.00602630
S        8.22599815      12.21107996       2.18758945       0.00871014      -0.00155854      -0.00000449
O        8.97145783      10.99416748       2.80487477       0.00373644      -0.00615484      -0.00136361
C        6.84674395      11.57791852       1.25937847       0.00992402       0.00441667      -0.00219747
C        9.29549647      12.60293252       0.76533341       0.01178739      -0.00333703       0.00206167
H        6.12517378      11.22073349       1.99390176       0.01653270      -0.00877892       0.00012487
H        7.19977694      10.82232695       0.55858828       0.01364599       0.01053303      -0.00817339
H        6.44514870      12.43680652       0.72091714       0.00352347       0.00307636       0.01033277
H        8.73415713      13.19093584       0.03709192       0.01484475      -0.00182101       0.00181472
H        9.55664664      11.65244434       0.26689672       0.01252782      -0.00274804       0.00245938
H       10.14788421      13.21360877       1.09940157       0.01140710      -0.00425805       0.00627670
S        5.05417974       2.72120346       2.27500527       0.02233779      -0.00324702      -0.01443141
O        6.15505631       1.70160790       2.27909360       0.01439369       0.01416957      -0.01458959
C        3.64960478       2.03460377       3.17436066       0.02095705      -0.00044298      -0.00750294
C        4.33662415       2.66060338       0.61417276       0.00927663      -0.00420472      -0.01055712
H        3.91305855       2.10074341       4.22713348       0.02192810       0.00903692      -0.00888291
H        3.49262633       0.99742802       2.88795778       0.03190444      -0.00469203       0.00103542
H        2.76876998       2.64220208       2.96702757       0.01664178      -0.01148826      -0.01116685
H        3.39249070       3.20578268       0.58484572       0.01141657      -0.00576611      -0.01045993
H        4.19134339       1.62111870       0.32533387       0.00979123      -0.00747006      -0.00518721
H        5.05716141       3.12903842      -0.05388172       0.00869729      -0.00893449      -0.01491196
S        6.66791603       3.95896075       5.19206140       0.02950537      -0.00607806       0.00140536
O        5.22436376       3.61604471       5.35255034       0.01318753      -0.01421073      -0.01725179
C        7.53975653       2.99749830       6.44360929       0.00023320      -0.00454706       0.01188278
C        6.88257941       5.59326690       5.91797339      -0.00261118      -0.00847381      -0.00201184
H        7.34014402       1.95140918       6.21418060       0.01208706      -0.00362997       0.01405837
H        7.14501515       3.24461781       7.42855638      -0.00982271      -0.00296237       0.00648108
H        8.61401554       3.17258635       6.39025298       0.00663424      -0.00040568       0.02862630
H        7.94330424       5.84502514       5.90998184       0.00174468       0.00067396       0.01205631
H        6.47529706       5.60510290       6.92989295      -0.01062939      -0.00889350      -0.00678436
H        6.33792668       6.28026647       5.26861652       0.00558037      -0.01296176      -0.00775765
S       10.04089440       2.85053202      11.38999400       0.00075471       0.00276387       0.00330102
O       10.64753305       4.21429735      11.27983590       0.00028884       0.01069975      -0.00028969
C        9.69821300       2.26930541       9.71725195       0.00780530       0.00505912       0.00394970
C        8.30762029       3.05987985      11.87309858       0.00354683       0.00708838       0.00365244
H       10.61614996       1.89912954       9.26620393       0.00433382       0.01121571       0.00308805
H        9.31307979       3.11240403       9.14339425      -0.00544041      -0.00264700       0.00458022
H        8.95731791       1.47253401       9.76157282       0.01043554      -0.00530760       0.00735558
H        7.81744454       2.08571253      11.81293854       0.00381190       0.00092100       0.00365665
H        7.83210952       3.77762159      11.20507392       0.00056332       0.00106607       0.00146705
H        8.29425090       3.44217365      12.89229957       0.00064331       0.00423423       0.00048339
S       11.14568523       7.64311545       7.11165270       0.02766562       0.02844077      -0.02695036
O       12.25235705       8.23506338       6.30940170      -0.02961850      -0.00180429       0.00410175
C       10.94244348       5.95750031       6.47088488      -0.00675751       0.01149517       0.00202182
C        9.64071069       8.34256689       6.41605619      -0.00666928       0.01088344       0.00464386
H       11.82648076       5.39805572       6.77369975      -0.00041451       0.01452436      -0.00559086
H       10.89379081       6.01545366       5.38165477      -0.01656064       0.00943127       0.00141025
H       10.05122903       5.48941451       6.88754851      -0.00064082       0.01657329       0.01025718
H        8.75009344       7.85415488       6.80881278       0.00073996       0.01406977       0.01359936
H        9.71240321       8.22051799       5.33589209      -0.01477238       0.00851049       0.00359288
H        9.64364540       9.40256432       6.67704185      -0.00255769       0.01312241       0.00069449
S        1.99997750       5.45773530       2.40484402      -0.00272697      -0.01742184       0.00212443
O        0.86345183       6.38296917       2.74426287      -0.00989854      -0.03469133      -0.00336766
C        3.08176156       5.45040224       3.82691295      -0.00211734      -0.00733343       0.00373191
C        3.10180938       6.36528100       1.30287911      -0.01091975      -0.00713393       0.00289434
H        2.55252996       4.95703426       4.63905878       0.00199199      -0.01365112       0.00228133
H        3.32491319       6.48083703       4.07628417      -0.01625528      -0.00397336       0.00638279
H        3.99403116       4.90216713       3.60372216       0.00317882       0.00718094       0.00484229
H        3.92474255       5.71121169       1.01501436       0.00384154       0.00931314       0.01307867
H        3.49622224       7.22666732       1.83744382      -0.03362799       0.00498749      -0.00203148
H        2.52128945       6.65329549       0.42871438      -0.01139830      -0.02541281      -0.00284813
S        5.02853394       9.77446261       9.12933645      -0.01312564       0.00517988       0.00005564
O        4.65767746       8.32188190       9.12478452      -0.01765931       0.00611520      -0.00782089
C        6.77682994       9.88528373       8.71139926      -0.01760471       0.00316869      -0.01549004
C        5.22666619      10.25005053      10.85747566       0.00596814      -0.00928088       0.00074369
H        6.88872931       9.45259259       7.71969973      -0.02899439       0.01712682      -0.02273171
H        7.35293699       9.34801452       9.46563571      -0.01428663      -0.01041213      -0.02780473
H        7.05980199      10.93486677       8.66516156      -0.01145191       0.00051634      -0.00326485
H        5.63109172      11.26339886      10.90590650       0.00571386      -0.01164950       0.00609272
H        5.91231958       9.54446921      11.32414135       0.01091535      -0.01405643      -0.01249089
H        4.23389373      10.19763397      11.30379482       0.01066559      -0.01481006       0.01136654
S        1.71440022      10.99013972       1.11019113      -0.00063980      -0.00173128      -0.01080018
O        0.67154001      11.76391811       1.94497961      -0.00438651      -0.00351140      -0.01219329
C        2.76273467      10.15589629       2.28263813      -0.00120661       0.00712736      -0.00692829
C        2.87449814      12.23325335       0.55470331      -0.00518554       0.00478259      -0.00400979
H        2.14954449       9.48534895       2.88271300       0.01702073      -0.01634939      -0.02652851
H        3.26022938      10.86789043       2.94090106      -0.02854144       0.00708950       0.00877199
H        3.48568422       9.58173498       1.70045954       0.02647409       0.03586665       0.00038575
H        3.52692849      11.77021384      -0.18574679       0.01061186       0.00468569       0.00688963
H        3.45596925      12.60063037       1.39847813      -0.02064376       0.00862307       0.00188610
H        2.29151216      13.02525540       0.09057284       0.00255166      -0.00145043      -0.01547097
S        4.00961315       4.30212607       9.10358430       0.00142717       0.00757313      -0.00400865
O        2.59741503       3.87558379       9.29005013       0.00266790       0.01279896      -0.00700101
C        5.02469218       2.85462212       9.49202704      -0.00301191       0.00635922       0.00248909
C        4.43778427       5.29469274      10.54603637       0.00415622       0.01237237      -0.00831306
H        4.87838320       2.14392528       8.68049767      -0.00471530       0.00497710       0.00381796
H        4.68350140       2.42206264      10.43321773      -0.00871074       0.01059815       0.00242971
H        6.07774079       3.12872849       9.55519692      -0.00265444       0.00070194       0.00555311
H        5.50797996       5.49994776      10.58132488       0.00267056       0.01528548      -0.01290383
H        4.09186745       4.76487377      11.43429167       0.00868592       0.01393479      -0.00441539
H        3.92503826       6.24778213      10.42910366       0.00090179       0.00994669      -0.00907763
S        2.60720357       9.14190172       6.33954468      -0.01684260       0.00255424      -0.01971936
O        1.88735320       9.44281943       5.05750879      -0.01328325      -0.02448091      -0.02365601
C        4.33199782       8.85736980       5.89497853      -0.01357049       0.00848596      -0.00885519
C        2.22554890       7.42789266       6.78013506      -0.00125466       0.00788504       0.00983816
H        4.79541351       9.82477490       5.70522322      -0.02062082       0.01086858      -0.02317628
H        4.36906515       8.24291368       4.99577726      -0.01128950       0.00039907      -0.00674510
H        4.81588662       8.35414603       6.73106142      -0.01159696       0.02221816      -0.01023977
H        3.07427507       6.98051591       7.29268639       0.00295798       0.02463890       0.01642416
H        1.98817688       6.91655005       5.85030422       0.00754576      -0.01108038       0.01946005
H        1.34948672       7.42944580       7.41793187       0.00161901       0.00801504       0.01044944
S        8.59384654       6.69861107      11.05344643      -0.00518143       0.00302935      -0.00253540
O        7.34501436       7.52138260      11.06631890      -0.00528049       0.00002611      -0.01032826
C        9.98648364       7.80541150      10.76592271      -0.00510633       0.00431746       0.00302938
C        8.63170121       5.93164188       9.41759935       0.00452301      -0.00143367       0.00046098
H       10.10724996       8.42631114      11.65070513      -0.00865096       0.00390477       0.00226672
H        9.76086444       8.44839565       9.91596198      -0.00304161       0.00352310       0.00178596
H       10.87400354       7.20051913      10.58252743      -0.00345942       0.00482997       0.00579066
H        9.58689911       5.42739303       9.28688735       0.00494504      -0.00131261       0.00770608
H        8.46275145       6.72104644       8.68500951       0.00961835      -0.00221917      -0.00300737
H        7.81103851       5.21648629       9.37669649       0.00493629      -0.00020678      -0.00357006
S        6.39604018       8.27340920       2.60985878      -0.01126945      -0.00991714      -0.00092313
O        5.57018562       7.19325613       3.24576330      -0.00356543      -0.00794220      -0.00610298
C        6.42551022       7.91527986       0.85194419      -0.00375163      -0.00486401      -0.00332636
C        8.11385359       7.82779524       2.91606691      -0.00782412       0.00158438       0.00017533
H        5.44158094       8.13296875       0.44111344      -0.00540037      -0.00994115      -0.00398925
H        6.66112058       6.86051788       0.71182898       0.00118954      -0.00388962      -0.00358780
H        7.16475776       8.53078919       0.34357014      -0.00770831      -0.00070487      -0.00078810
H        8.75298513       8.51004874       2.35703354      -0.01010500       0.01098610       0.01346239
H        8.25922129       6.78558805       2.62597724       0.00082015       0.00526901      -0.00946490
H        8.28184605       7.96094989       3.98073862      -0.01525522      -0.01087246       0.00326647
