142
Lattice="12.258866517935441 0.0 0.0 0.0 12.258866517935441 0.0 0.0 0.0 12.258866517935441" Properties=species:S:1:pos:R:3:forces:R:3 energy=-409655.4375 stress="8.267589146271348e-05 -0.0007440167537424713 -0.0005085666780360043 -0.0007440167537424713 -0.00039850480970926583 0.00012027081538690254 -0.0005085666780360043 0.00012027081538690254 0.00033360053203068674" pbc="T T T"
Dy      14.17604636      12.69820741       0.87295504      -0.00228112      -0.00380433       0.00444841
N        3.83232429      11.97815617       2.06469202       0.00057459      -0.00325954      -0.00168818
C        4.36619783      11.28726638       2.85301657      -0.00437301      -0.00579786      -0.00028069
N        6.93271787      12.36926874      11.43455230      -0.00672921       0.01728624       0.02244976
C        7.08272690      13.46290279      11.80438891      -0.01203847      -0.01654506      -0.00231862
N       12.01833173      11.80248634       1.05688972      -0.00511336       0.00135499       0.00128229
C       11.27135785      10.99850425       0.63126394      -0.00356683       0.00767703      -0.01373141
O       11.94720693       3.78197624       3.77431499      -0.00493663       0.00063488      -0.00672895
C       11.47693420       3.83948225       2.42345505      -0.00308614       0.00609344      -0.00737581
C       11.46535397       2.43385207       1.86915536      -0.00789502       0.00767565      -0.01083285
H       10.47061976       4.26244745       2.39765079      -0.00147086       0.01002750      -0.00742180
H       12.13022502       4.49441034       1.83049687       0.00054675       0.00480223      -0.00454232
H       11.37392456       2.42174292       0.78215560      -0.00732058       0.01060913      -0.01080824
H       12.38308763       1.91873045       2.16793422      -0.00964442       0.00371585      -0.01268719
H       10.65123858       1.83484320       2.27193410      -0.00964938       0.00907522      -0.01237246
H       11.46594692       4.45125293       4.28237803      -0.00236814       0.00162178      -0.00561405
O        8.23801696       3.66572366       3.35258862      -0.00204718      -0.00423127      -0.00156695
C        8.44746319       2.45507343       4.06122596      -0.00055457      -0.00546032      -0.00413263
C        7.86882813       1.24241352       3.36464885      -0.00188139      -0.00448686      -0.00486764
H        9.52758022       2.31938906       4.23449217      -0.00016320      -0.00543623      -0.00688997
H        7.98397928       2.57949833       5.04605936       0.00155258      -0.00698806      -0.00286448
H        8.02769492       0.34595878       3.96746746       0.00042099      -0.00544643      -0.00689216
H        6.79532775       1.35622154       3.21026018      -0.00240991      -0.00500050      -0.00158192
H        8.32845079       1.08663182       2.38692584      -0.00451167      -0.00269527      -0.00635660
H        8.21795550       3.47943653       2.39034761      -0.00488463      -0.00220068      -0.00194009
O        2.23657209       0.35461269      10.77195095       0.00292447      -0.00997910       0.00503060
C        2.25134144       1.58172687      10.00806634       0.01190508      -0.00940958       0.00686109
C        2.36670765       2.71829680      10.99431355      -0.00611056      -0.01106149       0.01120992
H        3.09855505       1.56684511       9.32154421       0.02316621      -0.00552861       0.02057897
H        1.32854577       1.65089451       9.42860430       0.02082717      -0.01039081      -0.00747277
H        2.31694338       3.68833277      10.49913280      -0.00348233      -0.01033665       0.01238558
H        1.52754029       2.70491904      11.70725888      -0.01623839      -0.01584658      -0.00040790
H        3.31648209       2.67408475      11.53642484      -0.01257977      -0.00760389       0.02322923
H        2.56792386      -0.43293826      10.22769982       0.00000195      -0.01236250       0.00702336
O        2.40630695       2.52688545       2.08596189      -0.00425166      -0.01373440       0.02141094
C        3.76606552       2.78696336       2.59714556      -0.00282043       0.00265245       0.00964883
C        3.79914322       2.56803695       4.08494470       0.01151587       0.01327431       0.01108325
H        4.40852224       2.08204268       2.07476672       0.00045782       0.00554517       0.00932752
H        4.05373854       3.79047653       2.29461248      -0.01497208       0.00403118       0.00111004
H        4.82537723       2.63880681       4.44617159       0.01132688       0.04836824       0.00400674
H        3.19951338       3.31653353       4.60784203      -0.00792727      -0.00000587       0.00745085
H        3.42403777       1.57410780       4.32826535       0.04160580       0.00439698       0.02005655
H        1.80175642       3.11851056       2.55925661      -0.00643152      -0.01709515       0.02315411
O        5.66968991       4.95363202       1.04602103      -0.00699437       0.00527388       0.00136763
C        6.00675428       6.00821983       1.93842465       0.00262471       0.00663722      -0.00393516
C        5.61180181       5.72195739       3.37730744       0.01238118       0.01106863      -0.00044000
H        7.08251235       6.21175583       1.89333222       0.00288886       0.00338081      -0.01254587
H        5.49349557       6.90398983       1.57768157       0.00283679       0.00738737      -0.00230438
H        5.85493751       6.56605749       4.02549635       0.01541217       0.01342951      -0.00459783
H        4.53772319       5.55197579       3.46075021       0.01310998       0.00988958       0.00691656
H        6.13889949       4.83878629       3.74034904       0.01576941       0.01287694      -0.00107127
H        6.43429289       4.34768591       0.98713587      -0.00868360       0.00326924      -0.00205664
O        9.76961172       0.40213255       6.50745087      -0.00260454       0.00087401      -0.00552821
C        9.82027940       1.40240474       7.51764072      -0.00308684      -0.00370681      -0.00101784
C       11.12483570       2.17501083       7.48248980      -0.00548875       0.00047135      -0.00059361
H        8.96836887       2.08898941       7.43245655      -0.00542217      -0.00600848       0.00441248
H        9.70621401       0.87233441       8.46345611       0.00128199      -0.00850803      -0.00318962
H       11.15483770       2.91698436       8.28334796      -0.00578097      -0.00345784       0.00301395
H       11.96847753       1.49296276       7.59883527      -0.00302246       0.00252259      -0.00633724
H       11.24246974       2.69757613       6.52916660      -0.00972942       0.00564688       0.00167976
H        9.93007095       0.83171377       5.66233362      -0.00740776       0.00554337      -0.00399978
O        7.99430503       3.45212859      12.89416233      -0.01024899       0.00443995      -0.00085843
C        8.67173600       4.29246321      11.96775305      -0.00611886       0.00278419       0.00080198
C        9.33849666       3.53030466      10.83923379      -0.00654656       0.00150743       0.00140941
H        7.96496583       5.02111991      11.54836421      -0.00310129       0.00545096       0.00021237
H        9.41871919       4.86557884      12.53046547      -0.00516832       0.00011191       0.00244877
H        9.88632105       4.23105536      10.20414481      -0.00242941      -0.00003377       0.00336276
H       10.03730792       2.78872911      11.22823668      -0.01053669      -0.00170210       0.00225125
H        8.60338563       3.01485939      10.22253073      -0.00698096       0.00485590      -0.00093837
H        7.62673270       2.58398497      12.42192631      -0.00942565       0.00412716      -0.00090973
O       10.48135672       5.87483789       5.22831983      -0.00285235       0.00859642      -0.00729436
C        9.08238091       6.18810834       5.45808979      -0.00501459      -0.00060225      -0.00696121
C        8.49955205       5.41725323       6.61344195       0.00319791      -0.00022024      -0.00256008
H        8.98703698       7.26398800       5.62651636      -0.01292947      -0.00071996      -0.01108245
H        8.58484737       5.92096819       4.52767088      -0.00435485      -0.00827515      -0.00506261
H        7.45874330       5.71979630       6.74159213       0.00159295      -0.00652947      -0.00074174
H        8.54060386       4.34365920       6.43285579       0.00980785      -0.00078645       0.00188822
H        9.01584270       5.63437869       7.55108823       0.00423597       0.00720423      -0.00490822
H       10.96618779       6.10080209       6.02882361      -0.00391681       0.01529980      -0.00842083
O        0.99422565       6.90667147       1.72174118       0.00931460      -0.01219219      -0.00490186
C        1.85637707       6.45584425       2.76136703       0.00826350      -0.00882302      -0.00260079
C        2.05545480       7.47837820       3.86533617       0.00735754      -0.00513232      -0.00579160
H        1.47303321       5.52159473       3.19676382       0.00750262      -0.00723642       0.00024134
H        2.80800532       6.22555873       2.27530187       0.00868559      -0.01106095      -0.00076327
H        2.78989983       7.11955323       4.58984442       0.00363544      -0.00431858      -0.00166568
H        2.41519898       8.42606683       3.46318314       0.01157536      -0.00747389      -0.00773492
H        1.11562964       7.67361511       4.38423236       0.00592431      -0.00057792      -0.01010662
H        0.17450094       7.24257557       2.13781357       0.00868105      -0.01206070      -0.00634846
O        3.29588485      10.59185860       9.61958357      -0.00083610      -0.01909178       0.01442277
C        4.68826053      10.76580711      10.02190288      -0.00124330      -0.00697494       0.00912198
C        5.48244455       9.50438899       9.80628179       0.01004732       0.00067601       0.00575375
H        5.06892348      11.58973327       9.42123693      -0.01071469      -0.00320074       0.00802290
H        4.73395810      11.08440278      11.06493863       0.00006001      -0.00696273       0.00908250
H        6.49904230       9.66534384      10.16355419       0.00864711       0.00917991       0.00582673
H        5.04750793       8.66854556      10.35969926       0.01747251      -0.00433689       0.00393501
H        5.52099412       9.24090081       8.74805118       0.01201075       0.00356869       0.00511448
H        2.99244109       9.74669495       9.97604358       0.00531219      -0.01832932       0.02254674
O        3.01723734       7.74684434      -0.44917838      -0.00020522       0.01534230      -0.02195597
C        3.27320869       8.75556789       0.52847253      -0.00623816       0.00233948      -0.00638241
C        2.09960338       9.71377641       0.61656964      -0.01055747      -0.00436969       0.00354906
H        3.46026110       8.30673482       1.50678723      -0.00692007      -0.01151240      -0.01287013
H        4.19304806       9.26071736       0.23205592      -0.00769782       0.01024970       0.00270267
H        2.14898952      10.26941381       1.55729182      -0.01219813      -0.00893244       0.00646444
H        2.07761080      10.37155726      -0.26564731      -0.01658969      -0.00031639       0.00678685
H        1.16318141       9.15898324       0.62810089      -0.00796562      -0.00882538       0.00210246
H        2.25568328       7.25735968      -0.10733734       0.00443584       0.00397846      -0.02843949
O        6.57442408       3.57418801       8.62210881      -0.00086458       0.00808099      -0.01090068
C        5.58954598       4.06618269       9.52739980       0.00378695      -0.00003612      -0.00149752
C        5.46855573       5.57520811       9.49157357      -0.00255676      -0.00038713       0.00652810
H        4.61723607       3.60543226       9.30874988       0.00407547      -0.00296405       0.00326979
H        5.89750116       3.72073105      10.51505532       0.01218139      -0.00406478      -0.00544649
H        4.73937781       5.92966212      10.22224244       0.00203072      -0.00670640       0.01417267
H        6.42894463       6.03945319       9.71754963      -0.00267130       0.00261956       0.00094022
H        5.15103370       5.90826116       8.49794029      -0.01240236       0.00326998       0.01095739
H        6.33633367       3.86796214       7.73867945      -0.00396559       0.01806627      -0.00672238
O        5.73809376       7.97403604       6.08035952       0.00211978       0.00381678       0.00763083
C        5.68808263       9.39240841       5.86443381       0.00084767       0.00269419      -0.00019978
C        4.29408992       9.95041630       6.03178693       0.00183421       0.00374140       0.00497392
H        6.39074863       9.89386897       6.54037116       0.00468904       0.00663623      -0.00709945
H        6.03611919       9.55204456       4.84382312      -0.00492668      -0.00303145      -0.00319296
H        4.30101737      11.02775598       5.86734725       0.00100756       0.00261652      -0.00232114
H        3.61849956       9.51541378       5.29738232      -0.00299285      -0.00111280       0.01215401
H        3.90681317       9.76218520       7.03667171       0.00828591       0.01029656       0.00870852
H        5.30284140       7.80180444       6.92030860       0.00747298       0.00881359       0.01135547
O       10.31646860       9.26157584       8.63378718       0.00663787      -0.00781444      -0.00312400
C        9.73721849       9.06259413       9.92521438      -0.00320008       0.00395715      -0.00564307
C        9.10194797       7.69172419      10.04554627      -0.00484073       0.00532401       0.00152679
H       10.47932606       9.22671038      10.71272428      -0.00913543       0.01067023      -0.00155112
H        8.98955390       9.84819391      10.03903572      -0.00363982       0.00528681      -0.01807206
H        8.62286807       7.56525137      11.01770314      -0.01200186       0.01404264      -0.00085406
H        8.35144365       7.55484496       9.26526049       0.00057323      -0.00083261      -0.00267145
H        9.85306704       6.90311787       9.94153221      -0.00463594       0.00401118       0.01361795
H       11.10729182       8.71962146       8.58353271       0.00756846      -0.00733458       0.00834592
O       11.05277397       7.78580138       3.18536516       0.00834499      -0.00801009      -0.00966862
C        9.90188503       8.56959834       2.82824965       0.01023248      -0.00374436      -0.00568789
C        9.38790506       8.19698018       1.45802938       0.00436771      -0.00210293      -0.00389439
H        9.12283295       8.44194962       3.58541678       0.01217774      -0.00174085      -0.00339100
H       10.20903590       9.61635233       2.83399682       0.01306926      -0.00452185      -0.00638381
H        8.55198838       8.84264215       1.18092936       0.00323753      -0.00165851       0.00035274
H       10.17204398       8.35144504       0.71790651       0.00126582      -0.00234544      -0.00725894
H        9.05975196       7.15673379       1.43024735       0.00396222      -0.00200526      -0.00310034
H       10.81028088       7.11685056       3.84433146       0.00792509      -0.00337059      -0.00474755
