136
Lattice="12.924606735793015 0.0 0.0 0.0 12.924606735793015 0.0 0.0 0.0 12.924606735793015" Properties=species:S:1:pos:R:3:forces:R:3 energy=-517410.0 stress="-0.0014640323352068663 -0.0010323522728867829 0.00040451629320159554 -0.0010323522728867829 0.00034164186217822134 -0.000370039080735296 0.00040451629320159554 -0.000370039080735296 -0.000811354664620012" pbc="T T T"
Dy      11.04249300      10.84001243       1.29192642      -0.00388603      -0.01020193       0.00159544
O       11.23431136      10.70966968       5.27307984      -0.03949785      -0.01549864       0.00532961
O       11.10855130      12.20871256       3.09963619       0.03017220      -0.03069144      -0.00979444
O        8.95201908      11.82794476       4.66538976      -0.00025511       0.03065497      -0.03903031
O        9.97529852       9.94647230       3.05534941      -0.02256495      -0.00589377      -0.01294374
Mn      10.28611009      11.19182624       4.11981197      -0.00890431      -0.00639877      -0.01348150
O        2.60283690       8.11858611       7.72128630      -0.02675560       0.00253367       0.00284564
O        3.12447828      10.66876622       7.89758719      -0.01008260      -0.00249934       0.02102721
O        1.03203746       9.87455585       6.58615823      -0.00239897       0.01892251      -0.00426304
O        3.40580134       9.43707959       5.61270996       0.00446343       0.00673532       0.01839185
Mn       2.53938508       9.52907583       6.95076398      -0.00869986       0.00620143       0.00921568
O       10.80668514      13.17099500      13.22560173       0.01306260       0.00933623      -0.01463801
O        8.95087186      11.45210684      12.86745347       0.03627467      -0.00931364       0.01776433
O       11.26680805      11.08583951      11.87874962       0.02696562       0.00642157       0.00863022
O        9.67200438      13.02159690      10.76949362       0.00097787      -0.02255780      -0.01141191
Mn      10.12543715      12.25615144      12.06840653       0.01919231      -0.00150114      -0.00369254
C       11.54648910      10.91437870       8.53851343       0.01243118      -0.00115688       0.00572543
C       12.16837098       9.68930374       8.77812309       0.00525665       0.00155862       0.00652116
C       10.18598536      10.91874005       8.23734994       0.01057556       0.00627348      -0.00205224
C       12.33328922      12.18695661       8.52065888       0.01384333      -0.00186649       0.00765916
C       11.46503154       8.49809963       8.66872468       0.00530711      -0.00077918       0.00281524
C        9.47396127       9.73232635       8.13701920       0.01111139       0.00348617      -0.00630912
C       10.11817539       8.51581628       8.33303646       0.00371560       0.00713128      -0.00457669
H       13.21886869       9.66753645       9.03338635       0.00547947      -0.00374101       0.01120085
H        9.67324741      11.85720869       8.06277333       0.01620895       0.00488895      -0.00451716
H       11.80535654      12.98969176       9.03996220       0.01343673       0.00041474       0.00231209
H       13.31790764      12.05259776       8.96608346       0.01103726      -0.00452010       0.01367030
H       12.48687188      12.50383388       7.48474350       0.02275747      -0.00408632       0.00826305
H       11.97524587       7.55717164       8.83850839       0.00065203       0.00071731       0.00346087
H        8.41809984       9.76994975       7.90411827       0.01105946       0.00911250      -0.01434149
H        9.57187925       7.58589501       8.23149864       0.00439878       0.00588412      -0.00884875
C        3.69752458       3.74331853       7.98423042      -0.00662674       0.00089196      -0.01025653
C        3.59786115       2.43347462       8.45934789      -0.01135278       0.00009537      -0.01370518
C        2.69611309       4.65671748       8.31663101      -0.00919496       0.00121167      -0.00589663
C        4.86393565       4.16191525       7.13716501      -0.00667048       0.00355569      -0.00685269
C        2.53121154       2.04499519       9.25970166      -0.00800689      -0.00275043      -0.01889105
C        1.62862098       4.26825355       9.12018288      -0.00661421      -0.00087520      -0.01121696
C        1.54552302       2.96603677       9.59940720      -0.01192300      -0.00251414      -0.01401219
H        4.36810699       1.70998261       8.21345604      -0.00955619      -0.00016615      -0.01776929
H        2.76107691       5.68430308       7.96869235      -0.00602645       0.00247216      -0.00300898
H        4.95919473       5.24648320       7.11599097      -0.00985724       0.00353792      -0.00913970
H        5.79569359       3.73701014       7.51416262      -0.00656316       0.00763084      -0.00218655
H        4.74803685       3.81973869       6.10588857      -0.00130275       0.00050153      -0.00640684
H        2.47591459       1.02588540       9.62105404      -0.01279056      -0.00378999      -0.02194472
H        0.86873320       4.99512688       9.38221903      -0.00892046      -0.00157146      -0.00860632
H        0.72021010       2.66611742      10.23295836      -0.01057360      -0.00496498      -0.01849574
C        5.90546170      10.14306364       8.77817716       0.00349895       0.01105674       0.00792529
C        6.37521026      11.35558007       9.27745804       0.01043249       0.00809424       0.00712296
C        5.83319054       9.98008294       7.39458124       0.00211313       0.01429570       0.00549918
C        5.43296661       9.05024876       9.68509160      -0.00174415       0.01173708       0.00494739
C        6.75614841      12.37937963       8.41654239       0.01519759       0.00653635       0.01103643
C        6.21346628      10.99590889       6.53142631       0.00583654       0.01238093       0.00922360
C        6.67849652      12.20251674       7.04018793       0.01316693       0.01008379       0.00806138
H        6.44781666      11.49983837      10.35002796       0.01189574       0.00613596       0.00863385
H        5.45057942       9.05318687       6.98717453      -0.00286950       0.01634584       0.00517021
H        5.70011176       8.06522554       9.29749505       0.00406435       0.01169907       0.00960100
H        5.84630700       9.15434182      10.68877227      -0.01095603       0.01448002       0.00859065
H        4.34096325       9.06929298       9.75100460      -0.00218210       0.00976652      -0.00446855
H        7.13057318      13.30986521       8.82637190       0.02083550       0.00386496       0.01073063
H        6.13290742      10.84741976       5.46304010       0.00400674       0.01531956       0.00756298
H        6.98898028      12.98948419       6.36470332       0.01636043       0.00894913       0.01065061
C        0.52386734       8.03867362       3.02409641      -0.00995992       0.01068878      -0.00280941
C        0.27222108       8.13816807       4.38895984      -0.00409393       0.00638908      -0.00378734
C        0.98823009       6.82427117       2.51596385      -0.01233834       0.01372676      -0.01164767
C        0.39790784       9.27861949       2.17163171      -0.01134083       0.00972506      -0.00494865
C        0.51885109       7.06895376       5.24121719       0.00070989       0.00023390      -0.00732911
C        1.22916962       5.75064886       3.36708360      -0.00849826       0.00821111      -0.01581646
C        1.00754986       5.87407141       4.73435029      -0.00155696       0.00443538      -0.01698047
H       -0.08548603       9.06837586       4.80863095      -0.00234971       0.00427482       0.00074475
H        1.20276337       6.71892167       1.45827780      -0.01737931       0.01886204      -0.01174412
H       -0.06713386       9.08470371       1.18774466      -0.04401574       0.00838873       0.01186597
H       -0.15005443      10.03748396       2.74666939       0.01762986       0.02722193      -0.00177332
H        1.38680928       9.70351112       1.97568098      -0.01010746      -0.01285820      -0.03890195
H        0.34661236       7.19243550       6.30264802       0.00625028      -0.00434728      -0.00721395
H        1.60918274       4.81891013       2.96364662      -0.01040908       0.01118828      -0.02371213
H        1.21463113       5.04486324       5.40099589       0.00329436       0.00057619      -0.02039549
C        9.72193566       6.05211104      11.02881938       0.01766402      -0.00309584       0.00004578
C        8.92063713       7.19214900      11.08207237       0.00195041       0.02129513       0.00337479
C       10.81373156       5.96714785      11.89329612      -0.00591093       0.01047565       0.00311614
C        9.40531117       4.93205507      10.08140765       0.00592347       0.01394880      -0.00806320
C        9.15562425       8.19466959      12.01182765       0.01088101      -0.01187040       0.01371356
C       11.05724100       6.95847023      12.83463903       0.00321864      -0.02178123       0.01365592
C       10.20748938       8.05707617      12.90887678      -0.01832049       0.00240102       0.02066180
H        8.07290964       7.27671672      10.41343708       0.01660737       0.01467611      -0.00144387
H       11.45557492       5.09422093      11.85204312       0.00320726      -0.00140490       0.00120790
H        9.72601814       3.97173281      10.48651535       0.01005583       0.01025282      -0.01340911
H        8.33234042       4.87771785       9.89283307       0.00820774       0.01185352      -0.00767253
H        9.90750791       5.06702656       9.11922822       0.00775406       0.02170373      -0.00527534
H        8.51146132       9.06404897      12.05603760      -0.00094277       0.00121550       0.01874726
H       11.87608032       6.84840184      13.53494724      -0.01641811      -0.01461213       0.02018390
H       10.27688344       8.72651989      13.76569342      -0.01364816      -0.02310279       0.03111482
C        8.56968313       6.59499771       5.26182266      -0.01407272      -0.01625422       0.00516329
C        9.04636572       5.35623254       5.68766300      -0.01495342      -0.01721771       0.00832441
C        9.15413908       7.17892507       4.13885341      -0.01996510      -0.01868662       0.00631154
C        7.49273567       7.32283986       6.00270303      -0.01101926      -0.01622671       0.01176813
C       10.07654891       4.71699905       5.00752607      -0.01209494      -0.01615237       0.00385138
C       10.18839068       6.54879384       3.46592035      -0.01706912      -0.01860273       0.00156066
C       10.64949592       5.30946827       3.89070145      -0.01738229      -0.01778674       0.00763930
H        8.60803882       4.89163788       6.56415727      -0.01150279      -0.01619814       0.00680098
H        8.81717078       8.14976396       3.80058706      -0.02047911      -0.01979025       0.00278660
H        6.76726385       7.76957659       5.32259922      -0.01767637      -0.02140653       0.01530762
H        6.96020441       6.66604318       6.68980964      -0.00340632      -0.01293202       0.01997125
H        7.91530881       8.14523545       6.58139799      -0.00809471      -0.01158300       0.00306350
H       10.44209875       3.75970879       5.35808007      -0.01246615      -0.01575471       0.00745897
H       10.64811459       7.03614725       2.61835600      -0.02141362      -0.02098095       0.00201175
H       11.46761581       4.82770360       3.37350149      -0.01495326      -0.01661804       0.00525858
C        5.00578287      10.11813925       1.94992315       0.00776543       0.00871454       0.00254415
C        5.57568896       9.19967852       2.83140112       0.00569484       0.01489828       0.00045395
C        4.02773490       9.66177006       1.06591291       0.00798365       0.01785645      -0.00088301
C        5.43855203      11.55379899       1.94112843       0.01069577       0.01032454       0.00215590
C        5.18118007       7.86830622       2.83032144       0.00158522       0.00583266       0.00105438
C        3.63127172       8.33149492       1.06502789       0.00485556       0.00813513       0.00112895
C        4.20612666       7.42808040       1.94778290       0.00248439       0.01770055      -0.00118352
H        6.33487376       9.53689399       3.52780760       0.00484917       0.00832636       0.00136502
H        3.57499673      10.36002414       0.36959174       0.00980520       0.01292385       0.00048844
H        4.65134615      12.19593120       1.54528921       0.01517411       0.01072647      -0.00419087
H        5.68901121      11.89549186       2.94527683       0.00429666       0.01163515       0.00340536
H        6.32617199      11.69282436       1.31858016       0.01482561       0.00674364       0.00768262
H        5.63428827       7.16738481       3.51997328       0.00095539       0.01058169      -0.00043686
H        2.87761244       7.99508860       0.36305486       0.00499426       0.01552634      -0.00075454
H        3.90921559       6.38845426       1.93640522      -0.00066639       0.01211396       0.00053156
C        6.20835084       3.75479178      12.17452519       0.00595643      -0.01321118       0.00067999
C        5.03733373       3.98809573      11.45090348       0.00960732      -0.01638618      -0.00519921
C        6.83442537       4.84105351      12.78680013       0.00211036      -0.01591504       0.00412098
C        6.79396274       2.37586416      12.25778331       0.00625220      -0.01409510       0.00272188
C        4.52909359       5.27304527      11.31004506       0.00786686      -0.01305854      -0.00503217
C        6.31991796       6.12469117      12.66119289       0.00020718      -0.01260802       0.00326411
C        5.17619075       6.34527322      11.90733406       0.00350170      -0.01697260      -0.00098076
H        4.52068836       3.15904431      10.98286952       0.01288779      -0.01429339      -0.00847054
H        7.74104342       4.68266506      13.35995217      -0.00123356      -0.01365129       0.00834432
H        7.48318512       2.28393910      13.09584523       0.00242022      -0.01411769       0.00578427
H        6.01618666       1.61896617      12.36617467       0.00655849      -0.01457085      -0.00091511
H        7.35225611       2.13292361      11.34951241       0.01005034      -0.01351577       0.00522846
H        3.62884011       5.43492321      10.73238153       0.01009794      -0.01620932      -0.00896660
H        6.81061484       6.95392312      13.15279766      -0.00228190      -0.01472399       0.00580221
H        4.78403929       7.34557887      11.79999738       0.00217441      -0.01476881      -0.00095481
