145
Lattice="11.834866093908657 0.0 0.0 0.0 11.834866093908657 0.0 0.0 0.0 11.834866093908657" Properties=species:S:1:pos:R:3:forces:R:3 energy=-480474.9375 stress="-0.0037876495625823736 -0.0011088150786235929 -0.0003592818393371999 -0.0011088150786235929 -0.0012022203300148249 -0.0005584563768934458 -0.0003592818393371999 -0.0005584563768934458 -0.000875535886734724" pbc="T T T"
Dy      10.85196310      11.21796463      -0.13326447       0.00041908      -0.00508702       0.00863012
S        9.89061916       9.28750860       9.57762253       0.02706069       0.00372633       0.01620309
F       10.52613466       7.04194464       8.37528748       0.00907915      -0.00969186       0.01693024
F       12.20432194       8.03859322       9.30354034       0.00984920       0.00476502      -0.00089284
F       11.35692525       8.82585072       7.46559710      -0.00337091      -0.01235973      -0.00077229
O       10.39891997      10.66727228       9.35477654       0.00795752      -0.00837177       0.00509903
O       10.09402735       8.96746729      11.00060600       0.00537082      -0.00228670      -0.00179633
O        8.60120710       9.00751323       9.04061535      -0.00608307      -0.00386716      -0.00211890
C       11.08501069       8.22171464       8.63059749       0.00633973      -0.00436282       0.00521150
S        1.75770674      10.90982567      10.54966503       0.01785812      -0.00519055      -0.02887285
F        2.98552034      11.87914868      12.64202557       0.00135591       0.01566643       0.00612269
F        4.13428168      12.04893539      10.80984304      -0.01400279       0.04135063      -0.00126538
F        3.92708662      10.12383155      11.78231240       0.02009202       0.03383001      -0.01188144
O        2.14251461      10.39634039       9.28058408      -0.00535893       0.01945315       0.03626204
O        0.99967295      12.17916138      10.55419918      -0.00933274       0.00879005       0.00588934
O        1.06950473       9.98140764      11.47380405       0.00889726       0.00517595       0.01592043
C        3.30165422      11.27446133      11.49257103       0.00224322       0.02619284      -0.00038868
S        5.51092767       9.35924296       6.32583162       0.01048917       0.00239718      -0.03028116
F        5.90497807      11.97969054       6.54736371      -0.00119874       0.00133118       0.00168701
F        4.61659991      11.14872260       8.06696350       0.01648803      -0.02743429       0.00073904
F        3.86568057      11.44036610       6.05928502      -0.00108686      -0.00673683       0.01081727
O        4.25000743       8.64337718       6.13819488       0.01506066      -0.00058919      -0.02598172
O        6.27378665       8.94164799       7.47790409       0.02611858      -0.00958669      -0.04054224
O        6.28046506       9.53811688       5.10037391       0.00111920       0.02216631      -0.03319728
C        4.93760296      11.07486332       6.77504554       0.00594062      -0.00781584      -0.00166512
O        8.32165553       4.58741253      10.39304898      -0.00146085      -0.00376481       0.00617684
C        8.04737867       5.98082033      10.51175680       0.00065512      -0.00437948       0.01322989
H        7.01721407       6.20742732      10.21665950       0.00139487      -0.00160313       0.01325521
H        8.70193438       6.57420198       9.87590509       0.00226194      -0.00205484       0.01697108
H        8.21273942       6.26517298      11.54916542      -0.00003114      -0.01000822       0.01464304
H        8.21614851       4.34387725       9.44875319      -0.00096985       0.00089107       0.00483945
O        6.43219682       9.71755610       1.89512581      -0.00859459       0.01355499      -0.01698476
C        6.49405916       8.53803156       1.10044282      -0.01257142       0.00951105      -0.01067743
H        5.57083795       7.95304284       1.16539054      -0.01685283       0.01628225      -0.01269189
H        7.33969482       7.89969414       1.37007517      -0.01872745       0.00514865      -0.00285475
H        6.62472118       8.85635784       0.06492304      -0.00482082       0.00286621      -0.01172534
H        6.21303332       9.48879092       2.81212087      -0.00732920       0.01821215      -0.01533234
O       11.65274010      10.26333656       4.49272666      -0.00329193       0.00656563       0.00517553
C       11.58195303      11.60403320       5.00903051       0.01658865       0.00723950       0.00566764
H       11.73735226      11.60926364       6.08554506       0.03274613       0.00478432       0.00317094
H       10.61512967      12.06019260       4.79159523       0.01820806       0.01617354       0.01919123
H       12.37829112      12.16891270       4.52996791       0.01530039      -0.00193110      -0.00605583
H       11.24708717       9.65905598       5.12211366      -0.03719974       0.02039249      -0.00333038
O        4.53810738       5.52639686      11.30457740      -0.00177978      -0.00214440       0.00846304
C        5.17291596       4.26372987      11.14128349      -0.01300867      -0.00573528      -0.00271837
H        5.99854529       4.11924983      11.84355978      -0.01301739      -0.01865518      -0.00556907
H        5.56333153       4.12597344      10.12882152      -0.01528838      -0.00088074      -0.00421450
H        4.41242647       3.50782169      11.32668001      -0.01807812      -0.00150532      -0.00728630
H        5.17727097       6.21064684      11.09202978       0.00365651      -0.00718475       0.00984348
O        8.08712061       4.20560059       7.74852530       0.00066349       0.00421017       0.00561109
C        7.15027497       5.17466235       7.25042011       0.00275968       0.00417346       0.00252209
H        7.14947130       5.20247528       6.16434963       0.00600960       0.00394333       0.00261679
H        7.46403732       6.14813317       7.62362007       0.00196262       0.00403500       0.00329676
H        6.13542067       4.97567573       7.60459483       0.00171384       0.00465818      -0.00077441
H        7.91257015       3.34949903       7.34422433       0.00140014       0.00399581       0.00581878
O        2.32856372       3.83481586       7.14645366      -0.00811350      -0.02433021      -0.00334948
C        3.00294525       3.70842357       8.38767903      -0.00312388      -0.00525687      -0.00462830
H        3.22916545       4.68029459       8.84156447      -0.00491887       0.00173032      -0.01907548
H        3.93983162       3.15421642       8.26777269      -0.00196609      -0.00377771      -0.00015159
H        2.37347283       3.14826042       9.07845122       0.00059378       0.00280619       0.00492108
H        3.02529654       3.90405479       6.45411725      -0.01046992      -0.01515123      -0.00462767
O        9.18717939      12.20366993       7.08220614       0.01372492       0.00764513       0.01469451
C        8.68550605      11.04713841       6.42310266       0.00773591       0.01489213       0.00887486
H        7.99138293      10.48159003       7.04103131       0.00617775       0.01306322       0.00577796
H        9.49544392      10.36464505       6.13041802       0.00397962       0.01289511       0.00373828
H        8.16684546      11.37081795       5.52526437       0.00789045       0.02275488       0.01159346
H        9.62081928      11.88948046       7.88205427       0.01768017       0.00020412       0.01057015
O        5.30992562       6.42200397       5.06989910       0.00566056      -0.00553237      -0.01189172
C        5.35780443       6.75859250       3.68326531      -0.00008865      -0.00825521      -0.01248872
H        4.76137036       7.64922861       3.49448149       0.00233522      -0.00639594      -0.01116852
H        4.95601330       5.93119875       3.09778480      -0.00614807      -0.00735062      -0.00924058
H        6.39239115       6.93632684       3.38915129      -0.00093496      -0.01229344      -0.01761462
H        4.83203852       7.14611728       5.52994179       0.00900067      -0.00256075      -0.01213205
O        1.89374765       3.83962206       1.47677493      -0.00743425      -0.00110818      -0.01561341
C        3.16597778       3.69126175       2.09978986      -0.01790982      -0.01041753       0.00256139
H        3.60425540       2.71249857       1.88728271      -0.02453552      -0.01575249       0.01451738
H        3.12892179       3.82384235       3.18235206      -0.03128302      -0.00373576       0.00105494
H        3.80279175       4.46792213       1.67836650      -0.00428331      -0.01897395       0.00795275
H        1.21507862       3.35982543       1.96113711      -0.01903698       0.00847807      -0.02209082
O        3.84353040       9.90121305       3.17874834      -0.00407776      -0.00139493      -0.01784062
C        2.48814278       9.93332516       3.62687119      -0.00339697       0.00005271      -0.01622394
H        1.91534035       9.09485593       3.23784432      -0.00210273      -0.00457972      -0.00799800
H        2.01660957      10.88033641       3.34858922      -0.00517683      -0.00337633      -0.02407986
H        2.52382715       9.84873830       4.70797653      -0.00186184       0.00978861      -0.01574090
H        3.85716062       9.90655935       2.21755913      -0.00447336       0.00093877      -0.01758362
O        8.53495244       6.56526438       4.49140888       0.00528926       0.00686547       0.00265519
C        9.74248313       6.30866277       5.21321712       0.00428677       0.00877677       0.00456008
H        9.55117662       5.85670536       6.18585707       0.00341232       0.00748059       0.00362313
H       10.33714654       7.21384238       5.35349203       0.00195807       0.00979689       0.00684495
H       10.32820160       5.61237614       4.62072669       0.00680624       0.01073879       0.00520717
H        7.96775954       7.16124829       4.99432431       0.00178511       0.00280960       0.00316679
O       10.89275509       4.24299668      10.85976282      -0.00612290      -0.01339443       0.01542854
C       11.49749554       4.07958335       9.57928796       0.00433491      -0.00633942       0.01969695
H       12.34717534       4.75592438       9.48323303       0.00168321      -0.00214469       0.02852297
H       10.78580649       4.30649391       8.78225335       0.00909761      -0.00684187       0.01555750
H       11.85338965       3.05397109       9.44378894       0.00958755      -0.00427443       0.01975114
H        9.92233009       4.36605043      10.72744255      -0.00468504      -0.00982144       0.00962894
O        4.34159975       4.02215257       5.41754220      -0.00889555       0.00183412      -0.00168787
C        5.37477588       3.05426557       5.45805935      -0.00788215       0.00319204       0.00003809
H        5.75811360       2.90807885       6.47535441      -0.00631779       0.00824797      -0.00007856
H        6.20952747       3.34366123       4.81115717      -0.00949299       0.00202452      -0.00229129
H        4.96889512       2.10983575       5.10604531      -0.00690320       0.00125557       0.00454150
H        4.71723627       4.93500238       5.33614796      -0.00784747       0.00095288      -0.00464392
O        0.80635983       5.83829755       5.92652047      -0.00099522      -0.01231253       0.01133311
C        1.73458588       6.88075726       6.20010718       0.00410450      -0.01369011      -0.00170599
H        2.70679593       6.68092557       5.75265473       0.00264221      -0.02252793      -0.00122151
H        1.86678535       7.04527538       7.27317427       0.00703875      -0.00249968      -0.00402337
H        1.35563213       7.79829503       5.75229732       0.00690843      -0.01723778      -0.01070365
H        1.15659595       5.05028189       6.37881659      -0.00000084      -0.01195423       0.01096279
O        4.26959445       0.80910418       3.43399596       0.01369447      -0.01069776       0.00955275
C        5.50836047       0.82230970       2.76238192       0.00761175       0.01456886       0.00012711
H        5.47984554       0.14332154       1.90347487       0.00792158       0.02932966      -0.01109990
H        6.33270948       0.49992869       3.41178089       0.01670638       0.01536368      -0.01119366
H        5.70625946       1.83465702       2.41074952      -0.00723350       0.02207515       0.01430926
H        4.08881832      -0.12997291       3.59963832       0.02019444      -0.01583795      -0.01034558
O        7.63195765      12.49875620      12.22502402       0.03382283      -0.01207249       0.02314383
C        8.05796619      11.79219120      11.07942156       0.01015374      -0.00013342       0.00715193
H        7.27872111      11.63664680      10.32727980      -0.00143275       0.01880715       0.01534611
H        8.42314947      10.78391205      11.34309584       0.00164477      -0.00705357      -0.01042444
H        8.83670812      12.39255813      10.58967416       0.00953812      -0.00245246       0.00408979
H        6.92322653      11.99039184      12.64182743       0.03694898      -0.01330194       0.02715829
O        9.38399144       6.82133758       1.85142494      -0.01414472      -0.00457520      -0.00049863
C       10.79907544       6.73019146       1.85743564      -0.01399863      -0.00016362      -0.00548824
H       11.14461490       5.72462990       2.12125075      -0.01048154      -0.00014687      -0.01066746
H       11.25522828       7.44935860       2.55063855      -0.01413144      -0.00198960      -0.00387111
H       11.14850327       6.95980544       0.85221382      -0.01781081       0.00470234      -0.00539622
H        9.05387581       6.69796396       2.75845299      -0.00953913      -0.00172749       0.00151625
O       11.00603588       3.08707930       1.41104352       0.00548261      -0.00898236       0.01080249
C       10.87464038       1.75674099       1.03934859       0.00470434      -0.00556344       0.00037383
H       11.84331075       1.36802398       0.65284119       0.01220882      -0.01409173       0.02830389
H       10.08391078       1.64043553       0.26429381       0.03125210       0.00886690      -0.02739601
H       10.57783144       1.16654791       1.91482418      -0.03160504      -0.00851913      -0.01433688
H       11.10246795       3.60629520       0.57299043      -0.00070411      -0.00411776       0.01280686
O       10.78708637      10.40879257       2.05447931      -0.01039618      -0.00405219       0.00828761
C        9.37960700      10.12815542       2.28529373      -0.00873163      -0.00851153       0.01229528
H        9.12570338       9.15730394       1.86463584      -0.00427919      -0.01551977       0.02655825
H        8.77411007      10.91883219       1.83613533      -0.01167254      -0.01918127      -0.00037459
H        9.17176771      10.13336359       3.35417542      -0.01037034       0.00803377       0.01186225
H       11.24837836      10.26017868       2.92468963      -0.00875097       0.00651157       0.00976813
O        2.26225174       6.76642565       3.18514352      -0.00961514      -0.00580692      -0.01343286
C        2.30684157       6.95745871       1.77610075      -0.00774378      -0.00175418      -0.01267517
H        1.71926323       7.83017412       1.46959139      -0.01495081      -0.00677776      -0.01295094
H        1.96410063       6.07986250       1.23030383       0.00214414      -0.00406599      -0.01460741
H        3.34742834       7.13624383       1.50319412      -0.00866291       0.00822845      -0.00836275
H        1.53746062       6.17889719       3.41779486      -0.00461210      -0.01358918      -0.01834436
