148
Lattice="12.250552271321803 0.0 0.0 0.0 12.250552271321803 0.0 0.0 0.0 12.250552271321803" Properties=species:S:1:pos:R:3:forces:R:3 energy=-424984.1875 stress="0.001291416003368795 0.0008283926290459931 -0.0007964698306750506 0.0008283926290459931 0.00010160495003219694 -0.0002584788016974926 -0.0007964698306750506 -0.0002584788016974926 0.00012756754586007446" pbc="T T T"
Dy      11.09373159      10.43503263      -0.64498921      -0.00014065       0.00337118      -0.00582960
O        3.71669276       9.61408695       4.02686356      -0.00105810       0.00458597       0.01494306
O        5.77558634       9.98692921       4.60003169      -0.00051165       0.00299853       0.01410663
O        5.31755234       9.44560721       2.55347427      -0.00079966      -0.00570077       0.01618838
N        4.94419786       9.68550357       3.73068796      -0.00098995       0.00044769       0.01499221
O        8.16608894       8.06780232      11.73694239      -0.00297856       0.00931579      -0.01880658
O        6.90051118       9.17664927      10.37211098       0.00808072       0.01289449      -0.02703255
O        8.82365040       9.98650220      10.93602643       0.00863236       0.00563002      -0.01863351
N        7.93348658       9.06254673      11.01392327       0.00638431       0.00893313      -0.02066000
O        9.95654199      11.54919405       1.19240954       0.00023660       0.01236218      -0.00953859
O        8.58088128      13.18374479       0.78951544       0.01520658       0.03171945       0.00664183
O       10.09448434      12.64551664      -0.68090640       0.00117296       0.00999466      -0.00412488
N        9.50387414      12.48919792       0.45371352       0.02803652       0.00146016      -0.00984062
O       11.59053824       3.06495211       4.42257626      -0.01128198      -0.00421494       0.01145047
C       11.25910278       3.40069890       3.07896092       0.00270300       0.00144112       0.00966918
C       11.35521703       2.15586350       2.23390442       0.00733767       0.00447994       0.00624168
H       10.23754807       3.80606218       3.03011443       0.00436717       0.00480512       0.00105612
H       11.93855757       4.17011708       2.69552866       0.00871208       0.00091609       0.01988579
H       10.98827809       2.35819697       1.22674275       0.02007408       0.01007315       0.00274011
H       12.39029344       1.82224876       2.16562650       0.00652891      -0.00007283       0.01663683
H       10.75425811       1.35784322       2.67159022      -0.00081460       0.00516155      -0.00391960
H       11.50508659       3.87824531       4.94693324      -0.00847300      -0.00374245       0.01164833
O        7.30978906       3.28502733       3.90348911       0.00420852      -0.01403829      -0.01804966
C        7.89696445       2.28033515       4.75054216      -0.00218262      -0.00532082      -0.00341134
C        7.80580355       0.89453955       4.15635913      -0.00421716      -0.01192617       0.01240799
H        8.94397956       2.54443083       4.94331237      -0.00240737      -0.00587559      -0.00245904
H        7.35216595       2.35240459       5.69278131      -0.00589138       0.00682781      -0.00659996
H        8.30452975       0.16805554       4.79980991      -0.00653396      -0.00528540       0.02147795
H        6.77383849       0.57325228       4.03033058      -0.00431803      -0.01181444       0.01444972
H        8.29465738       0.85821533       3.18211781      -0.00240960      -0.02364872       0.01385584
H        7.66949421       3.16058517       3.01871689       0.00709416      -0.02648638      -0.01498680
O        0.51031306      -0.62407639      10.20697276       0.00504762      -0.01301581      -0.00241107
C        0.73841577       0.81892890      10.17133112      -0.00371590      -0.01222146      -0.01073918
C        1.84977311       1.24018607      11.09998182      -0.01876497      -0.00064204       0.00156522
H        0.95854491       1.07931880       9.13613004       0.00855879      -0.01867286      -0.00983790
H       -0.20722112       1.27940323      10.45350810      -0.00978670      -0.01578134      -0.02688946
H        2.03049667       2.31293169      11.00924018      -0.02647638       0.00053053       0.00247957
H        1.60299734       1.04136427      12.14230541      -0.03006601      -0.00247290      -0.00148907
H        2.77657930       0.72093921      10.85881625      -0.01225916       0.00504647       0.01528438
H        1.25933131      -1.00683891       9.70542269       0.00937879      -0.01017405       0.00075236
O        2.73674061       3.16912631       2.14178131       0.02344971       0.01515645       0.01343620
C        2.89637116       1.85826454       2.66678887       0.00369209       0.01197672       0.00792050
C        4.17634538       1.68040522       3.44995258       0.00143439      -0.01450719       0.00460762
H        2.03694358       1.61593872       3.30550870       0.00235868       0.02442552       0.01012221
H        2.88093681       1.15586963       1.82536155      -0.01046566       0.01519054       0.00569731
H        4.27747467       0.64864763       3.79244857      -0.01752398      -0.01775222      -0.00058538
H        5.04171346       1.92739558       2.83495515       0.00482167      -0.02803056       0.00442807
H        4.18559901       2.33645822       4.32320681       0.01509128      -0.02051471       0.00853756
H        3.40342582       3.74729926       2.54816610       0.03860699       0.00296602       0.00744666
O        4.92520227       4.87116886       3.22992819       0.00890190      -0.01786670      -0.01052642
C        5.62073328       5.64127433       2.24462929      -0.00547642      -0.00309893      -0.00920093
C        6.71376909       6.50352372       2.83955374      -0.00828332      -0.00286323      -0.00647646
H        6.04159429       4.97158173       1.48267795      -0.00701600       0.00786033      -0.01947427
H        4.86759389       6.26054638       1.75527182      -0.01429597      -0.00424713       0.00332464
H        7.23903088       7.03733115       2.04649625      -0.01803698       0.01254779      -0.00220641
H        6.30424466       7.25034565       3.51880461      -0.01069430      -0.01707165       0.00741802
H        7.43506443       5.88544662       3.37722890      -0.00050854      -0.00478360      -0.01944591
H        5.58719717       4.31208209       3.66394404       0.01601608      -0.01889153      -0.02242015
O       11.54984209       0.22441589       6.64678865       0.00146931      -0.00245735       0.00131953
C       10.52999203       0.82714757       7.43957996       0.00281474      -0.00297350       0.00377348
C       10.79414103       2.29226838       7.70950820       0.00052994      -0.00193268       0.00072969
H        9.55122004       0.70574140       6.95837321       0.00143659      -0.00554918       0.00705233
H       10.50404930       0.25866909       8.37316088       0.00704252      -0.00161992       0.00446674
H       10.00527037       2.71756323       8.33015112       0.00349259      -0.00355683       0.00573445
H       11.74800220       2.43262366       8.21652749       0.00369449       0.00125775      -0.00615033
H       10.82310972       2.84848710       6.77336432      -0.00752737      -0.00292629       0.00004137
H       11.66773832       0.77616196       5.86328951      -0.00101270      -0.00277346       0.00071529
O        9.44123241       5.46902438      11.92298870      -0.00286186       0.01052254      -0.00717424
C        9.81862989       4.34782863      11.12785149      -0.01113969       0.00623465      -0.00449538
C        8.66384096       3.41194117      10.85065592      -0.01953244       0.01796976      -0.00962469
H       10.27339540       4.68571427      10.18582451      -0.00323175       0.00055277      -0.00265431
H       10.60258594       3.84271504      11.69673294      -0.01958412      -0.00204381      -0.00047371
H        9.01363971       2.50082922      10.36520984      -0.02611055       0.01412278      -0.00674437
H        8.18922115       3.11093556      11.78302367      -0.02704117       0.02475729      -0.01094323
H        7.92061226       3.88145505      10.20143185      -0.01164627       0.02446301      -0.01383531
H        8.65204504       5.86814389      11.54034913       0.00254798       0.01806571      -0.01071911
O       10.88268995       5.42499880       5.78783227      -0.00146204       0.00593093      -0.00663370
C        9.47854836       5.71737238       5.68205193      -0.00229695       0.00196888      -0.00734884
C        8.64476699       5.07726871       6.76607114       0.00039083       0.00454691      -0.00367296
H        9.33275884       6.80249346       5.66569554      -0.00479499       0.00155509      -0.01212051
H        9.18814744       5.33217596       4.70465493      -0.00192529      -0.00310580      -0.00549838
H        7.58574373       5.25739021       6.58393060      -0.00032771       0.00241052      -0.00213689
H        8.79614426       4.00170282       6.78655959       0.00228670       0.00477472       0.00010118
H        8.87467713       5.48291039       7.75262924       0.00159067       0.00869926      -0.00559150
H       11.22366474       5.81803173       6.59586231      -0.00268761       0.01047601      -0.00823516
O        1.46836692       8.14933156       3.20931390      -0.00076807       0.00254786       0.01855696
C        1.70475645       6.75830732       3.37138620      -0.00138044       0.00130153       0.00802153
C        2.28586269       6.42757868       4.72992982       0.00193012      -0.00885178       0.00414169
H        0.73418289       6.26945737       3.25043040      -0.00228196       0.00314912       0.00756124
H        2.36008653       6.37864149       2.57722854      -0.00404721       0.00579032       0.00365555
H        2.37220544       5.34680329       4.85754280      -0.00035040      -0.00990909      -0.00321852
H        3.28175865       6.85684024       4.83011425       0.00328766      -0.01171575       0.00446851
H        1.65098441       6.83783123       5.51722415       0.00501761      -0.01222662       0.00840074
H        2.31611646       8.61553660       3.33081254      -0.00045363       0.00169419       0.01952711
O        2.95531778      11.20528739       8.64620599      -0.01815221      -0.00444978       0.01264238
C        4.11444598      12.05890261       8.57341090      -0.02380309       0.00260942       0.00422607
C        5.27196914      11.43770147       7.82404287      -0.02232361       0.00339147       0.00649142
H        3.83566806      13.01893872       8.12279933      -0.03100900      -0.00284043      -0.00274184
H        4.39884738      12.24594404       9.60921140      -0.02342094       0.01265203       0.00227329
H        6.09765182      12.15105768       7.77515849      -0.02609255       0.00714922      -0.00015935
H        5.63376325      10.55097154       8.34130588      -0.01681080       0.00844710       0.01138620
H        5.00928136      11.16737775       6.79865043      -0.02329944      -0.00427572       0.00883779
H        2.78590933      10.86867106       7.75933488      -0.01683111      -0.01395164       0.01595777
O        3.33282527       9.25030787       0.74270245       0.00056100      -0.00355411       0.01327240
C        2.64974136      10.44740002       0.98657565      -0.00096178      -0.00240052       0.00391667
C        1.16780082      10.20383450       0.72636788      -0.00213581      -0.00601621       0.01312780
H        2.78178049      10.77744597       2.02276948       0.00294518       0.00780141       0.00016361
H        3.00683185      11.25190779       0.32659710      -0.00401548      -0.00885546      -0.00551647
H        0.64080235      11.17472197       0.77114129      -0.00395167      -0.00700781       0.00724942
H        1.10996185       9.74492118      -0.27791701      -0.00769641      -0.01708075       0.01856474
H        0.77577320       9.51007208       1.47435778       0.00209106       0.00126775       0.02174070
H        4.09041890       9.22710172       1.36891694      -0.00320493      -0.00243849       0.01770105
O        5.70167686       4.58004938       8.38867889       0.00281262      -0.00194484       0.00788116
C        4.81934826       4.26860159       9.44934972       0.00367546      -0.00106415       0.00893661
C        3.62021633       5.19619744       9.52930422       0.00160682      -0.00352049       0.00651548
H        4.48924532       3.24091407       9.27435581       0.00637591      -0.00246191       0.01182318
H        5.34836099       4.27226083      10.41323481       0.00387990       0.00270886       0.00887895
H        2.96028226       4.89880469      10.34710473       0.00143701      -0.00363775       0.00635545
H        3.93893499       6.22335177       9.71511008      -0.00071654      -0.00247544       0.00519564
H        3.05538173       5.17782334       8.59610130       0.00267785      -0.00640316       0.00586928
H        5.97359861       5.51469199       8.46851554       0.00177118      -0.00124962       0.00559070
O        6.59240737       7.21595347       8.31486528       0.00330775      -0.00466979       0.00140607
C        6.09116019       7.87235506       7.13733532       0.00042215       0.00213744       0.00636040
C        4.59028384       8.04784375       7.16386261       0.00003511      -0.00085362       0.01009109
H        6.59261495       8.83475097       7.00581245      -0.00134945       0.00390625       0.01289237
H        6.38345798       7.24054056       6.29718561       0.00035356       0.00875995       0.00138733
H        4.26715578       8.59077655       6.27346271      -0.00278133       0.00208792       0.01284230
H        4.09139535       7.07939306       7.18791956       0.00192779      -0.00192764       0.00750042
H        4.28181389       8.61709710       8.04304451       0.00071160      -0.00491266       0.01303603
H        6.50597891       7.82498546       9.06297581       0.00997547      -0.00509089       0.00247191
O       12.13197699       9.20083555       8.09192193       0.01999854       0.01099142      -0.01296329
C       11.22479280       8.95459046       9.14798809       0.01749206       0.00627699      -0.01603135
C       10.26109988       7.80413152       8.91452336       0.02465966       0.00192821      -0.02235329
H       11.85918504       8.70313334      10.02084234       0.01432940       0.00741932      -0.01341560
H       10.63714883       9.87279454       9.34173086       0.01286630       0.00298978      -0.01661527
H        9.78485588       7.50306408       9.85005465       0.01355703       0.00584087      -0.02682838
H        9.47734151       8.07058242       8.20525591       0.03317517      -0.00476968      -0.03406630
H       10.81197775       6.94153113       8.53893052       0.03236492       0.00166038      -0.01040552
H       11.71922040       9.78538039       7.44578319       0.02497506       0.02143052      -0.00668797
O       10.60795558       8.41420134       0.44244531       0.00423217      -0.00320412      -0.01146493
C       10.85465151       7.70161209       1.69494877       0.01001151       0.00089100      -0.00997785
C       10.25093604       8.43124201       2.87072462       0.01009965       0.00118199      -0.01017371
H       10.43730534       6.70218714       1.57204261       0.01417118      -0.00119048      -0.00721374
H       11.93398022       7.62988430       1.79519750       0.01061034       0.00578777      -0.01229368
H       10.43968288       7.85596539       3.77902417       0.02106050       0.00801571      -0.00814722
H       10.70433421       9.41379794       3.00339870       0.00173749       0.00596423      -0.01778166
H        9.17315200       8.55832614       2.75720408       0.00833681      -0.00880448      -0.00443126
H        9.68122326       8.19410537       0.15249147       0.00549003      -0.00577714      -0.01012984
