139
Lattice="13.091242402283047 0.0 0.0 0.0 13.091242402283047 0.0 0.0 0.0 13.091242402283047" Properties=species:S:1:pos:R:3:forces:R:3 energy=-433753.34375 stress="-0.00048679581959731877 0.00022606550919590518 0.00024818921519909054 0.00022606550919590518 -0.00013713819498661906 0.00015450071805389598 0.00024818921519909054 0.00015450071805389598 4.759215880767442e-05" pbc="T T T"
Dy      11.67473939      13.47875267       2.37886591      -0.00989711       0.00893162      -0.00175937
Cl      13.23829796      13.93299882      13.49001929      -0.00089267       0.00566367       0.00410020
Cl      11.11782293      13.62581661       4.87155501       0.00199992       0.00317303       0.00145456
Cl       7.14193332       9.99472607      11.55417069       0.01183040      -0.03508946       0.03234473
O        5.00891281       9.01159165       8.03306541      -0.00600883      -0.00200742       0.01047832
C        4.94595911      10.42590785       7.96788851       0.00282152      -0.00177580       0.01247734
C        4.67195593       8.54584105       9.33815665      -0.00023936      -0.00273246       0.01172289
C        5.33104032      10.85588953       6.57494346      -0.00796001      -0.00274410       0.00942338
C        5.08896552       7.10239840       9.46144701      -0.00118516      -0.00300431       0.00893914
H        3.92732981      10.76070918       8.21200088       0.00780886       0.00549917       0.02345990
H        5.61960162      10.85739244       8.71952820       0.01309973      -0.00694814       0.00641632
H        5.19344772       9.14826965      10.09283933       0.00363684      -0.00404644       0.01041991
H        3.58523117       8.65846439       9.48573952       0.00085837      -0.00142793       0.01709963
H        5.26332157      11.93935882       6.46958853       0.00490979      -0.00148825       0.01357380
H        6.35640996      10.55510866       6.36753289      -0.01410131      -0.01533724      -0.00314852
H        4.67710540      10.40059701       5.82845511      -0.02236524       0.00822925       0.01562959
H        4.75174130       6.70112081      10.41778315       0.00080493      -0.00422961       0.00898907
H        4.66251348       6.49681778       8.65881625      -0.00431482      -0.00106733       0.00892149
H        6.17487618       7.02781578       9.42346646      -0.00138459      -0.00424373       0.00570867
O        0.75484031       8.00508537       4.21800547      -0.00394553      -0.00634310       0.00042201
C        1.51853803       8.21856531       3.04133034      -0.00494653      -0.00285869       0.00043845
C        1.56922682       8.02556411       5.37801132      -0.00346407      -0.00472122       0.00030553
C        0.59899347       8.16250491       1.84705725      -0.00621447      -0.00196918       0.00109923
C        0.69283472       7.89883564       6.59793716      -0.00357914      -0.00415168       0.00042447
H        2.01531389       9.19844497       3.10650821      -0.00753663      -0.00143641       0.00183694
H        2.30831008       7.45809283       2.95933546      -0.00339499      -0.00027788      -0.00154076
H        2.29432772       7.20169340       5.33828619      -0.00298390      -0.00419587       0.00091775
H        2.14557237       8.96112621       5.40439195      -0.00448722      -0.00431675      -0.00068716
H        1.15830332       8.36550268       0.93320490      -0.00738384       0.00066768       0.00098526
H        0.14063884       7.17687785       1.75965754      -0.00357927      -0.00379874      -0.00056010
H       -0.20274052       8.89564788       1.93950087      -0.00777850      -0.00514542       0.00331934
H        1.30548345       7.91933746       7.50024638      -0.00319475      -0.00382408       0.00042829
H       -0.02266322       8.71954063       6.64555392      -0.00296451      -0.00364572       0.00013171
H        0.13544281       6.96146661       6.57549968      -0.00374702      -0.00365521       0.00100927
O        1.77880612      11.82018146       4.66410674       0.00414601      -0.00273639       0.00291418
C        1.32094465      12.29911753       3.42705889       0.00384647      -0.00641535       0.00130141
C        0.75836482      11.64374622       5.64437352       0.00432454       0.00033440       0.00330049
C        2.49902801      12.36561132       2.48567739       0.00272396      -0.01018980      -0.00001365
C        1.41124041      11.39558339       6.97996056       0.00529870      -0.00208922       0.00261217
H        0.52811639      11.62091791       3.02472152       0.00338571      -0.00657958       0.00392301
H        0.87029121      13.31466635       3.57029527       0.00426313      -0.00619024      -0.00269949
H        0.12878010      12.53487383       5.68887588       0.00686786       0.00194001       0.00401587
H        0.11496345      10.80181126       5.34735092       0.00143036       0.00235972       0.00376041
H        2.20012768      12.74518598       1.51119985       0.00358886      -0.01059279       0.00054114
H        3.25624905      13.02674500       2.90440833       0.00545600      -0.01220649      -0.00060309
H        2.93564380      11.37352425       2.36987467       0.00062053      -0.01192123       0.00101047
H        0.64617326      11.24534299       7.74273736       0.00571115      -0.00358215       0.00298531
H        2.04928488      10.51351296       6.95696709       0.00522047      -0.00185423       0.00024043
H        2.02308175      12.25121297       7.26669096       0.00523607      -0.00250231       0.00351934
O        8.95414428       8.00384024       7.91896147      -0.00061670       0.00465238       0.00180811
C        8.83992414       7.31911896       6.69494650       0.00314367       0.00319889       0.00205857
C       10.13087011       8.78353643       8.00726151       0.00048122       0.00285628       0.00516552
C        7.53611639       6.56146374       6.70657230       0.00251800       0.00346643      -0.00048646
C       10.15213933       9.46850674       9.35019412      -0.00226689       0.00056028       0.00682306
H        8.87004243       8.03357690       5.85603022       0.00537293       0.00203156       0.00127262
H        9.69462214       6.63483596       6.56114430       0.00302428       0.00302821       0.00563433
H       11.01038727       8.13383621       7.87612111      -0.00044578       0.00213480       0.00643111
H       10.14833768       9.51897722       7.18719419       0.00304965       0.00443277       0.00671399
H        7.40649559       5.99882367       5.78179615       0.00470343       0.00329111      -0.00067367
H        7.51795382       5.86111125       7.54154453       0.00089493       0.00344369      -0.00041591
H        6.70159901       7.25310797       6.82875009       0.00250596       0.00313219      -0.00230670
H       11.02137982      10.12516337       9.41905597      -0.00086556      -0.00124189       0.01028782
H        9.24463401      10.05003527       9.51112459      -0.00100750       0.00164725       0.00519922
H       10.20162033       8.73428808      10.15375269      -0.00595961      -0.00097828       0.00560027
O        4.89032948       6.87462330       2.67863938       0.00098872       0.00242496      -0.00076142
C        5.03189675       7.05445475       4.07449067       0.00034769       0.00514346      -0.00125086
C        5.16162339       8.07085646       1.95859405       0.00203245      -0.00020124      -0.00452709
C        4.66650061       5.76715341       4.77333212       0.00267762       0.00469881      -0.00051427
C        4.97018148       7.82664325       0.48571986       0.00301404      -0.00590800      -0.00366187
H        6.06384411       7.34931868       4.31372818      -0.00044048       0.00742765      -0.00103304
H        4.38359050       7.87611141       4.41263918      -0.00159118       0.00420052      -0.00265925
H        4.49178892       8.86813094       2.31708929       0.00321400       0.00216943      -0.00806828
H        6.18784774       8.40180660       2.16844417       0.00239420      -0.00042680      -0.00622554
H        4.66929927       5.91101877       5.85403184       0.00167164       0.00530969      -0.00043130
H        3.67078480       5.44376522       4.46603786       0.00373158       0.00237565      -0.00109173
H        5.37151563       4.96998517       4.53709531       0.00464925       0.00620137       0.00010786
H        5.25887149       8.70876364      -0.09101373       0.01192519      -0.01124558      -0.00744317
H        5.60783345       7.00705043       0.15265775      -0.00240445      -0.01219505       0.00189365
H        3.93306147       7.56371834       0.27091902       0.00148761       0.00081987      -0.00485951
O        9.77655281       9.03806143       1.61876889      -0.00040548       0.00574304       0.00044662
C       10.10062044      10.01044523       0.64245621       0.00611401       0.00303864      -0.00021797
C        9.02518624       7.96287889       1.06179283       0.00450639       0.00341403      -0.00251904
C       10.70323889      11.20414706       1.35924077      -0.00241135       0.00716400       0.00088903
C        8.73472356       6.97892393       2.16967738       0.00318885       0.00255597      -0.00380662
H       10.82757371       9.59858151      -0.07330413       0.01422298       0.00217155       0.00810915
H        9.20974851      10.30025457       0.06728805       0.01035446      -0.00155294      -0.00813410
H        8.11199921       8.35200063       0.59440565       0.00625378       0.00117311      -0.00715443
H        9.60590884       7.48341910       0.25998930       0.01002362       0.00457019       0.00015712
H       11.08837788      11.89341924       0.59204031       0.00291230       0.00447600       0.00114730
H        9.91756720      11.67536377       1.97703303      -0.00879309       0.00826200      -0.00795466
H       11.53807046      10.86453926       1.99572161      -0.00789988       0.01164874       0.01004349
H        8.10189215       6.16875006       1.80369646       0.00448035       0.00222564      -0.00664366
H        9.66064613       6.55908179       2.56688004       0.00134288       0.00330829       0.00003222
H        8.20785524       7.46685243       2.99103005      -0.00039266       0.00114937      -0.00507130
O       11.13795558       2.74020356       2.40967045      -0.00943924       0.01088117      -0.01130226
C       10.12682098       2.95635138       1.40772691      -0.01039008       0.00546211      -0.00602641
C       11.57632832       3.98160763       3.00774658      -0.01320267      -0.00055397       0.00637668
C        9.60224140       1.61107644       0.95244634      -0.00903732       0.01365051      -0.01153960
C       12.58312700       3.72421763       4.09615267       0.02007622       0.01020572      -0.03503859
H        9.32694891       3.55442808       1.85108391      -0.01145762       0.00916643      -0.00304294
H       10.56508603       3.50970462       0.57290530      -0.01265603       0.01425140      -0.00673199
H       11.99378804       4.60587289       2.21306313       0.00400046       0.00914255      -0.02301735
H       10.68931504       4.48169396       3.40886199       0.01053610       0.00781350      -0.01155148
H        8.74275621       1.75055057       0.29859469      -0.00650567       0.00812968      -0.00879091
H       10.34454145       1.07023612       0.34795450      -0.00472917       0.01234170      -0.00873568
H        9.22360700       1.00875722       1.79567967      -0.00689192       0.00792434      -0.00895879
H       12.86449315       4.68352125       4.53452585       0.01355884      -0.00696403      -0.02113876
H       12.16666476       3.08601818       4.87332419      -0.00263816      -0.00418106      -0.00610878
H       13.48928403       3.26104472       3.70115651      -0.00822058      -0.00604869      -0.02058437
O        6.91333851       2.70738030       4.56263908      -0.00062522      -0.00018230       0.00321320
C        8.23519852       3.16789068       4.76694475       0.00112501      -0.00339033       0.00107193
C        6.52239325       2.75924171       3.20461563      -0.00133681      -0.00149034       0.00345054
C        8.58259196       3.01042978       6.22604247       0.00206345      -0.00326929       0.00113964
C        5.12294319       2.20968767       3.09257858      -0.00228077       0.00012739       0.00524345
H        8.93554699       2.58675314       4.14937401      -0.00137544      -0.00509939       0.00078955
H        8.30791397       4.22363650       4.45334371       0.00322125      -0.00360650       0.00078498
H        6.56876411       3.79773348       2.83848057      -0.00050191      -0.00196326       0.00201262
H        7.21592825       2.15933321       2.59634895      -0.00263724      -0.00301874       0.00389123
H        9.56341505       3.44075508       6.43132048       0.00506935      -0.00840794      -0.00120110
H        7.84232868       3.51429442       6.84646121       0.00617133       0.00079077       0.00158639
H        8.61196358       1.95590130       6.49660038      -0.00249092      -0.00328371       0.00197086
H        4.77745193       2.24244702       2.05923753      -0.00272915      -0.00090016       0.00506043
H        5.10879770       1.17459332       3.43343102      -0.00324702       0.00044934       0.00635025
H        4.43375031       2.78914554       3.70665734      -0.00105476       0.00152712       0.00444467
O        7.61414830      11.83027584       2.69042213      -0.00266677       0.00406086      -0.00243553
C        6.66831158      11.43864851       1.68992121      -0.00139610       0.00661951      -0.00576919
C        7.69847302      10.83608761       3.70617066      -0.01148638       0.00121691      -0.00412440
C        6.46252788      12.55742171       0.70592024       0.01230609       0.00666714      -0.01011938
C        8.53529239      11.35388873       4.84480292      -0.00398344      -0.00940561      -0.00294957
H        7.01559193      10.54500163       1.15791814      -0.00561687       0.00389349      -0.00150320
H        5.72269943      11.18898663       2.19429503      -0.00573665       0.01581243      -0.00989217
H        6.68267713      10.59607379       4.04937598      -0.01164746       0.00964561      -0.00393356
H        8.13799745       9.92317163       3.28369537      -0.01887861      -0.00147426      -0.00670218
H        5.72378815      12.24857158      -0.03207609       0.01150204       0.01005281      -0.01210368
H        6.12441835      13.46235706       1.21250751       0.01880167       0.01051757      -0.01528868
H        7.38004214      12.75736058       0.15390779       0.01614760      -0.00495618      -0.00752997
H        8.54983589      10.63293647       5.66371719      -0.01427058      -0.01404536      -0.00549786
H        9.56439381      11.52805555       4.53854355      -0.00351040      -0.01986662      -0.00037077
H        8.13810226      12.29746024       5.22062824       0.00399435      -0.00749600       0.00110506
