136
Lattice="12.690265663817899 0.0 0.0 0.0 12.690265663817899 0.0 0.0 0.0 12.690265663817899" Properties=species:S:1:pos:R:3:forces:R:3 energy=-443783.53125 stress="7.631488551851362e-05 -0.00016866542864590883 0.0004277005937183276 -0.00016866542864590883 0.00019794631225522608 0.0007762951718177646 0.0004277005937183276 0.0007762951718177646 5.5788394092815e-05" pbc="T T T"
Dy       9.86381000      11.66406365       1.72183939      -0.00156754      -0.00407858       0.00677165
O        9.82567125      12.32090979       4.23242462       0.00121188      -0.01060212       0.00129056
O       10.77225289      10.46104223       3.50646007       0.00961420      -0.01413488      -0.00657761
O       11.11548753      11.09928574       5.65801466       0.00061369      -0.00965276      -0.00350928
C       10.65896445      11.18876498       4.55092250       0.00724447      -0.00195843       0.02358943
H        9.70256152      12.86483871       5.03185493       0.00129806      -0.01002147       0.00458097
O        1.06568291      11.68184772       2.29500846      -0.01957092      -0.00056905       0.03214949
O        0.89224631      13.62854337       1.22268062       0.00898182      -0.01718020       0.00133675
O       -0.76391592      12.11694737       1.07980609      -0.00267720      -0.00290751       0.00462389
C        0.39578028      12.55408828       1.48255387      -0.00113230      -0.00526881       0.01103765
H        0.46133663      10.95245932       2.48874819      -0.02685355       0.00594252       0.03584570
O        7.04957755      10.35061222      11.87925786       0.03850886      -0.03049576      -0.00716394
O        7.54906192      12.17600492      10.71181048       0.00648636      -0.01680899       0.00221705
O        8.87703102      11.52074914      12.40961363       0.01331866       0.00286405       0.00245225
C        7.85581294      11.43227646      11.61574579       0.01605118      -0.01226497      -0.00383246
H        7.52106670       9.82073894      12.53149631       0.04478322      -0.01805928      -0.00151311
O        8.51789310       9.12389812       1.55241350      -0.01009175       0.00516096       0.00771269
O        9.92130234       7.62030733       0.82613098      -0.00557239       0.01395983       0.00141048
O        7.88247919       6.94793872       1.53743216       0.00518870       0.00186282       0.01689641
C        7.23675253       9.39589116       2.21643279      -0.01187301       0.00258040       0.00674501
C        7.21459132      10.85766096       2.57529049      -0.01069002       0.00326079       0.00381429
C        8.70478586       7.79647195       1.32539985      -0.00518721       0.00312430       0.01029909
C       10.20544371       6.23840092       0.49615671       0.00259998       0.01594585      -0.00033318
H        6.43290245       9.11567015       1.53717450      -0.00996429       0.00226714       0.00488824
H        7.20459281       8.77472330       3.10199663      -0.01159743       0.00312859       0.00709721
H        6.25691748      11.08457419       3.04688972      -0.01075418       0.00632903       0.00229165
H        7.98232043      11.08963426       3.32059404      -0.01074192       0.00387011       0.00406088
H        7.29065311      11.50351877       1.69389685      -0.00753695       0.00070274       0.00207388
H        9.99349322       5.60166965       1.35259552       0.01339708       0.01493385       0.00126287
H       11.26098098       6.20637751       0.25168655       0.00092870       0.02463444      -0.00773855
H        9.59260649       5.92392919      -0.34578038      -0.00093457       0.01166301       0.00388244
O       10.02395456       2.88227679       3.12855982       0.00398088      -0.00157318      -0.00641724
O        7.89741208       2.56010431       3.24976188       0.00312035       0.00370109      -0.00545979
O        9.10834416       1.17539866       1.97388941       0.00015378      -0.00378419      -0.00004475
C       11.37515209       2.44027337       2.75794749       0.00269534      -0.00482202      -0.00822964
C       12.32703557       3.53246482       3.14966839       0.00560206      -0.00694972      -0.00950655
C        9.02882138       2.13621440       2.73432737       0.00238029      -0.00040376      -0.00341278
C        6.74841845       1.74000614       2.98373494       0.00035600       0.00816885      -0.00825684
H       11.56524328       1.51359594       3.30197820       0.00158527      -0.00537702      -0.00851345
H       11.40214591       2.22639841       1.69359008       0.00036219      -0.00487234      -0.00826764
H       13.33340122       3.22176946       2.87383848       0.00427958      -0.00788058      -0.01289940
H       12.10507591       4.46022484       2.62272615       0.00496207      -0.00581054      -0.00747563
H       12.29033844       3.72159289       4.22331937       0.00892868      -0.00849934      -0.00916316
H        6.56078213       1.67730249       1.91375274      -0.00023707       0.01413723      -0.00846455
H        5.92883991       2.23621358       3.49012350       0.00214562       0.00801681      -0.00532912
H        6.90766224       0.75110691       3.40745829      -0.00223348       0.00556123      -0.01357506
O        5.49606624       7.01288478       4.90119800      -0.00759727      -0.00550422       0.00694807
O        7.09667629       5.55986513       4.87184908      -0.00613751      -0.00367627       0.00415385
O        7.63813607       7.75222273       4.81770613      -0.00813735      -0.00241411       0.00690447
C        5.01274938       8.36723387       4.72508122      -0.00897932      -0.00558996       0.01035920
C        3.66279963       8.48249897       5.37922179      -0.01039112      -0.00908193       0.00805056
C        6.81804930       6.86361568       4.85579218      -0.00825173      -0.00484526       0.00608607
C        8.48248220       5.25008443       4.63517661      -0.00554667      -0.00219211       0.00510407
H        5.73356403       9.05880128       5.15999722      -0.01061937      -0.00602284       0.01396707
H        4.94245897       8.53808445       3.64848028      -0.00712430      -0.00200152       0.01077032
H        3.26312511       9.48015072       5.19276423      -0.01043090      -0.00855239       0.01161703
H        2.96643300       7.75067352       4.96831326      -0.00918898      -0.00776644       0.00363010
H        3.74433105       8.34044763       6.45604252      -0.01241562      -0.01365336       0.00771159
H        8.69110425       5.35499939       3.57193079      -0.00429244      -0.00003829       0.00555611
H        8.60921845       4.21812956       4.93800202      -0.00508822      -0.00267902       0.00335757
H        9.12595140       5.91894301       5.20105878      -0.00694521      -0.00275537       0.00735627
O        9.82976235       2.39696616       8.18116479       0.01045984       0.00071690      -0.01247581
O        7.90944775       1.45424308       8.19999026       0.01119855      -0.00018932      -0.00410270
O        9.02971895       1.56501803       6.23074059       0.00776268      -0.01036748      -0.00696206
C       10.99632002       2.88962776       7.49972323       0.01167068      -0.00657460      -0.01640278
C       11.91392790       3.43544948       8.56574289       0.01224759       0.00019942      -0.02041897
C        8.91841171       1.77721952       7.42458787       0.00966950      -0.00372207      -0.00636148
C        6.76953286       0.84496829       7.56695266       0.01077341      -0.00536689       0.00086682
H       11.45125553       2.07795203       6.93042536       0.01015943      -0.01215672      -0.00953834
H       10.68404706       3.66600320       6.79595961       0.01321043      -0.01185668      -0.02288157
H       12.76752259       3.93446823       8.10725045       0.01420487      -0.00652093      -0.02423700
H       11.38432072       4.15469571       9.19153954       0.01415700       0.00751536      -0.02741873
H       12.28249635       2.63727034       9.20881950       0.00909305       0.00486739      -0.01291905
H        6.19134398       1.62096092       7.06640880       0.01056018      -0.00944555      -0.00518517
H        6.20888658       0.38810002       8.37160310       0.01088645       0.00109814       0.00450450
H        7.08881465       0.08107951       6.86206197       0.01082487      -0.01082692       0.00685772
O        8.40293113       3.74711152      11.34732184      -0.00282097       0.00473174      -0.00674268
O        7.11004442       5.47000226      11.15548989      -0.00221457       0.00594014       0.00256859
O        6.28762662       3.61134511      12.15290086       0.00203526       0.00598085       0.00624800
C        8.57706918       2.31759063      11.60474203       0.00036013       0.00471032      -0.00913969
C       10.05024049       2.02928679      11.64597774       0.00137234       0.00899006      -0.01157179
C        7.18286771       4.20870458      11.60537771      -0.00095308       0.00544405       0.00129795
C        5.83877066       6.10188973      11.39664397      -0.00068413       0.00709824       0.00807276
H        8.08991126       2.08231117      12.54844952       0.00220639       0.00210143      -0.00896496
H        8.07750680       1.76608538      10.81359604       0.00083557       0.00495318      -0.00974184
H       10.19407441       0.96782678      11.84755727       0.00511356       0.00919241      -0.01331522
H       10.51535012       2.25431242      10.68986326      -0.00047126       0.01336420      -0.01145270
H       10.55191016       2.60425320      12.42561734      -0.00016340       0.00944194      -0.01084352
H        5.03858857       5.48985824      10.98062392      -0.00301135       0.00886258       0.00984813
H        5.88451504       7.06045172      10.88894406      -0.00096746       0.00771224       0.00915597
H        5.68177646       6.23190193      12.46627350       0.00312696       0.00596495       0.00882447
O        7.15651159       6.22561631       7.99729679       0.00270782      -0.00956634       0.00714571
O        5.00949594       6.18129408       7.85422689       0.00270942      -0.00974532       0.00759893
O        6.13185541       4.21070115       7.82248930       0.00314907      -0.00923562       0.00396115
C        8.44218836       5.56772856       8.06172480       0.00278819      -0.00984961       0.00647168
C        9.49063115       6.64655028       7.94883272       0.00252515      -0.00926343       0.00851607
C        6.10765194       5.41354049       7.88598009       0.00317836      -0.00990224       0.00609080
C        3.79968795       5.46053510       7.60157556       0.00308898      -0.00950421       0.00498173
H        8.50445337       5.01913052       9.00119700       0.00266653      -0.01146758       0.00544494
H        8.49662607       4.85104215       7.24318665       0.00324520      -0.00845495       0.00528926
H       10.48039374       6.19282871       7.88210315       0.00277306      -0.00909947       0.00719991
H        9.32803326       7.25729149       7.06027128       0.00259579      -0.00666159       0.01029104
H        9.47924363       7.30160794       8.81947707       0.00261130      -0.01156481       0.01058580
H        3.84453913       4.98746210       6.62101209       0.00292116      -0.00467493       0.00263509
H        3.01049971       6.20627904       7.62549041       0.00259437      -0.01012826       0.00889246
H        3.63589744       4.70215427       8.36569975       0.00405838      -0.01322123       0.00141430
O        1.84144897       6.52807188       1.46279041      -0.00222911       0.01362681       0.00023746
O        2.85719780       4.65507744       1.80015979      -0.00831068       0.01071465       0.00398643
O        4.08550785       6.55993943       1.77943832      -0.00232816       0.00677830       0.00115947
C        1.87582526       7.96272956       1.27015619       0.00333869       0.01305091      -0.00294263
C        0.46506278       8.40224175       0.98763657       0.00545609       0.01727284      -0.00696672
C        3.03555561       5.96984178       1.69010978      -0.00428969       0.00996140       0.00179271
C        4.06100481       3.89872759       2.03238091      -0.00973544       0.00782056       0.00305535
H        2.28106296       8.42843393       2.17037291       0.00239323       0.01400734      -0.00312173
H        2.55112033       8.18562677       0.44279998       0.00643390       0.00849403      -0.00164244
H        0.44579243       9.47166239       0.77453927       0.00881358       0.01757909      -0.00533507
H        0.07153028       7.88312413       0.11423349       0.00625173       0.01829919      -0.00800082
H       -0.19227540       8.20900213       1.83592250       0.00360622       0.01780228      -0.00822462
H        4.74731509       4.00480169       1.19412299      -0.01114428       0.00517285       0.00155762
H        3.72508291       2.86889896       2.12173040      -0.01200324       0.00875136       0.00528606
H        4.54168642       4.23941429       2.94986650      -0.00723492       0.00834027       0.00150266
O        3.80444903      10.15997427       9.85149144      -0.00469130       0.00587899       0.00209203
O        5.68102087       9.13160904       9.53576261      -0.00528347       0.00811091      -0.00705459
O        5.19587104      10.91378238       8.23332985      -0.01459116       0.00617564      -0.00589764
C        2.98450245      11.32971220       9.63641989      -0.01192439       0.00063703       0.00070801
C        1.77648928      11.20371134      10.52538651      -0.00522655      -0.00101440       0.00947869
C        4.92543376      10.14285140       9.12228257      -0.00824279       0.00719213      -0.00458890
C        7.01942848       9.15607909       9.01179742      -0.00893675       0.00566567      -0.01697236
H        3.58157337      12.20989093       9.88343435      -0.01520839       0.00531438      -0.00857361
H        2.72231409      11.38900828       8.57871805      -0.01911371      -0.00703210       0.00216687
H        1.15759111      12.09676928      10.43777417      -0.01223986      -0.00628069       0.00669335
H        1.17755992      10.33646933      10.24703776      -0.00073092      -0.00758842       0.02019612
H        2.07472250      11.10531727      11.56853498       0.00212269       0.00940685       0.00832129
H        7.01936677       8.92435474       7.94934593      -0.01706218       0.00066698      -0.01595789
H        7.54401549       8.38017012       9.55862666      -0.00518379       0.00832981      -0.01719968
H        7.46167205      10.13275346       9.19607253      -0.00737878       0.00627863      -0.02406214
