148
Lattice="12.426717140697349 0.0 0.0 0.0 12.426717140697349 0.0 0.0 0.0 12.426717140697349" Properties=species:S:1:pos:R:3:forces:R:3 energy=-516485.6875 stress="0.00022820697631686926 -0.0009084901539608836 0.0003353419015184045 -0.0009084901539608836 8.81020532688126e-05 -0.00029243045719340444 0.0003353419015184045 -0.00029243045719340444 -0.0009451351361349225" pbc="T T T"
Dy      10.19792330      12.13084095      -1.10090014      -0.00422184       0.00306552       0.00932630
O       -0.30688613      12.14134959       0.00747768       0.00841641       0.01189193      -0.00806704
O        2.32125542      11.98541434      -0.04206746       0.00823164      -0.01138166       0.00531060
O        0.95456705      10.00555037       0.94469523      -0.01842799       0.03059399       0.00344793
O        1.10751640      12.24500356       2.23321840      -0.00514740       0.00736350      -0.00273538
Mn       1.05114566      11.58139464       0.79882527      -0.01261729      -0.03174926       0.00668037
O        1.30852481       8.50666332       7.30112085       0.03662229      -0.02779190      -0.00185883
O        3.35346796      10.03132909       7.79510303       0.01511800      -0.01317430       0.00836116
O        3.68239188       7.43851669       7.66800499       0.03538501      -0.00544155       0.01223052
O        2.36772473       8.51729120       9.66190858       0.01853022      -0.01755809      -0.00347877
Mn       2.69105685       8.63087508       8.10154895       0.02117507      -0.01782608       0.00805858
O        8.46687548       9.13154613       9.51127625       0.00412527       0.02134550      -0.01746899
O        8.13896193      11.46664732      10.61799588      -0.00304194       0.00033167      -0.00025630
O        6.39260847      10.59649252       8.84212323      -0.02060592      -0.00041101       0.00822127
O        8.80118084      11.32908822       8.10906575      -0.02515918       0.02118880       0.00004780
Mn       7.90975134      10.60490126       9.23192107       0.01701096       0.00397301       0.00258434
O        5.39375213       5.26903438       8.78389120      -0.03084153       0.01823550      -0.01768410
C        4.55651112       5.00053741       9.90715366      -0.00901139       0.00690917      -0.00738913
C        4.58157659       6.15860492      10.89404722      -0.00685048       0.00074273       0.00011414
C        3.14644903       4.66097615       9.44471482      -0.01096332      -0.00547627       0.01113662
H        4.99875219       4.11562227      10.38306923       0.00495112       0.00852460      -0.01674333
H        3.97285556       5.94369836      11.77459594       0.00131804      -0.00756590       0.00334260
H        5.60479190       6.35212927      11.21950085      -0.00629078       0.00605404      -0.00615286
H        4.17989481       7.05975348      10.42846433      -0.01587813       0.00173509       0.01050781
H        2.49716925       4.42861355      10.29091708       0.00503644      -0.01744285       0.01916641
H        3.16713977       3.80532286       8.76805758      -0.01146595      -0.00069864       0.00536447
H        2.72781176       5.51449842       8.90962366      -0.02827176      -0.00760967       0.02253802
H        5.00249648       6.03775864       8.33431247      -0.03860216       0.02396755      -0.00539248
O       10.48717667       9.76664744      11.26392493       0.00880504       0.00473338      -0.01440873
C       11.72681877       9.45359587      10.50894129       0.00669955       0.00435393      -0.01566976
C       11.58142360       8.09839994       9.87421508       0.01008431       0.00155443      -0.01066518
C       11.94149986      10.58654958       9.51440917       0.00144346       0.00082192      -0.01999921
H       12.51969459       9.44598104      11.25406260       0.00802433       0.00880635      -0.01730478
H       12.48099705       7.87089944       9.30470206       0.00527465       0.00460365      -0.01966055
H       11.43717406       7.32983862      10.63521918       0.02262967       0.00201556      -0.00773583
H       10.72328399       8.08874398       9.20479094       0.00355034      -0.00634706      -0.00202473
H       12.29711406      11.50265390      10.01632119      -0.01657517       0.00766132      -0.02046349
H       11.02685099      10.77033507       8.93407039       0.00493740      -0.01157000      -0.02725118
H       12.72380955      10.33241766       8.79708700       0.01167436       0.00889204      -0.01127742
H        9.75225032       9.34800401      10.76187082       0.00651204       0.00795245      -0.01726250
O        9.68198898       4.76889343       7.13066235      -0.00959700      -0.00546062      -0.00830662
C       10.47236112       5.95516217       7.28398824      -0.00731501      -0.00734693      -0.00477114
C       11.76421266       5.89735784       6.48433599      -0.00598967      -0.00850267      -0.00234091
C        9.67133078       7.20825755       6.96183625      -0.00385034      -0.00515145      -0.00395108
H       10.72792650       5.96526435       8.34667126      -0.00896077      -0.00938012      -0.00432295
H       12.41759161       6.72909388       6.75959526      -0.00089394      -0.01502055       0.00491551
H       12.29241441       4.96281584       6.67452868      -0.01281099      -0.01349281      -0.00952411
H       11.57031140       5.96936056       5.41118225      -0.00273969       0.00077727      -0.00202030
H       10.27725397       8.10287540       7.11146907      -0.00190553      -0.00692727      -0.00110298
H        8.77413109       7.28267175       7.57517285      -0.00477441      -0.00355199      -0.00552629
H        9.37164052       7.20859446       5.90895447      -0.00219464      -0.00215213      -0.00424451
H        9.20536224       4.80786487       6.29061297      -0.01254469      -0.00085658      -0.00575921
O        2.74010164      10.20416988       4.37373183       0.01322362       0.02382445      -0.01312762
C        3.05642422       8.83064313       4.15210940       0.00609855       0.01967120      -0.00298858
C        1.80647427       7.99922838       3.92923817       0.00226778       0.02305129       0.01085719
C        4.01572482       8.68587585       2.97813190       0.00002062       0.00734346      -0.00581759
H        3.54541740       8.50501539       5.07443718       0.00934923       0.02475083      -0.00306690
H        2.05765253       6.94775844       3.76918724      -0.00126331       0.02115741       0.01831273
H        1.13486819       8.07150254       4.78293739       0.00816593       0.03094031       0.01460212
H        1.29693074       8.36369987       3.03299170      -0.00211402       0.01731317       0.01142745
H        4.20156292       7.63316606       2.75825847      -0.00154321       0.00543040       0.00275371
H        4.96784528       9.17551752       3.19242911       0.00164962       0.00733706      -0.01412605
H        3.57622266       9.13558093       2.08352581      -0.00321293       0.00013744      -0.00760016
H        2.14843824      10.49654462       3.67238024       0.00498927       0.01811044      -0.00693333
O        9.74371031       1.10088234       9.38906115       0.00481777      -0.00304201       0.00562739
C        8.84577156       2.23520004       9.66643561       0.01113454       0.00125803      -0.00141796
C        7.42444743       1.96546746       9.22992415       0.01083326       0.00521775       0.00113583
C        8.94994531       2.44219243      11.16235458       0.01519039       0.00946207      -0.00281107
H        9.24906612       3.09659349       9.12958423       0.01399070      -0.00440830      -0.00786680
H        6.80680297       2.82817266       9.48576386       0.01996136       0.01889494      -0.03342997
H        7.35891507       1.82983568       8.15236308       0.01209665      -0.03282044       0.00810006
H        7.02089656       1.07819468       9.71830710      -0.00463587       0.02835074       0.02573529
H        8.42476087       3.33993590      11.48847171       0.02433516       0.01160930       0.00155822
H        9.99400865       2.55916452      11.47237784       0.01528691       0.00827674      -0.00400162
H        8.45991337       1.61620522      11.70299669       0.01191291       0.01542921       0.00254116
H        9.39749972       0.57158919       8.64123440      -0.00085409      -0.00741987       0.00869495
O       11.73995833       6.48450826       2.49783985       0.00418639       0.00519100      -0.00195351
C       10.57887934       7.30910830       2.44147914       0.00001121      -0.00074261      -0.00346152
C       10.83831010       8.70175485       2.98923576      -0.00885293      -0.00175488       0.00246829
C       10.00841213       7.33630888       1.03537539       0.00416201       0.00128186      -0.00514334
H        9.86401849       6.79878803       3.09253637       0.00039604      -0.00741643      -0.00812915
H        9.90839622       9.27291424       3.03363186      -0.01154517      -0.00611626       0.00163738
H       11.26671927       8.65527517       3.99002094      -0.01173062      -0.00379233       0.00356190
H       11.53423231       9.23986320       2.34110755      -0.00921884       0.00361551       0.00651288
H        9.08162203       7.91280245       0.99644357       0.00099237      -0.00380220      -0.00548679
H        9.80410205       6.32352695       0.68605088       0.01052109       0.00154589      -0.00912010
H       10.71955993       7.81016334       0.35988326       0.00320843       0.00758348      -0.00159165
H       12.47302375       6.97095238       2.10659462       0.00369491       0.01165900       0.00482926
O        9.22392134       3.19386614       2.36245948      -0.00337124       0.00380883       0.01067488
C       10.65210180       3.21387046       2.28943770      -0.00361574       0.00266320       0.00919293
C       11.28902530       3.43344264       3.64768419      -0.00193030       0.00420561       0.00816995
C       11.08886772       1.89122637       1.69977206      -0.00587666       0.00134140       0.00988372
H       10.96976451       4.03003591       1.62500173      -0.00362015       0.00166458       0.00817525
H       12.37432596       3.48438582       3.55006884      -0.00200872       0.00470501       0.00703575
H       10.96143208       4.37356925       4.08528674      -0.00175016       0.00450398       0.00740884
H       11.03070748       2.61834788       4.32498304      -0.00096817       0.00571999       0.01039778
H       12.13650425       1.91266877       1.41010326      -0.00737271       0.00134419       0.00426024
H       10.48544209       1.67690929       0.81284573      -0.01065990      -0.00092328       0.01373759
H       10.95092513       1.07813727       2.41286097      -0.00150517       0.00331079       0.01268451
H        8.94353958       3.87662627       2.99366498      -0.00209329       0.00371091       0.01211413
O        5.98368803       2.82151387       5.30524557      -0.00048470      -0.00871140       0.00531459
C        6.70012514       1.62185199       4.96616261      -0.00212395      -0.00879771       0.00421014
C        8.16664866       1.73216050       5.34990418      -0.00094253      -0.00977418      -0.00155026
C        6.02040192       0.40273781       5.55972748       0.00008965      -0.00866604       0.00673369
H        6.63807883       1.57028148       3.87827977      -0.00607596      -0.00978184       0.00443959
H        8.71508038       0.85561580       5.00070183      -0.00277900      -0.00935641      -0.00524760
H        8.61007155       2.61983708       4.90623196      -0.00213385      -0.00962448      -0.00253471
H        8.29177680       1.79259202       6.43213671       0.00374111      -0.01116249      -0.00209557
H        6.54494031      -0.50612683       5.26314712       0.00133812      -0.00764327       0.00604762
H        4.98586757       0.32941248       5.22362179      -0.00068158      -0.00940286       0.00960857
H        6.02202403       0.44127603       6.65220916       0.00265170      -0.00768188       0.00690442
H        5.93547085       2.88476776       6.26507533       0.00693701      -0.00502451       0.00576498
O        6.60263880      11.87974426       2.35323546      -0.00081456      -0.00623646       0.00710279
C        7.35245128      10.86659053       1.68904347      -0.00085014      -0.00461030       0.00393701
C        6.59297687      10.30863288       0.50139918      -0.00364280      -0.00598104       0.00618887
C        8.68124150      11.52730472       1.33629802      -0.00422567      -0.00178957      -0.00152911
H        7.56684116      10.04891497       2.39471398       0.00363246      -0.00436872       0.00262511
H        7.18156165       9.56108811      -0.03399776      -0.00376897      -0.00451560       0.00426457
H        5.66998858       9.83142812       0.83427612      -0.00133581      -0.00780608       0.00913972
H        6.33962999      11.10293622      -0.19876123      -0.00731584      -0.00608939       0.00735061
H        9.34777923      10.79246777       0.86438423      -0.00583209      -0.00197271      -0.00328999
H        9.16129668      11.90767995       2.23772188      -0.00169941       0.00098447      -0.00414577
H        8.45855661      12.39115338       0.69032732      -0.01023668      -0.00422718      -0.00263348
H        5.71396651      11.54541815       2.51957378       0.00261980      -0.00830910       0.01385153
O        3.75479244       4.76650578       2.15727558       0.00912938      -0.00275743       0.00711948
C        3.76946305       3.56145939       1.37746197       0.00425899       0.00148559       0.00145940
C        4.69511197       2.53008517       1.99523839       0.00519454      -0.00276005      -0.00753549
C        2.36282859       3.02155056       1.17961581       0.00238597       0.00494137       0.00468062
H        4.16902717       3.87885372       0.41068346       0.00077629       0.00559764       0.00167054
H        4.72521349       1.62065472       1.39317747       0.00109312       0.00013797      -0.01197778
H        5.70856422       2.92159663       2.08575086       0.00609565      -0.00457942      -0.01046858
H        4.34612996       2.25808835       2.99503891       0.00907221      -0.00698688      -0.00749153
H        2.37308580       2.16975665       0.49678430      -0.00218208       0.00812994       0.00050870
H        1.70640140       3.79557080       0.77890020       0.00274573       0.00801623       0.01075678
H        1.95289880       2.66981626       2.12964394       0.00545269       0.00138763       0.00447832
H        3.50492439       4.52008091       3.05411169       0.01333178      -0.00646956       0.00762728
O        8.31943837       5.12091518       4.37426647      -0.00030452       0.00105289       0.00518125
C        6.97848261       5.58894274       4.05369372      -0.00276032      -0.00781581       0.00324960
C        6.34710047       6.24964983       5.26106303      -0.00527510      -0.00350848      -0.00078559
C        7.03931626       6.48759667       2.83570034      -0.00792111      -0.01644841      -0.00294590
H        6.43656191       4.67324826       3.82534573       0.00218961      -0.01255327       0.01007156
H        5.31110987       6.52211308       5.05260927      -0.00668417      -0.01000337      -0.00171598
H        6.35639688       5.57342082       6.11512887      -0.00205613       0.00322403       0.00434622
H        6.87954132       7.16303981       5.53663205      -0.00977615       0.00097533      -0.00715610
H        6.03771614       6.73488657       2.49150544      -0.00944135      -0.02613496      -0.00505620
H        7.57080981       5.99784254       2.01906338      -0.00432996      -0.01879801       0.00087193
H        7.55214837       7.42541117       3.07457989      -0.01412071      -0.01154369      -0.00956716
H        8.88666820       5.89973124       4.40610519      -0.00370214       0.00456879      -0.00233018
