150
Lattice="13.359487511901193 0.0 0.0 0.0 13.359487511901193 0.0 0.0 0.0 13.359487511901193" Properties=species:S:1:pos:R:3:forces:R:3 energy=-433947.28125 stress="-1.1431203347456176e-05 3.940783426514827e-05 0.00022322794393403456 3.940783426514827e-05 -0.0002806315605994314 0.00032947906584013253 0.00022322794393403456 0.00032947906584013253 0.0007993377512320876" pbc="T T T"
Dy      12.87282479      12.12410870       0.92042379       0.01727919       0.01430471       0.02541661
Cl       1.95455866      12.84616930       6.49006156       0.03837785       0.00779390       0.02983221
O        1.37437275      11.96351742       5.44011060      -0.01697844      -0.01767051      -0.04184759
O        3.20752459      12.31645579       7.13203339      -0.03516936       0.01332632      -0.02721480
Cl       4.82677186      13.45309576       5.52840621       0.02145743      -0.03071454      -0.02578044
O        5.24620177      12.42064978       4.53336386      -0.01005292       0.03219730       0.01242435
O        3.57954445      14.20363572       5.13554431      -0.01969290       0.01446545      -0.01318623
Cl      11.81915418      13.29391724       4.28803597       0.00015050       0.01510227      -0.02752501
O       11.81312606      12.47312186       2.84109763      -0.04043511       0.01172529      -0.01692628
O       11.80837945      12.37011444       5.48429134      -0.02182619      -0.00492609      -0.01760638
C        1.68642555       7.10856648       8.63144768       0.00029981       0.00037730      -0.00160661
C        2.71955942       7.49786743       7.58151170       0.00246996      -0.00069514       0.00073072
C        1.98498414       5.76966987       9.29718713      -0.00221264       0.00187781       0.00167286
C        2.42998740       8.82314156       6.88733669       0.00626495      -0.00142279      -0.00087976
C        0.94804713       5.36781523      10.33690610      -0.00360471       0.00447509       0.00049666
C        3.44381285       9.14683203       5.79912892       0.00717494      -0.00320156       0.00047439
H        1.62743917       7.89223484       9.39583843      -0.00111259       0.00213900      -0.00228572
H        0.69419873       7.06777262       8.16599680       0.00148326       0.00060131      -0.00334007
H        2.78098975       6.70382983       6.82797574       0.00415290      -0.00227270       0.00174674
H        3.71135737       7.54432318       8.04750638       0.00201976      -0.00079636       0.00299215
H        2.04912294       4.99507073       8.52593034      -0.00078156       0.00046146       0.00262314
H        2.97583483       5.81297271       9.76190457      -0.00273740       0.00194294       0.00371146
H        1.42200761       8.79803995       6.45861867       0.00543165      -0.00200860      -0.00386004
H        2.42166673       9.63001066       7.62625733       0.00381739      -0.00090578      -0.00265929
H        0.89034983       6.10575097      11.14011133      -0.00554888       0.00489393      -0.00130357
H        1.18195614       4.40199396      10.78755255      -0.00578611       0.00434640       0.00214680
H       -0.04534324       5.29275256       9.88887547      -0.00358662       0.00361536      -0.00179407
H        4.45354297       9.21069234       6.21032538       0.00661609      -0.00285999       0.00252245
H        3.44897684       8.37128883       5.02807600       0.00885288      -0.00353926       0.00112030
H        3.22427352      10.10260496       5.32560602       0.00976402      -0.00269556      -0.00061445
C        9.71159518       8.33299184      12.84314105       0.01116174       0.00341275       0.01418580
C        8.49398580       9.24632050      12.77633212       0.00688279       0.00890280       0.00933389
C        9.37059204       6.85245766      12.72299991      -0.00273651      -0.00672708       0.00664618
C        8.84500121      10.72892972      12.85593340      -0.00544158      -0.00096515      -0.00776672
C       10.60713977       5.96592316      12.67025927       0.00346047       0.00039920       0.00045492
C        7.64950215      11.64278977      12.61770468       0.00831380      -0.00859529       0.00849460
H       10.40697675       8.60642992      12.03950506       0.00899543       0.00055850       0.00537676
H       10.24923548       8.50455816      13.78427707      -0.01646637      -0.02706223      -0.01337862
H        7.79118119       8.99071141      13.57816345       0.01636718       0.01157540       0.00719681
H        7.95845482       9.05948217      11.83744489       0.00146174       0.00627298       0.01047972
H        8.73514412       6.55850245      13.56493463       0.00590636       0.00108250       0.00013369
H        8.77023748       6.69618227      11.82062917      -0.00114711      -0.00618604       0.00380674
H        9.29501595      10.94457487      13.83486833       0.02230664       0.01004913       0.00462130
H        9.62238356      10.94572735      12.11558272       0.01098017       0.00512102      -0.01084349
H       11.22256876       6.20838127      11.80093062       0.00231031      -0.00342520       0.00849940
H       10.34627689       4.90877034      12.60617533       0.00032142      -0.00579113      -0.00041467
H       11.22948625       6.10389815      13.55707819      -0.00834321      -0.00492887       0.00676721
H        7.23960016      11.48346241      11.61752363       0.00041505      -0.00163466       0.01706682
H        6.85196525      11.44224650      13.33637437       0.01537985       0.00313371       0.01381630
H        7.91748590      12.69735973      12.70157866       0.00711629       0.00469643       0.00344269
C        6.89110036       2.83034824       8.72045851      -0.00005291      -0.00192466      -0.00197625
C        5.62853490       2.16402171       9.25295081      -0.00003910      -0.00236574      -0.00247437
C        8.15928716       2.37830945       9.43681298      -0.00010743      -0.00190911      -0.00155839
C        4.35451336       2.62031167       8.55102196      -0.00015886       0.00015140      -0.00150427
C        9.41063885       3.09801025       8.95170717       0.00029337      -0.00329137      -0.00268446
C        3.09778244       2.02122383       9.16768671       0.00015292      -0.00329524      -0.00416316
H        6.98778361       2.62819713       7.64704813       0.00018737      -0.00250600      -0.00202242
H        6.79035560       3.91858147       8.81503877       0.00012203      -0.00207040      -0.00245968
H        5.54039811       2.37125869      10.32635940      -0.00033110      -0.00227410      -0.00202104
H        5.72142491       1.07540154       9.16253298      -0.00079383      -0.00138691      -0.00305634
H        8.03750053       2.53940363      10.51331204       0.00035654      -0.00049035      -0.00177205
H        8.28014496       1.29849227       9.30341521      -0.00052136      -0.00227058       0.00000885
H        4.29787623       3.71371285       8.58454512      -0.00024327      -0.00092313       0.00004275
H        4.40456166       2.35486413       7.49000327       0.00109620       0.00159658      -0.00268847
H        9.55554765       2.95135325       7.87947498       0.00029153      -0.00547004      -0.00279614
H       10.30650927       2.73873740       9.46051409       0.00004721      -0.00294726      -0.00230235
H        9.33766711       4.17354593       9.13003438       0.00059695      -0.00298026      -0.00506097
H        3.12852715       0.93068329       9.12928412       0.00024463      -0.00222522      -0.00780908
H        3.00040687       2.31550579      10.21549326      -0.00087478      -0.00562014      -0.00354896
H        2.19717051       2.34952053       8.64554804      -0.00010401      -0.00122367      -0.00387314
C        9.18299550      10.38803068       5.31526964      -0.00393772      -0.00242084       0.00018053
C        8.75457036       8.93575472       5.15278765      -0.00272042      -0.00285313      -0.00174017
C        8.12546126      11.24009805       6.00967877      -0.00583303      -0.00266682      -0.00246523
C        9.79866972       8.05224114       4.48137317      -0.00140041      -0.00117511      -0.00130887
C        8.51281455      12.70969487       6.12236368      -0.00294314      -0.00300741      -0.00065461
C        9.34889967       6.60334649       4.35218716      -0.00000389      -0.00153953      -0.00384252
H       10.12454398      10.43936151       5.87100534      -0.00509939      -0.00221212       0.00043631
H        9.40763069      10.81638499       4.33060599      -0.00219121      -0.00208554      -0.00009370
H        7.82042422       8.89235511       4.57927437      -0.00201038      -0.00286140      -0.00318582
H        8.51818926       8.51757185       6.13791566      -0.00329589      -0.00397973      -0.00218681
H        7.18093259      11.15460017       5.46766221      -0.00306070      -0.00078811      -0.00348219
H        7.93729762      10.83412510       7.01007768      -0.00729441      -0.00340255      -0.00171250
H       10.02980250       8.45687335       3.49032822       0.00102655       0.00117549       0.00019556
H       10.73232432       8.09968851       5.05131723      -0.00251696      -0.00047225       0.00059068
H        9.46761378      12.83003131       6.63745918      -0.00368124      -0.00451137       0.00195621
H        7.75668516      13.28064003       6.66675701      -0.00311334      -0.00194208      -0.00085324
H        8.62174967      13.15998317       5.13305644      -0.00074977      -0.00318165       0.00072524
H        9.12939946       6.17289697       5.33235337      -0.00060733      -0.00244549      -0.00383325
H        8.43667627       6.52924895       3.75596068       0.00062118      -0.00320183      -0.00425994
H       10.10925694       5.98022422       3.87814520       0.00067283      -0.00174771      -0.00283244
C        4.49311039       4.13013704       4.59971262       0.00165009       0.00448781       0.00204474
C        3.26978173       4.93804808       4.18449842       0.00107537       0.00325105       0.00051564
C        5.73661710       4.40450097       3.76258254       0.00187712       0.00416538       0.00138152
C        2.01778241       4.56035831       4.96979026       0.00094490       0.00131422       0.00003651
C        6.92878341       3.56029082       4.19638507       0.00141075       0.00373483       0.00198719
C        0.81501442       5.42989221       4.62983360       0.00015208       0.00091520       0.00021247
H        4.71469646       4.33125563       5.65498587       0.00115102       0.00407645       0.00105423
H        4.24968760       3.06615609       4.54200021       0.00177408       0.00354046       0.00086527
H        3.07762266       4.78877518       3.11486676       0.00171986       0.00403680       0.00085136
H        3.47174265       6.00879691       4.31089852       0.00043646       0.00313312       0.00130396
H        5.51089438       4.20446971       2.70983701       0.00247841       0.00404371       0.00147581
H        5.99281680       5.46795426       3.82147992       0.00152018       0.00404641       0.00171302
H        1.78515794       3.50794637       4.78114191       0.00172829       0.00145477      -0.00135112
H        2.23138723       4.63003923       6.04155298       0.00055606       0.00109474       0.00024086
H        7.19191541       3.76038526       5.23742328       0.00092547       0.00405307       0.00239184
H        7.81235675       3.75904546       3.58804538       0.00182159       0.00415406       0.00276427
H        6.70175507       2.49478065       4.11535648       0.00165252       0.00405617       0.00195287
H        1.01981333       6.48202383       4.84164673      -0.00054802       0.00149155       0.00119865
H        0.56222937       5.35239428       3.56975313       0.00081760       0.00226303       0.00059156
H       -0.06753385       5.14260033       5.20402500       0.00058533       0.00015114      -0.00014323
C        3.43801420       9.06854575       1.71006977       0.00058812       0.00081185      -0.00050797
C        3.41360639      10.56251084       2.00144681      -0.00377667      -0.00051621      -0.00361900
C        4.84847306       8.54976292       1.45635551       0.00287855       0.00082746      -0.00356904
C        2.02292613      11.10295556       2.31055749      -0.00127995      -0.00179726       0.00435984
C        4.88245723       7.08168053       1.05860197      -0.00082509      -0.00113252      -0.00261296
C        1.98908872      12.63066158       2.33052612      -0.01052016      -0.00287944      -0.00400349
H        2.99075043       8.51880928       2.54615166       0.00389676       0.00168027       0.00050640
H        2.81271006       8.85489224       0.83262113      -0.00190909      -0.00230760       0.00004527
H        3.83278788      11.10245106       1.14302486      -0.01043579       0.00066373      -0.00651884
H        4.06196577      10.79426237       2.85114088      -0.00363907       0.00756516      -0.00775129
H        5.31185797       9.15576485       0.67067438       0.00091811      -0.00095329      -0.00499114
H        5.45070379       8.70942266       2.35682440       0.00215966      -0.00032137      -0.00519699
H        1.33198885      10.66408431       1.53789805      -0.00632380      -0.01207242       0.01842006
H        1.66666731      10.71953993       3.26942286       0.00557794       0.00448698       0.01190716
H        4.42231298       6.45867194       1.82669932       0.00158240      -0.00003900      -0.00022638
H        5.90344605       6.72579359       0.91069813       0.00004512      -0.00038182      -0.00256836
H        4.33444514       6.91715851       0.12805095      -0.00099155      -0.00195805      -0.00084424
H        2.74229962      13.00255123       3.03017373       0.00523585       0.00597969      -0.01974830
H        2.22923070      13.06113759       1.34554194      -0.03144584      -0.00783984      -0.00939065
H        1.03952888      13.04998596       2.71261600       0.00364212      -0.00392951       0.01961973
C       11.38019700       9.59558449       9.11741611       0.00100982      -0.00154045      -0.00981577
C        9.90550023       9.21562902       9.06346712      -0.00161481      -0.00113478       0.00327509
C       11.61872173      11.07342331       9.41004483      -0.00205112      -0.00358984       0.01094600
C        9.66635479       7.72157681       8.87649216       0.00090474      -0.00082606       0.00173409
C       13.08823338      11.46099647       9.33729277       0.00079629      -0.01160669       0.02847081
C        8.18973872       7.34736712       8.86997823       0.00127620       0.00086656       0.00049281
H       11.88915522       8.98809984       9.87657935       0.00767033      -0.00339589      -0.00045380
H       11.85499990       9.34165157       8.16263509      -0.00442034       0.00159636       0.00398296
H        9.42436667       9.76415373       8.24706538       0.00023489       0.00258081       0.01068279
H        9.40793293       9.54713795       9.98297254       0.00769097      -0.00478139       0.01138356
H       11.04466714      11.68003381       8.70156461       0.00209601      -0.00321449       0.00438708
H       11.22471721      11.31172876      10.40548005       0.00415321      -0.00193449       0.00631934
H       10.13484440       7.39672620       7.94082712      -0.00080593       0.00271121      -0.00241488
H       10.17896005       7.17395801       9.67553392       0.00015953      -0.00342640      -0.00325960
H       13.68994774      10.86151057      10.02601674      -0.01120252       0.01287456       0.01721923
H       13.24209978      12.51317161       9.58529317       0.00359112      -0.00940396       0.00594942
H       13.47454321      11.29410983       8.33001588       0.00775235       0.00439078       0.00156409
H        7.71207467       7.62610092       9.81163475       0.00124624      -0.00001907       0.00128993
H        7.65468249       7.86282454       8.07040338      -0.00078000       0.00680752       0.00170949
H        8.04463438       6.27500310       8.72825980      -0.00216873       0.00661397      -0.00317317
