142
Lattice="12.814502894393684 0.0 0.0 0.0 12.814502894393684 0.0 0.0 0.0 12.814502894393684" Properties=species:S:1:pos:R:3:forces:R:3 energy=-481077.3125 stress="0.0005490428302437067 -0.00021168257080717012 1.9312911661018006e-06 -0.00021168257080717012 0.0015092877438291907 0.0005940139817539603 1.9312911661018006e-06 0.0005940139817539603 -0.001234171213582158" pbc="T T T"
Er      11.61006201      11.76487233       1.84751479      -0.01092650      -0.02988517       0.00193249
P        5.24372857       5.48047875       8.96564357       0.00269667       0.00621678      -0.00312576
O        6.15179226       4.11878514       8.82637372      -0.00164855       0.00305367      -0.00238407
O        4.30838248       5.25811782       7.69986690       0.00126803       0.00802058      -0.00143063
O        4.47590047       5.42284569      10.25082671       0.00302851       0.00827801      -0.00085115
O        6.21576297       6.60695206       8.77144870       0.00504315       0.00289011      -0.00312738
H        5.61554408       3.36072401       9.07658568      -0.00280000       0.00488979       0.00028554
H        3.50505344       5.84810794       7.53790757       0.00115427       0.00948393       0.00060887
P        5.67743472      10.36490147       4.33877772      -0.00128436      -0.01708704       0.03475513
O        6.56712651       9.18106541       3.64408177       0.00190991       0.00391853       0.00066611
O        6.84009573      11.43719725       4.78201258      -0.00746727       0.01190287      -0.00788409
O        4.86133830      11.02540771       3.28824698      -0.01620626       0.00717092      -0.02451801
O        5.10910242       9.77500951       5.58378641       0.00161204       0.01439437      -0.01960635
H        6.71770477       9.40556508       2.72022716       0.00203925      -0.00102516       0.00224707
H        7.02796952      11.29232660       5.71635162      -0.00409640       0.00563535      -0.00479627
P        2.08972017       7.28628533       5.71538664       0.00197987       0.00489923       0.00278652
O        3.53630774       7.64959420       5.15139614      -0.00872612       0.00197892      -0.00442725
O        1.69803751       6.11294692       4.63781828      -0.00353664       0.00052857       0.00918591
O        2.19939317       6.58701031       7.04718988       0.00156599       0.01419711       0.00527120
O        1.10722194       8.39295414       5.56782475      -0.00677109       0.00599551      -0.00108677
H        3.99562670       8.47920786       5.44061314      -0.00063053       0.00853983      -0.00190157
H        1.95410171       5.27484985       5.03613413       0.00489230       0.00352001       0.01031883
C        6.50099215      10.33367850       9.27756740       0.00162233       0.00438222      -0.00858435
C        7.04918070       9.54633951       8.27251550       0.00368071       0.00284815      -0.00658043
C        6.94431641      11.63485116       9.48367224       0.00132732       0.00420408      -0.00873150
C        8.07679138      10.06805740       7.49152107       0.00568015       0.00249755      -0.00491491
C        7.95807010      12.16053008       8.69048961       0.00326847       0.00337707      -0.00686244
C        8.53274399      11.36721202       7.70062023       0.00507385       0.00204031      -0.00511492
H        5.71175694       9.93182900       9.89559789      -0.00007683       0.00492214      -0.01013079
H        6.67743277       8.53476314       8.12588118       0.00413522       0.00288546      -0.00606669
H        6.49381250      12.23901346      10.26088036      -0.00005797       0.00529830      -0.01032208
H        8.50710618       9.46330507       6.70312497       0.00741029       0.00112987      -0.00318412
H        8.28804272      13.18196158       8.83869515       0.00354629       0.00332715      -0.00664784
H        9.32906169      11.76742930       7.08385006       0.00723976       0.00157904      -0.00315016
C       10.65819079       8.84299413      11.27603708       0.00062852       0.01621431      -0.00092839
C        9.92097433       9.95606123      10.88688523       0.01044592       0.01971939      -0.00956329
C       11.75639945       8.98354291      12.11330933      -0.00233373       0.01107801       0.00335767
C       10.29379827      11.22265666      11.31546393       0.01475094       0.01889940      -0.01069006
C       12.14732737      10.24805757      12.54761831       0.00563679       0.00983047      -0.00359526
C       11.41326515      11.37874050      12.13615385       0.01213652       0.01396373      -0.00662114
H       10.38660680       7.86424009      10.89842147      -0.00370020       0.01691635       0.00201327
H        9.06066058       9.83847833      10.24016384       0.01483250       0.02211897      -0.01525080
H       12.34793300       8.12693844      12.39730235      -0.00908466       0.00963120       0.01186153
H        9.72521155      12.08202353      10.98830186       0.02090937       0.02120603      -0.01706750
H       13.08900125      10.33241235      13.09820255       0.00395048       0.00847793      -0.00021999
H       11.79019367      12.39487406      12.31818165       0.01399102       0.01199119      -0.00275011
C       10.39951633       4.51733732       8.42870698       0.00550975      -0.00324342      -0.00318949
C       11.61666615       5.00462587       7.95980748       0.00592485       0.00247633       0.00331573
C        9.30776506       5.36632619       8.56848219       0.00261861      -0.00727019      -0.00383847
C       11.75236697       6.34643974       7.62041242       0.00269797       0.00414445       0.00949382
C        9.44601239       6.71166701       8.24511496      -0.00085737      -0.00544620       0.00235340
C       10.66079922       7.19620171       7.77031343      -0.00024504       0.00015408       0.00887844
H       10.29109020       3.46568470       8.66997828       0.00813721      -0.00459920      -0.00781636
H       12.46864608       4.34508905       7.84831805       0.00834289       0.00561623       0.00374398
H        8.33979261       4.99915720       8.88643615       0.00253242      -0.01162519      -0.00839976
H       12.70086299       6.72018617       7.25271621       0.00300094       0.00819336       0.01385178
H        8.57323905       7.34412950       8.34335686      -0.00330570      -0.00887495       0.00211214
H       10.76623788       8.23903137       7.49291169      -0.00262590       0.00161736       0.01361516
C        2.45225869       9.16132005       2.46346144      -0.02348161       0.01732041       0.00301108
C        3.19542624       8.36750340       1.59737294      -0.02109876       0.01785779       0.00339950
C        1.10324789       8.87805115       2.66673242      -0.02432811       0.00756899       0.00909156
C        2.60508572       7.31180782       0.91125946      -0.01481578       0.00917274       0.01078297
C        0.51710496       7.79726968       2.01302392      -0.01441652      -0.00341425       0.01249196
C        1.26139117       7.02638345       1.12706901      -0.01081181      -0.00487718       0.01690311
H        2.96268184       9.94533494       3.01193150      -0.02827269       0.02384382      -0.00095351
H        4.25576606       8.55499615       1.49746696      -0.02311285       0.02915578      -0.00075188
H        0.56516238       9.39623322       3.45660150      -0.02704570       0.00520803       0.00547621
H        3.19081143       6.69880396       0.23566339      -0.01032884       0.01001844       0.01546943
H       -0.50907721       7.52689132       2.22897627      -0.00993772      -0.01079077       0.02221207
H        0.80542407       6.17815622       0.62727563      -0.00093209      -0.01906673       0.03297349
C        9.91851470       0.86755653       1.75818656       0.00223660      -0.01460695       0.00990560
C        9.74730212       0.25247270       3.01523231       0.00394471      -0.01372793       0.01145262
C       11.14813185       1.46267281       1.42585423       0.00331413      -0.01770300       0.00569912
C       10.81673576       0.23658122       3.92963983       0.00847036      -0.02622474       0.00282088
C       12.22430566       1.42333279       2.32947244       0.01033629      -0.03060443      -0.00414977
C       12.05694446       0.80713818       3.58501543       0.01198269      -0.03161326      -0.00384367
H        9.08661093       0.95307940       1.07228595       0.00023194      -0.01406438       0.01111083
H        8.78011045      -0.13362171       3.31671720      -0.00126478      -0.00529309       0.01545139
H       11.24095564       2.01546915       0.50070785       0.00393865      -0.02683471       0.00087527
H       10.65677496      -0.15173564       4.92532478       0.01022977      -0.02562491       0.00530956
H       13.13673883       1.96290667       2.10598505       0.01371846      -0.03782560      -0.00707340
H       12.84791041       0.86050424       4.32005398       0.01558295      -0.04405861      -0.00966979
C        5.71819125      11.45831260       0.56253180       0.00573267      -0.00621453      -0.00568423
C        5.50433634      10.26642907      -0.11257438       0.00327581      -0.00262470      -0.01036388
C        6.94707879      11.71319135       1.16281138       0.00477289      -0.01062727      -0.00321180
C        6.50581772       9.29962868      -0.16198100       0.00187880      -0.00519955      -0.01308024
C        7.94932487      10.75658248       1.09654645       0.00371362      -0.01316223      -0.00583315
C        7.72886666       9.54332686       0.45000524       0.00118056      -0.00967428      -0.01082816
H        4.91558112      12.17360564       0.67208000       0.00659610      -0.00454238      -0.00351140
H        4.54418837      10.06417781      -0.56955948       0.00389512       0.00124183      -0.01297548
H        7.07702978      12.62695292       1.72681227       0.00615183      -0.01365378       0.00110631
H        6.32684564       8.36073123      -0.67127283       0.00002616      -0.00226250      -0.01722362
H        8.90804341      10.92939477       1.59254250       0.00305018      -0.01671670      -0.00302480
H        8.50874985       8.79442459       0.42857066      -0.00028766      -0.01177727      -0.01284815
C        6.72029395       4.60445803       2.30230108      -0.00812450      -0.00034326      -0.00050559
C        6.31389011       3.27629145       2.29752979      -0.00335878      -0.00169957       0.00255970
C        5.84462143       5.59858324       2.71676663      -0.01084315      -0.00221244      -0.00144338
C        5.02714721       2.93859364       2.69767722      -0.00202290      -0.00512519       0.00460568
C        4.55498971       5.26998055       3.12132779      -0.00993283      -0.00576165      -0.00057240
C        4.15201740       3.94038905       3.10617162      -0.00536549      -0.00701850       0.00219367
H        7.72813761       4.85716592       1.99984559      -0.00919074       0.00303454      -0.00198049
H        7.00153979       2.50506265       1.97329139      -0.00072388       0.00010321       0.00345340
H        6.16749363       6.63167535       2.76748436      -0.01461364      -0.00114185      -0.00280411
H        4.71229006       1.90159943       2.70099408       0.00102524      -0.00600547       0.00867610
H        3.88728615       6.04166089       3.48154519      -0.01265675      -0.00721756      -0.00244360
H        3.15067974       3.68258028       3.43029991      -0.00501317      -0.00934309       0.00168122
C        6.43110309       1.94808857      11.76711090      -0.00388293       0.00413138       0.00522455
C        7.78570398       1.64838670      11.64474381      -0.00476148      -0.00133851       0.00683365
C        6.01072828       3.26906940      11.80230160       0.00077698       0.00570101       0.00014519
C        8.71771053       2.67647670      11.57065809      -0.00142600      -0.00463933       0.00329208
C        6.94464572       4.29593953      11.73159241       0.00436637       0.00215673      -0.00361007
C        8.29544704       4.00175730      11.62658746       0.00339709      -0.00308308      -0.00216978
H        5.70821853       1.14307102      11.82013559      -0.00677250       0.00690132       0.00791153
H        8.09936547       0.61258246      11.59620540      -0.00852247      -0.00263454       0.01056219
H        4.96194061       3.52960726      11.83660879       0.00165763       0.00970706      -0.00089771
H        9.77043701       2.45259582      11.43598254      -0.00190911      -0.00856110       0.00446965
H        6.58710135       5.31539811      11.70068974       0.00789653       0.00331348      -0.00779710
H        9.01901227       4.80161943      11.53757116       0.00616679      -0.00596158      -0.00556447
C        6.85079739       5.39814501       5.77301363       0.00539926       0.00435239      -0.00416160
C        6.88021762       4.00972008       5.80791670       0.00535515       0.00471827       0.00040615
C        7.96271233       6.09831191       5.32236955       0.00537319       0.00327247      -0.00738898
C        8.01532227       3.32389048       5.39378112       0.00507039       0.00283626       0.00221058
C        9.10580373       5.41755387       4.91982306       0.00508913       0.00115800      -0.00579670
C        9.13230327       4.02755961       4.95573096       0.00492191       0.00155991      -0.00103980
H        5.96633562       5.92048259       6.10980544       0.00590301       0.00589959      -0.00503226
H        6.01329717       3.47651061       6.17068780       0.00555368       0.00589053       0.00302431
H        7.92709958       7.17973118       5.28581201       0.00550707       0.00274697      -0.01104594
H        8.02843185       2.23978092       5.41490630       0.00530215       0.00315675       0.00654637
H        9.98290603       5.96717619       4.60146304       0.00493576       0.00005738      -0.00838539
H       10.02954372       3.49817419       4.65467379       0.00463527       0.00014142       0.00041208
C        1.78270392      10.16749180       8.50071649      -0.00124194      -0.00300500      -0.00805974
C        3.11135538       9.76877026       8.59499044      -0.00128873      -0.00423852      -0.00925678
C        0.77669408       9.35640050       9.01007087      -0.00061789       0.00408131       0.00447693
C        3.43047521       8.56323455       9.20870362      -0.00146830       0.00130784       0.00142658
C        1.09867258       8.14578571       9.60876589      -0.00039405       0.00940165       0.01473443
C        2.42444632       7.74575996       9.71184828      -0.00064036       0.00780293       0.01331931
H        1.52952810      11.08705106       7.98877217      -0.00165663      -0.00837345      -0.01691893
H        3.88639181      10.36584108       8.13220293      -0.00242046      -0.01096418      -0.01910901
H       -0.26113935       9.64469585       8.89493084      -0.00044851       0.00513883       0.00588759
H        4.45245877       8.20131630       9.22890647      -0.00195280      -0.00002354       0.00035173
H        0.30786811       7.47861508       9.92853754      -0.00012210       0.01376909       0.02420853
H        2.70279162       6.77766222      10.11324804      -0.00092426       0.01055112       0.01956092
