136
Lattice="12.707650306280314 0.0 0.0 0.0 12.707650306280314 0.0 0.0 0.0 12.707650306280314" Properties=species:S:1:pos:R:3:forces:R:3 energy=-483312.65625 stress="0.0010870876722037792 -0.0002881427208194509 0.0011115034576505423 -0.0002881427208194509 -0.0011460146633908153 -0.000278123450698331 0.0011115034576505423 -0.000278123450698331 0.0005618229624815285" pbc="T T T"
Er      13.81373749      10.73930559       1.51568741      -0.00435146       0.00875959      -0.00559501
B        2.91772578      12.67516676       0.76542544      -0.01620579       0.01692298      -0.01258628
F        3.18824933      13.70347379      -0.02621039      -0.02398556       0.01773328      -0.01459739
F        1.60681144      12.88277060       1.47325110      -0.01125103       0.01191748      -0.00503697
F        2.53875085      11.47693899      -0.01141954      -0.01416343       0.01509193      -0.01136114
F        3.81150839      12.30816297       1.71145864      -0.00915781       0.01915575      -0.01785463
B        0.18534752      11.36147520       4.19745631      -0.01748140       0.00375465      -0.01068521
F       -0.23058040      10.55608470       5.18445574      -0.02901421       0.00687732      -0.01291913
F       -0.58714102      11.04985431       2.94079256      -0.01187523       0.00997002      -0.01416948
F        0.16321275      12.68482002       4.41449396      -0.00716263       0.00418010      -0.01153056
F        1.51852135      10.94833100       3.72684433      -0.01667188      -0.00594746      -0.00272609
B        7.25785361      10.94366133      11.51251110       0.00878685      -0.02629620       0.01040770
F        7.18917047       9.61306682      11.07425195       0.02090568      -0.02166224      -0.00461280
F        6.81650952      11.01505546      12.84480842      -0.01834434      -0.04018480       0.00225711
F        8.59791985      11.38912573      11.42834328       0.00924599      -0.02247709       0.04359829
F        6.44674453      11.74904294      10.69178254       0.02391493      -0.02027857       0.00210464
O       10.64757938      11.46641725       9.08816486       0.01012623      -0.00498471       0.02066994
O       11.52204252      11.41636852      11.07542369       0.01253688       0.00156453       0.01857077
O       10.80456857       9.47264678      10.15428469       0.02744463      -0.00474966       0.01904444
C       10.00993430      10.79799757       7.96580881       0.01312828      -0.00875813       0.02133116
C        9.53447815      11.84495814       6.99683578       0.01069716      -0.01012099       0.02138653
C       10.94659207      10.66383310      10.09465939       0.01788431      -0.00283480       0.01928323
C       11.62237054      10.73669983      12.31004015       0.01062754       0.00666516       0.02085152
H       10.74536012      10.13587387       7.50947167       0.01601440      -0.00660232       0.02258332
H        9.18886882      10.20316089       8.36707225       0.01515043      -0.01138684       0.02183992
H        9.12373061      11.34856295       6.11639977       0.00757786      -0.01039907       0.02278657
H        8.75046647      12.45845760       7.43486898       0.01271217      -0.00931484       0.02418745
H       10.35019798      12.49082982       6.67200267       0.01055464      -0.01092391       0.01925651
H       10.69824253      10.20920166      12.54458995       0.00699958       0.01571126       0.02713586
H       11.77500784      11.52983256      13.05884658       0.01802793       0.01090512       0.01488681
H       12.45561133       9.99055561      12.27751438       0.00430372      -0.00112382       0.02155752
O        9.24571231       8.22444624       6.19898580       0.00374934       0.00297557       0.00549351
O        7.29723957       9.17759626       6.03544780       0.00338419       0.00258583       0.00506814
O        7.72674204       7.89095307       7.84214283       0.00240937       0.00059372       0.00442255
C       10.19648234       7.43542647       6.97382446       0.00209159      -0.00016992       0.00288919
C       11.51799192       7.49975182       6.25637714      -0.00131166      -0.01024421      -0.00446594
C        8.06350436       8.37158356       6.79345480       0.00305712       0.00239298       0.00506186
C        6.03663892       9.48725077       6.66015645       0.00322414       0.00238524       0.00401114
H       10.24963872       7.85507139       7.97891364       0.01044628       0.00219598       0.00132126
H        9.80855737       6.42116965       7.03915992      -0.00316054       0.00226134       0.00814733
H       12.24340512       6.87718519       6.78164429      -0.00062721      -0.00765280      -0.00242680
H       11.42504080       7.13080518       5.23366213      -0.00773063      -0.01890199      -0.00076158
H       11.90579034       8.51541442       6.21784116       0.00092185      -0.01128870      -0.01546717
H        5.37914029       8.61842803       6.63120145       0.00588000       0.00012979       0.01025555
H        5.61722459      10.30372730       6.07962191       0.00015797      -0.00265089      -0.00105257
H        6.19442882       9.78772886       7.69384133       0.00309995       0.00978160       0.00182259
O        5.55297878       5.02286706       2.71540824      -0.00350957       0.01387733      -0.00234585
O        6.87356584       6.35918374       1.65777923      -0.01238197       0.01475005      -0.01354110
O        4.64075418       6.62691313       1.39674514      -0.01431561       0.00644934      -0.00320071
C        4.22107706       4.58007777       3.05409788      -0.00115298       0.00785929      -0.00061655
C        4.32272193       3.50925462       4.10936597       0.00498620       0.00344720      -0.00548154
C        5.60024015       6.05896734       1.86584736      -0.01032352       0.01161909      -0.00622392
C        7.11494176       7.38161555       0.66039259      -0.02054718       0.01298541      -0.01812916
H        3.65226527       5.43781359       3.40964051      -0.00367999       0.00428948       0.00417595
H        3.75011770       4.20571610       2.14313246      -0.00240020       0.01037194      -0.00099581
H        3.31966163       3.14437146       4.34012091       0.00752328      -0.00645539      -0.00897353
H        4.91619300       2.66440248       3.76189143       0.01275781       0.01030226      -0.00893537
H        4.75971462       3.90406109       5.02577415       0.00075343       0.00197992      -0.00278544
H        6.55940711       7.16871312      -0.24713330      -0.02972972       0.01224415      -0.01227257
H        8.18370493       7.34784277       0.47671536      -0.02256274       0.01139647      -0.02879899
H        6.83947147       8.36466350       1.03311616      -0.01527345       0.01406869      -0.01698904
O        9.40422903       2.23393458       9.14022352       0.00801805       0.01955468      -0.00250584
O        7.31225995       1.79935047       9.14318857       0.00990292       0.00873410       0.00791264
O        8.29128393       2.28911933       7.15875386       0.00189599      -0.00772466      -0.00064409
C       10.63000726       2.65582256       8.51946153       0.00549299       0.01304896      -0.01220825
C       11.75969088       2.02017247       9.29186359       0.00874355       0.01538548      -0.01537856
C        8.32541139       2.13441889       8.35561368       0.00639845       0.00526145       0.00297737
C        6.04790504       1.59896660       8.50280851       0.01012464      -0.00557462       0.01180146
H       10.61958300       2.35922208       7.47168792      -0.00205523       0.00631852      -0.01004368
H       10.66070339       3.74741765       8.56968357       0.00845358       0.01328772      -0.01979402
H       12.71457006       2.42222861       8.95292747       0.00770591       0.00302135      -0.03232078
H       11.65809486       2.22699916      10.35705554       0.02275629       0.03190366      -0.01740974
H       11.75761785       0.94024710       9.16201256      -0.00153378       0.01343140      -0.00014182
H        5.55672067       2.56089102       8.34496242       0.00857623      -0.00950015      -0.00619376
H        5.48769394       0.98083024       9.19370146       0.01134983       0.00628957       0.02295735
H        6.18035594       1.10154371       7.54314602       0.01120733      -0.02318391       0.02117583
O        7.23820159       3.91390425      12.45236411       0.00297219      -0.00874081       0.00745952
O        5.13216782       4.31806971      12.36319785       0.00691873       0.00824746       0.00497280
O        5.85376768       2.26751377      11.71323921      -0.00950396       0.00044370       0.00435400
C        8.40612384       3.08674243      12.23741645      -0.00209704      -0.01636404       0.00879055
C        9.56059001       4.04184741      12.05431558       0.00253019      -0.02158982       0.00769454
C        6.06280720       3.36972699      12.13486053       0.00005783       0.00382030       0.00691918
C        3.79151492       3.89888240      12.09980994       0.00373076       0.02082747       0.00261884
H        8.53756088       2.45640470      13.11886486      -0.00884013      -0.01935124       0.00809562
H        8.24146719       2.44696352      11.37419846      -0.00469916      -0.01461434       0.00781119
H       10.49380880       3.48652336      11.96512694       0.00147821      -0.02381672       0.01121521
H        9.43101236       4.63874792      11.15095004       0.00430513      -0.02631591       0.00422271
H        9.63641342       4.71949871      12.90626416       0.00322553      -0.01612882       0.00348465
H        3.71141282       3.46433232      11.10324488      -0.00011824       0.02984224      -0.00095439
H        3.18803852       4.79832071      12.18791649       0.01093242       0.02481756       0.01053690
H        3.47829550       3.14877313      12.82004582      -0.00138745       0.01683664      -0.00363618
O        8.04708849       5.06351702       6.50191602       0.00277421      -0.00315554      -0.00183512
O        7.60305268       5.16808734       8.60937831       0.00170703      -0.00416467      -0.00186425
O        5.87976962       5.17683595       7.13986896       0.00311053      -0.00117809      -0.00262246
C        7.61761330       4.79695190       5.14981521       0.00294268      -0.00090236      -0.00251305
C        8.84072824       4.80516498       4.27364034       0.00316915       0.00136057      -0.00221187
C        7.06248280       5.14285484       7.39498605       0.00110924      -0.00255409      -0.00234626
C        6.69653780       5.60233247       9.64162768       0.00120874      -0.00737783      -0.00088146
H        7.12351555       3.82539325       5.14213647       0.00338167      -0.00110221      -0.00427882
H        6.89738530       5.55674421       4.85095417       0.00283489      -0.00064197      -0.00137442
H        8.53863214       4.60072401       3.24663106       0.00328064       0.00492303      -0.00303562
H        9.32678721       5.78079524       4.29738374       0.00352596       0.00108115       0.00143617
H        9.54943553       4.04351993       4.59905793       0.00290488      -0.00006188      -0.00507253
H        6.33650108       6.60299540       9.42404089       0.00405391      -0.00529438       0.00363205
H        7.27773380       5.59896646      10.55584148       0.00013819      -0.01352223      -0.00013381
H        5.86117146       4.90890206       9.72367822      -0.00062543      -0.00573030      -0.00597249
O        2.26773969       7.39215436       2.93154765      -0.01229970       0.00408202       0.00133628
O        4.04656249       8.50072557       3.48432596      -0.01368061       0.01012856      -0.00628936
O        2.73475917       9.28807604       1.83525362      -0.01439352      -0.00265029      -0.01188126
C        1.24648064       7.15778436       1.93048975      -0.01551296      -0.00284585       0.00571609
C        0.66637365       5.79052956       2.15136939      -0.01372704      -0.00208807       0.01533192
C        3.02158181       8.44247002       2.70091738      -0.01346878       0.00307822      -0.00621802
C        5.01295410       9.56269472       3.21772625      -0.01547527       0.01046151      -0.01246199
H        0.47367615       7.93922732       2.03988322      -0.01566022      -0.00302222       0.00250743
H        1.71446242       7.24843807       0.94966631      -0.01832864      -0.00831136       0.00410387
H       -0.12809532       5.62109478       1.42469604      -0.01337366      -0.00803979       0.01622479
H        1.43288834       5.03127734       2.00625705      -0.01319000      -0.00262760       0.02096182
H        0.24934251       5.69323888       3.15181769      -0.01401084       0.00482062       0.01581883
H        5.21758780       9.62690503       2.15257995      -0.01582529       0.00502333      -0.01295468
H        5.89616544       9.26757352       3.77352476      -0.01410934       0.01519525      -0.01145463
H        4.61528425      10.50619339       3.58160867      -0.01678270       0.01172245      -0.01710562
O        2.94249388       9.45804367       9.57854844       0.01339340      -0.00264719      -0.02271311
O        2.47117399       7.38764825       9.14517977       0.00697711       0.00086001      -0.02912158
O        4.40220940       7.85643546      10.23183888      -0.00950551      -0.01243073       0.00855464
C        3.87882683      10.46694163      10.06663951       0.00860992      -0.00765467      -0.00459763
C        3.25907225      11.80690687       9.77966536       0.01621324      -0.00503939      -0.00885804
C        3.37929210       8.21007374       9.70595774       0.00043797      -0.00466076      -0.01348969
C        2.89386497       6.01850464       9.12172999      -0.00588413      -0.00300676      -0.01779446
H        4.05343461      10.30387346      11.12776159      -0.00839932      -0.01185738      -0.00239640
H        4.83601659      10.33072940       9.57084091       0.01574326      -0.00790440       0.00923657
H        3.87664454      12.58178940      10.23143810       0.01432994      -0.00725859      -0.00254090
H        3.18638104      11.98330804       8.70546709       0.02750910      -0.00423255      -0.00953451
H        2.25831548      11.87340066      10.20537549       0.01244809      -0.00218744      -0.01814426
H        3.69938972       5.88036926       8.39995567      -0.00076339      -0.01338298      -0.00999650
H        2.01595058       5.44677739       8.83371769      -0.00824749       0.00327642      -0.02305800
H        3.24450816       5.71510200      10.10481445      -0.01779170      -0.00138886      -0.01314729
