149
Lattice="16.69662188659992 0.0 0.0 0.0 16.69662188659992 0.0 0.0 0.0 16.69662188659992" Properties=species:S:1:pos:R:3:forces:R:3 energy=-2080335.25 stress="-0.00042998138815164566 3.741741238627583e-05 -0.00020499250967986882 3.741741238627583e-05 -0.0002886575530283153 -3.4323844374739565e-05 -0.00020499250967986882 -3.4323844374739565e-05 -0.0002789664431475103" pbc="T T T"
Er      15.66314986      16.68745834      -0.79796169      -0.00025254      -0.00223554       0.01356518
I        1.28550789      16.92312548       8.90156107       0.02103361       0.01939811       0.03141247
I       13.29325465      17.42341974       6.98336061      -0.01269372       0.01918975       0.00027026
I       16.29376230      16.83036939      13.17041863      -0.00552402       0.00644545       0.01246089
Cl      -0.73619099       5.65418673       0.98306367       0.00201992       0.00141625      -0.00693162
Cl       0.81157455       7.48638154      -0.68437573       0.00310779       0.00613117      -0.00206070
Cl       2.18463637       5.51773327       0.97982243       0.00152898       0.00905192       0.00148812
C        0.74730948       5.87806210       0.01347722       0.00396165       0.00570443      -0.00298148
H        0.70297365       5.16924870      -0.80442272       0.00632646       0.00644998      -0.00386015
Cl       8.06861588       4.90577095       6.59099032      -0.01151848       0.00623825       0.00328434
Cl       8.45210641       2.82123565       8.60136003       0.00072320      -0.00512856      -0.01325301
Cl      10.73798059       4.33832289       7.59786979      -0.01238757       0.02303481       0.01025717
C        9.02098853       4.38470805       7.99252896      -0.01184675       0.00608640       0.00395166
H        8.87107929       5.11247416       8.78050742      -0.02821122      -0.00321549       0.00990957
Cl       2.59723865      11.17532227      10.71862670      -0.00813420       0.01329230       0.00199914
Cl       4.40385529      10.34461239       8.58582907       0.00121510       0.00555578       0.01335507
Cl       2.03620559       8.74241261       9.20696331      -0.01299836       0.02022499      -0.00657392
C        2.72867965      10.36849768       9.14965042      -0.00263602       0.01601664       0.00131852
H        2.14752971      10.94343053       8.44072979       0.00631377       0.02172922      -0.00155577
Cl       9.94189469       2.39562344       3.19118850      -0.02233849      -0.02003333      -0.02920748
Cl      10.03165546       0.81587785       5.63736662       0.00909966      -0.01456856      -0.02554154
Cl       7.48029980       1.89639626       4.69520472       0.00236148       0.00801434       0.01813616
C        9.06694423       1.24183162       4.22950573      -0.01357089      -0.00839727      -0.00898705
H        8.89263880       0.34812565       3.64285417      -0.03113162      -0.00929961      -0.00233741
Cl      14.66940155      13.97820154      14.82621698       0.00952934       0.00831205       0.01166537
Cl      12.95301175      16.34641061      14.92157545      -0.00042772       0.00076857      -0.00313769
Cl      12.07274561      13.96315240      13.47369708       0.01980989      -0.00843472      -0.00392812
C       12.96646086      14.53187001      14.84065617       0.00649175       0.00204960       0.00022742
H       12.52118406      14.18724364      15.76979779       0.00203934       0.00261245      -0.00165699
Cl      13.73900631       9.65227796       3.90867163       0.00132899       0.01115465       0.01153514
Cl      15.45392285      11.72151527       2.78091344       0.00603151       0.00522820       0.00827549
Cl      12.61449180      11.69361707       2.16342159       0.00783440       0.00604450       0.00266878
C       13.83631750      11.34226991       3.39278414       0.00454001       0.00886282       0.00636300
H       13.63933864      11.96973998       4.25418102       0.00404412       0.01214615       0.00403756
Cl      14.20791490       2.09067176       0.46107412       0.00130156       0.00146912       0.00811982
Cl      14.03813664       2.29066338       3.40567870       0.01092720      -0.02423590       0.01054606
Cl      16.29209336       0.92521814       2.15881680       0.01515260       0.00216001      -0.01097144
C       15.12985888       2.26156221       2.08003266       0.00429817      -0.00493810       0.00428677
H       15.67571888       3.19501332       1.96658494      -0.00019518      -0.00086503       0.01188589
Cl       5.36289059       9.97660261       3.17801922       0.00753571       0.01334578      -0.01088317
Cl       3.90238835       9.66246160       0.67442867      -0.00118265      -0.00565213      -0.00318819
Cl       5.73755224       7.57479240       1.54502156       0.00365683       0.00235686       0.00510201
C        4.60143130       8.83091379       2.07343516       0.00443993       0.00474377       0.00000857
H        3.79213234       8.34045838       2.60036613       0.00663090       0.00786456       0.00636011
Cl      11.21259976       6.83518987      13.35272723       0.00432667      -0.00336531       0.00470927
Cl       8.76225863       5.26204857      13.08512959      -0.00292903       0.00856546       0.00518817
Cl      10.70399568       5.33791293      10.90269248      -0.00502941       0.00237644       0.00347477
C       10.47842221       5.38361572      12.65607029      -0.00279906       0.00075947       0.00350246
H       10.98901999       4.52224523      13.06890266      -0.00672945      -0.00202054       0.00207449
Cl       3.35269191      13.00560855      -1.03489679      -0.00727746      -0.00725572       0.00608054
Cl       6.09472797      12.12297260      -1.54992419      -0.00931762      -0.01105369       0.00487643
Cl       5.59865384      14.49024941       0.08673730      -0.00430764      -0.00698316       0.00040798
C        5.00366367      12.89611146      -0.38823560      -0.00675434      -0.00730092       0.00444432
H        4.96480678      12.26932200       0.49395965      -0.00643785      -0.00526844       0.00587615
Cl       7.24910485       8.60093010      11.08556806      -0.00015271      -0.00819571      -0.02671465
Cl       9.64326657       8.94566203       9.45361643       0.01006944      -0.00077286      -0.00656044
Cl       8.36604251      11.26621123      10.68411898       0.00760050      -0.00620085       0.00041126
C        8.72705208       9.53830431      10.84861914       0.00264617      -0.00810723      -0.00881221
H        9.34352873       9.40892908      11.73033895      -0.00372054      -0.01457665      -0.00530905
Cl       1.86809088      -0.26701142      16.12162221      -0.00743015      -0.00826854      -0.00225075
Cl       0.70023862       2.37420714      15.93041209       0.00559762      -0.00047688      -0.00492348
Cl       3.60946286       2.06332532      15.67373364       0.00286076      -0.01655435       0.00191915
C        2.07457292       1.36027864      15.35093753      -0.00016671      -0.00792691      -0.00228468
H        1.89367608       1.21421484      14.28697510       0.00097239      -0.00935712      -0.00219767
Cl      -0.79716866      14.02284058       5.63337628       0.00167370       0.02128267      -0.02213203
Cl       2.13007904      13.98756490       5.62197186      -0.00126916       0.02776080       0.03864963
Cl       0.64986421      12.98714126       7.93654385      -0.01936304       0.01562999       0.00231451
C        0.66280343      13.17629141       6.17881161       0.00442988      -0.00036832       0.00179082
H        0.65699066      12.18576583       5.73873957      -0.01309413       0.00815290      -0.00279620
Cl       8.81847216       8.56062159      15.76085271       0.00311451       0.01007137       0.00512252
Cl      11.31740495      10.05671295      15.98084280       0.00036323       0.01551109      -0.00586209
Cl       9.26756777      10.92229844      14.09534704      -0.00366982       0.00154083      -0.00779060
C        9.57351662      10.15088136      15.66740378      -0.00050673       0.01118135      -0.00405563
H        9.13282532      10.77918253      16.43201174      -0.00045618       0.01424657      -0.00680755
Cl       0.38513177       4.55082181      13.28680648      -0.00879227       0.00737093      -0.00527075
Cl       1.41434742       5.28074767      10.66717127       0.00800894      -0.00686723      -0.00329691
Cl      -0.38368334       7.10094952      12.08505224       0.01048955       0.00686970      -0.01689852
C        0.89728930       5.89970921      12.23408924       0.00323404       0.00050778      -0.00789263
H        1.74914333       6.37144905      12.70869157       0.00361881      -0.00184143      -0.00617318
Cl      14.25080194      15.00490857       1.25483878      -0.00569114       0.01439947      -0.00091444
Cl      11.33595789      15.20814363       1.46738036      -0.00473540       0.00125664      -0.00773330
Cl      12.99857751      15.62342515       3.85205710      -0.01072696      -0.02277594       0.00104362
C       12.85530438      15.81364116       2.13558113      -0.01094237       0.00080028       0.00436792
H       12.92903147      16.86465233       1.87497460      -0.01389021       0.00489448       0.01987144
Cl       3.56176944       2.38623909       2.55611708       0.00587949      -0.00239396      -0.00544339
Cl       3.53400025      -0.51458355       2.82622631       0.00161816      -0.00161019       0.00448676
Cl       5.82583026       0.82500655       1.58228910       0.01103478      -0.00856924       0.01523724
C        4.54160933       0.94014667       2.80438253       0.00266568      -0.00247187       0.00588100
H        5.02608609       1.01896324       3.76966699      -0.00279386       0.00081443       0.00821471
Cl      13.80992094       5.64246303       9.41353099      -0.00594112      -0.01049873      -0.00193998
Cl      13.98518093       5.63706338       6.49865047       0.00263160      -0.01467952      -0.00122645
Cl      16.07947372       6.90435372       8.08457775      -0.00371344      -0.00949937       0.00276528
C       14.89578959       5.58685569       8.01996693      -0.00187261      -0.01135989       0.00129486
H       15.43009217       4.64433304       8.05416894      -0.00074999      -0.01043344       0.00427933
Cl       1.92260097       9.37716138       5.41363600      -0.00729668       0.00610540       0.00574493
Cl       1.19365255       9.18786188       2.59800754       0.00069356      -0.00411780       0.00476140
Cl       0.09731238       7.28864111       4.49880688      -0.00834022       0.00537971       0.00935103
C        0.64450195       8.94305855       4.26147264      -0.00459917       0.00297128       0.00395723
H       -0.19546988       9.60571728       4.42814012      -0.00415903       0.00469582      -0.00088982
Cl       5.35786178       7.38203638       6.75791357      -0.00718729       0.00446650       0.00767017
Cl       2.86459977       5.95870295       7.14727616      -0.00399765      -0.00141953       0.00445765
Cl       4.48839096       5.43524710       4.77054846      -0.00087410       0.00404555       0.00514975
C        4.50446297       5.85850903       6.49032361      -0.00349550       0.00293416       0.00518959
H        5.03016510       5.07455047       7.02276855      -0.00209481       0.00392386       0.00517327
Cl       2.91870841       9.64054244      14.01125825       0.00768256      -0.00410503      -0.01055518
Cl       5.37109855       8.12884312      14.51467344       0.01007363      -0.00026825      -0.01270968
Cl       3.97773598       7.82821925      11.98397826       0.00376734      -0.00783631      -0.00893679
C        4.38398554       8.93778093      13.29801607       0.00622317      -0.00468947      -0.01231057
H        4.96037974       9.75128761      12.87518173       0.00494505      -0.00519693      -0.01556975
Cl       5.59258144      15.28553269       5.79469820       0.00030492      -0.00015080      -0.00734857
Cl       4.69031025      15.78639980       8.51764837       0.00340462      -0.00002752      -0.00578240
Cl       6.64126697      13.66632496       7.99612655       0.00727730       0.00420338      -0.00783144
C        6.04674847      15.26528694       7.52078672       0.00272192       0.00218130      -0.00796483
H        6.85845740      15.97247868       7.64349581       0.00128141       0.00375608      -0.00978614
Cl      13.25223603       9.64593896       7.72878433       0.01950040       0.01512539      -0.01562005
Cl      14.82941351      10.49177805      10.03323911       0.00987837      -0.01316409       0.00131068
Cl      12.34680076      11.88825594       9.36455902       0.01547281      -0.00210831       0.00459808
C       13.19969175      10.33754920       9.36046756       0.01290280      -0.00324157      -0.00811431
H       12.64203149       9.65244145       9.98710921       0.00894509      -0.00920767      -0.01790279
Cl       5.96561627      -0.04566496      12.01698194      -0.00452244       0.00707600      -0.00400238
Cl       8.44190224      -0.43059274      10.51631609      -0.00409230      -0.00049363      -0.00126132
Cl       8.24748842       1.70343324      12.50563645      -0.00024331       0.00311264      -0.00553764
C        7.72569073       0.06562839      12.06049802      -0.00455376       0.00421337      -0.00348389
H        8.09177223      -0.61327280      12.82197297      -0.00694411       0.00480695      -0.00158335
Cl      10.34818940       8.64652842       5.93107412       0.00007808      -0.00565530       0.01761485
Cl       7.72386878       9.89602620       6.22694566       0.00233689       0.00564781       0.00200500
Cl       8.18114025       7.90334092       4.13007494       0.00273651      -0.00313117       0.01323849
C        8.60342151       8.42659577       5.76236327      -0.00047945       0.00119661       0.01245617
H        8.30315474       7.63976823       6.44254922      -0.00629240       0.00598601       0.01540896
Cl       2.37050152       2.50298860       6.05545107       0.01159474      -0.00942484      -0.01170982
Cl       0.77531404       3.92910570       4.05383326       0.00359772      -0.00053008      -0.00034544
Cl      -0.53833120       2.49442732       6.25545150       0.01295984      -0.00804758       0.00018302
C        0.88993713       3.40884485       5.76942786       0.01094045      -0.00801083      -0.00297835
H        0.93985622       4.32536094       6.34451434       0.01392657      -0.00894728      -0.00079075
Cl      12.98737919       0.25241546      10.93636847      -0.00066446      -0.00321007      -0.00303541
Cl      13.29161839       2.90049301      12.12538798      -0.00904770      -0.00259618      -0.00185946
Cl      15.16089663       2.00874137      10.06364371      -0.00203514       0.00185825       0.00412393
C       13.49997113       1.92495519      10.63429559      -0.00374539      -0.00199062      -0.00096892
H       12.85512104       2.32873734       9.86074082      -0.00267637      -0.00359797      -0.00302637
Cl       9.17633834      11.43476625       3.24476986       0.00527552      -0.00398728      -0.00169806
Cl       8.53330497      13.92563542       4.60432441       0.00205067      -0.00473922      -0.00174974
Cl      10.82225201      12.34216600       5.49142350       0.00464681      -0.00135499      -0.00286454
C        9.83255832      12.83613938       4.10757755       0.00301346      -0.00281315      -0.00226925
H       10.48056067      13.36779816       3.42265986       0.00164574      -0.00199544      -0.00289199
Cl       4.22214591       2.90655519       9.56199303      -0.01657674      -0.02303392       0.01707330
Cl       5.82024919       5.33328880       9.93230026      -0.01220710      -0.02111390      -0.01237217
Cl       4.71758203       3.93702384      12.25141245       0.01477674      -0.00937586       0.00580496
C        5.36230010       3.75313666      10.60853480      -0.00436559      -0.01858281      -0.00025607
H        6.26782118       3.16387406      10.68099221      -0.00397426      -0.01855431      -0.00769813
