146
Lattice="12.668553027135097 0.0 0.0 0.0 12.668553027135097 0.0 0.0 0.0 12.668553027135097" Properties=species:S:1:pos:R:3:forces:R:3 energy=-484992.9375 stress="-0.0003197576152160764 0.0005707039090339094 -0.0002399980730842799 0.0005707039090339094 -0.00013806797505822033 -0.0001327855425188318 -0.0002399980730842799 -0.0001327855425188318 -0.00034450666862539947" pbc="T T T"
Er       9.43887373      11.04056785       1.92363226      -0.01071068       0.00880808       0.00487122
O       12.58376496      12.48835349       4.53551554      -0.00824410       0.01087689       0.00130093
N       10.66500052      12.37550966       3.11980337      -0.01234967       0.01002556       0.00686115
C       11.63316120      12.43322336       3.83212044      -0.01185177       0.01016324       0.00302485
O        6.50919587      13.10300110       7.87752434       0.00522870      -0.00180328      -0.00356394
N        7.27145094      11.00997405       6.98635758      -0.00136887      -0.01093221      -0.01375943
C        6.89620836      12.03975256       7.43011641      -0.00701906       0.01733243       0.00171059
O        6.02132738      10.57087952      12.98372611      -0.01659203       0.01502419       0.00379714
N        7.71152334      12.13722475      13.63867580      -0.00450429       0.00624299      -0.00690924
C        6.86182392      11.36614437      13.30076263      -0.01042204       0.01083332      -0.00126357
O        7.68990299       2.12262720       6.36803365       0.00575119       0.00285971       0.00111015
O        8.97174258       2.87993389       8.03077387       0.00097066      -0.00276772       0.00670886
C        9.57771289       3.37401081       5.76654497       0.00885183       0.00267616       0.00997245
C        8.71993841       2.77353813       6.83353235       0.00439422       0.00056928       0.00518769
H       10.10834804       2.55792275       5.27065879       0.01654936       0.00397563       0.01610329
H        8.95828852       3.86427129       5.01644633       0.01188371      -0.00255492       0.00438020
H       10.29578891       4.07283467       6.18406123       0.00257328       0.00704266       0.01341224
H        7.22221013       1.55730563       7.07289506       0.00378345       0.00088148      -0.00076529
O        2.93925088       5.47006738       9.77152402       0.00017679      -0.00521639       0.02020249
O        4.43442445       4.98524263       8.17762697      -0.01064202       0.00046426       0.00842249
C        5.14493268       6.24907838      10.09067185      -0.00227791       0.00523025       0.00260526
C        4.17212914       5.49030504       9.25719899      -0.00531134       0.00044775       0.00969321
H        5.00622631       7.31620300       9.89492404       0.00535332       0.00343198      -0.01231596
H        4.97114935       6.09544244      11.15196121      -0.00742361       0.01905025       0.00356171
H        6.15745858       5.96538425       9.82365133      -0.00293271      -0.00400971       0.00917401
H        2.34605670       4.99523806       9.15693406      -0.00216769      -0.02256474       0.03511569
O       -0.16341871       2.90476105       3.66308878       0.00671858       0.00429577      -0.00947660
O        0.03243852       4.95435350       4.52978083       0.00424546       0.00491834      -0.01053685
C        1.38592183       3.16274911       5.41792220       0.00267869       0.00610459      -0.00596738
C        0.36721422       3.79184241       4.52896548       0.00432676       0.00491977      -0.00876325
H        1.09716998       2.13296848       5.63011084       0.00531402       0.00474761      -0.00914413
H        2.33012828       3.12708774       4.86824681       0.00470972       0.00963439      -0.00278364
H        1.51543146       3.75617211       6.31863933      -0.00108649       0.00547425      -0.00496563
H       -0.76408066       3.41174856       3.10129531       0.00856701       0.00373554      -0.01196167
O        9.80920134      10.40610281       6.79249481      -0.00402284      -0.00002700       0.00189462
O       10.10577550      12.58142732       7.28883935      -0.00419462       0.00086629      -0.00389321
C       11.96980582      11.08260506       7.44767899      -0.00315666       0.00282905      -0.00144167
C       10.53960433      11.45531981       7.16652198      -0.00345373       0.00181007      -0.00083661
H       12.00649754      10.24536845       8.14569234      -0.00105763      -0.00033453      -0.00572452
H       12.45487687      10.77360025       6.52222535      -0.00182421       0.00926518      -0.00281119
H       12.49963138      11.93485704       7.86029398      -0.00542375       0.00225554       0.00269739
H        8.80960651      10.66891741       6.79450322      -0.00213394      -0.00026597      -0.00163093
O        5.71700004       9.08724142       2.47742026      -0.00785223       0.00263548      -0.00238937
O        7.90528648       9.47934998       2.66199528      -0.00825729       0.00444906      -0.00227946
C        6.69956634       8.79623278       4.60223036      -0.00654091      -0.00395620      -0.00427985
C        6.80962141       9.15245913       3.17185905      -0.00770235       0.00142564      -0.00328761
H        6.82344893       9.72198838       5.18004064      -0.00624137      -0.00588828      -0.00157733
H        5.73295042       8.36023114       4.83812485      -0.00604016      -0.00526722      -0.00519717
H        7.51082066       8.13530826       4.90587584      -0.00626090      -0.00477602      -0.00708209
H        5.81733453       9.51132063       1.56878747      -0.01042686       0.00774851      -0.00020212
O        4.91781989       3.31582988       2.05826377       0.00018898      -0.00758445       0.00127761
O        4.74679001       4.92057863       0.50684289       0.01247710      -0.01148143      -0.00398070
C        5.87311350       5.41048507       2.55290894      -0.00700188      -0.00514156       0.00517553
C        5.11631572       4.52911878       1.60702669       0.00257811      -0.00823912       0.00039572
H        5.20040861       5.76455884       3.33380249      -0.00832133      -0.02349670       0.01216027
H        6.67232784       4.85019658       3.03568256       0.00324638       0.00164835      -0.00384925
H        6.26275754       6.26805317       2.01197813      -0.02124371       0.00507325       0.01138131
H        4.49089881       2.74696660       1.34595712       0.00629815      -0.00915269      -0.00132316
O        9.75719956       7.51511256       3.58841965      -0.00441399       0.01013732       0.00003928
O       10.76025634       9.27681418       2.68007373      -0.00560723       0.01119915       0.00129020
C       11.81615584       8.16977344       4.53441749      -0.00094277       0.00688206      -0.00450063
C       10.76163299       8.37565030       3.51704653      -0.00374752       0.00938255      -0.00101314
H       11.37946233       8.41800796       5.50584613       0.00375865       0.01303671      -0.00396907
H       12.12704486       7.12550784       4.57462082      -0.00595005       0.00560072      -0.00199559
H       12.65276725       8.83218040       4.33151223       0.00158063       0.00211187      -0.00990053
H        9.05740638       7.85851499       2.99975086      -0.00598305       0.01259938       0.00314766
O       10.48898195       4.86408807       9.05208513       0.00636280      -0.00911927      -0.00533479
O       10.79316125       3.63230190      10.90490590       0.01131886      -0.01141870      -0.00810444
C       11.53805557       5.90896350      10.87975542       0.01336935      -0.01200897      -0.00747761
C       10.91511230       4.67346653      10.29302865       0.00992948      -0.01051629      -0.00693394
H       11.91882385       6.57435287      10.11006899       0.01186423      -0.01197152      -0.00829513
H       10.76653266       6.43405795      11.44696477       0.01579461      -0.01146889      -0.00469346
H       12.33405929       5.61937645      11.56096656       0.01533703      -0.01385753      -0.01061401
H        9.98205221       4.07004229       8.74298713       0.00284790      -0.00838822      -0.00321561
O        4.50035170       0.84298163       4.32940631       0.00888366      -0.00560546       0.00107342
O        5.75759725      -0.94760188       3.85622449       0.00563317      -0.00284636      -0.01726613
C        6.70751680       1.23886667       3.57475192       0.01003468      -0.00211620       0.00540337
C        5.64775267       0.25628444       3.93529035       0.00766235      -0.00282246      -0.00505363
H        6.72386730       1.31443322       2.48655910       0.01989886      -0.00104193       0.00564778
H        6.50946936       2.21336369       4.00454322       0.00636893      -0.00294991       0.00554269
H        7.67283756       0.86155821       3.90268495       0.00745741      -0.00193164       0.01356348
H        3.86595837       0.13451565       4.51229421       0.00779417      -0.00645703      -0.00614556
O        3.76153659       7.22114695       6.83047359       0.00122160       0.00050592       0.00162989
O        1.76292966       6.23748699       7.14708105      -0.00466537       0.01007676      -0.00579451
C        1.89009603       8.62852879       7.12902232       0.00563741       0.00951594      -0.01348090
C        2.43088541       7.23588862       7.03139565       0.00014749       0.00644398      -0.00537837
H        2.18195421       9.04433000       8.09559734       0.00325102       0.01282956      -0.01430342
H        2.30385416       9.27728384       6.35880414       0.01137757       0.00436051      -0.01478489
H        0.80813970       8.59866372       7.07185517       0.00578377       0.01393894      -0.01800605
H        4.07410548       6.30457026       7.01671150      -0.00292987       0.00020278       0.00768786
O       11.05278477      12.54120420      10.91992375       0.01667538      -0.01217479       0.00413382
O       10.27350869      11.16831373      12.47304286       0.00024625       0.00106329       0.00690869
C        8.89920178      11.66990150      10.55401187       0.01012641       0.00200691       0.00087154
C       10.10712332      11.74777580      11.39487009       0.00845495      -0.00281966       0.00387266
H        8.29994275      12.55742375      10.78641484       0.01110774       0.00220171       0.00534859
H        9.14767418      11.74373457       9.49619174       0.01401598       0.00745463       0.00217134
H        8.30863114      10.78159817      10.76411997       0.00959149       0.00054541      -0.00309303
H       11.76346002      12.59132876      11.57847415       0.01419842      -0.01571728       0.00738019
O        1.14426946       6.77925738       1.83078192      -0.01356459       0.00103742       0.00106180
O        2.23944175       4.89239148       2.33822012      -0.00015274       0.00420481      -0.01721156
C        2.65648304       6.87049713       3.64752339      -0.00695202      -0.00327095      -0.00387228
C        2.02140461       6.04833861       2.57940219      -0.00619964       0.00095487      -0.00751612
H        3.43117344       7.49250887       3.18940830      -0.00633895      -0.00229003      -0.00150761
H        1.93333691       7.53711679       4.11061231      -0.00720805      -0.00532787      -0.00152153
H        3.09435106       6.21952836       4.39689964      -0.00734559      -0.00595762      -0.00597560
H        0.87272882       6.21538293       1.09323846      -0.01286957       0.00477606      -0.00201958
O        7.83548749       2.19423640      10.32706851      -0.00510082      -0.00054884       0.00541317
O        7.86461768       4.43556532      10.50423697       0.00807218      -0.00087953       0.00767785
C        7.71014023       3.09032113      12.48760458       0.00174507      -0.00236328       0.00645840
C        7.80418176       3.34113081      11.01397797       0.00213359      -0.00123835       0.00674200
H        6.89936819       2.40008056      12.71804391      -0.00450884       0.00481467       0.00574190
H        8.63031767       2.60101277      12.80121282      -0.00296974      -0.01186721       0.00537115
H        7.58704152       4.03125601      13.01398819       0.01049411      -0.00207131       0.00775337
H        8.08667948       2.39546119       9.38989628      -0.00473400      -0.00116667       0.00571522
O        1.55618359       9.61481784       1.94158129      -0.01972210      -0.00011927       0.00120038
O        3.29691711       9.09534966       0.62687446      -0.01027787      -0.00502121       0.01640296
C        3.17097915      11.30646895       1.56766655      -0.02214372       0.00289196       0.00285563
C        2.71243115       9.90903527       1.30005542      -0.01603061      -0.00150859       0.00733382
H        2.34752267      11.95597842       1.85350040      -0.02418770       0.00064269       0.00454232
H        3.88938440      11.26496140       2.39209962      -0.02215999       0.00821605       0.00335781
H        3.70373629      11.70055694       0.70807625      -0.02333717       0.00059217       0.00034882
H        1.36432497       8.67739564       1.75429932      -0.01837578      -0.00121126       0.00424708
O        1.23324770       1.23922868       8.83448495      -0.02201875       0.01570417      -0.00164771
O        1.04757885       3.46853529       8.93616694       0.04463418       0.01749659       0.01317227
C        0.95858042       2.20395868      10.97588296       0.01610792       0.00644518       0.00596619
C        1.08785420       2.40191321       9.50202985       0.01732434       0.01324445       0.00767848
H        1.29165414       1.21586894      11.28542780       0.02067880       0.00661431       0.00103221
H        1.53015154       2.97406927      11.48988466       0.00650907       0.00784922       0.01394048
H       -0.09366884       2.36202711      11.22736483       0.01296005      -0.00589544       0.00096336
H        1.27128574       1.45567727       7.89070838      -0.02469712       0.02120158      -0.00048554
O        7.23746979       8.18325723       7.81913367      -0.00277245       0.00612290      -0.00399613
O        6.96697466       9.19677788       9.80151846       0.00681531       0.00690973      -0.00332093
C        9.02610660       8.04190040       9.34517158      -0.00610352      -0.01641801      -0.00212516
C        7.64702070       8.53800423       9.05079743       0.00000691      -0.00022620      -0.00305206
H        9.11155327       6.97388940       9.14912048      -0.01874667      -0.01778972       0.00020831
H        9.72106859       8.55750943       8.67834411       0.00035897      -0.02606699      -0.00271633
H        9.27371314       8.25637812      10.38068811      -0.00386023      -0.01760711      -0.00235836
H        6.46643401       8.73862879       7.61988237       0.00537685       0.01686677      -0.00516765
O        4.40536446       3.25959995      11.22039142       0.01322215      -0.01182246      -0.00335777
O        4.20571219       1.69042636      12.80420193       0.00825801      -0.00881834      -0.00101995
C        4.55342427       1.02452339      10.52525219      -0.00283875      -0.01374847      -0.00101298
C        4.35831589       2.00841079      11.62559340       0.00692818      -0.01094239      -0.00183779
H        4.09471518       1.37270903       9.60305480      -0.01123308      -0.01580003       0.00230066
H        5.62623726       0.96472153      10.32357632      -0.00480217      -0.01424419      -0.01112796
H        4.18997710       0.04167015      10.80792856      -0.00065748      -0.01286368       0.00489610
H        4.40759400       3.88847936      12.00928052       0.01598594      -0.01067812      -0.00412440
