139
Lattice="12.075330923930471 0.0 0.0 0.0 12.075330923930471 0.0 0.0 0.0 12.075330923930471" Properties=species:S:1:pos:R:3:forces:R:3 energy=-440810.84375 stress="0.0004253308579791337 0.00017803371883928776 2.4626600861665793e-05 0.00017803371883928776 9.511363168712705e-05 0.0003449061478022486 2.4626600861665793e-05 0.0003449061478022486 0.0021530240774154663" pbc="T T T"
Er      13.55334473      11.58973500      -0.65820987       0.02373481       0.02329560      -0.00696297
O        3.03835104      10.23579188      -0.36119889      -0.02122796      -0.01323962      -0.00294474
O        3.12885411       8.13848295       0.44154180       0.01084688      -0.04049218       0.00667591
C        1.52500952       9.67092719       1.35845625      -0.00204781      -0.00639804       0.00679708
C        2.65783652       9.25019424       0.43319930      -0.02455586       0.02612120       0.00880253
H        0.63185861      10.01349961       0.78684199       0.01556763       0.00226908      -0.01587964
H        1.85230294      10.47193066       2.03362650      -0.00400136       0.00178590      -0.00089918
H        1.13903818       8.84495283       1.95381005      -0.00292110      -0.00116619       0.01532544
O        0.87183952      11.63220513       6.95896652      -0.00177604       0.00122941      -0.01957154
O        1.49840593      11.97700159       4.82164816      -0.02614105       0.00771308      -0.00262880
C        0.24550242      10.01049291       5.33307878      -0.00043625      -0.00361347       0.01958331
C        0.94292780      11.32534018       5.73793350      -0.01305830       0.01042545       0.03030407
H        0.40001330       9.76924018       4.27955873       0.00591907      -0.00688822       0.01954937
H       -0.82902628      10.07738820       5.52140306      -0.00671143      -0.02394941       0.01659183
H        0.60934013       9.17290529       5.93292833       0.00877921       0.00124456       0.02665799
O        6.06775959       8.44666159       8.12334412      -0.00925303      -0.00785303      -0.00102961
O        7.33943850       9.19910260       9.82180325       0.00229979      -0.01673108      -0.00516725
C        7.10749901      10.57807652       7.89389599      -0.01306966      -0.00474501       0.00541890
C        6.79990273       9.29616245       8.69517292      -0.00534356      -0.00991404      -0.00029302
H        7.19930426      11.44116252       8.55407287      -0.01306313      -0.00852930       0.01058186
H        6.35073419      10.77008823       7.13153710      -0.01645641      -0.00243906       0.00928784
H        8.06871908      10.44878758       7.38316904      -0.01421156       0.00131364       0.00148970
O        5.32654350       5.05787665      10.40277547       0.00288612       0.00178933       0.00602585
C        3.28562673       5.76866123       9.39554622       0.00440300       0.01040041       0.00946693
C        3.00622488       4.81023299      10.55453900       0.00198460       0.00658160       0.00575692
C        4.78901124       5.59107685       9.16777924       0.00337189       0.00596797       0.00716315
C        4.28253502       4.96564839      11.36623334       0.00315702      -0.00031254       0.00563337
H        2.70564835       5.54464544       8.50101233       0.00327303       0.01678233       0.00845610
H        3.07141169       6.79469989       9.70013850       0.00872874       0.01006588       0.01412798
H        2.11171618       5.06984442      11.12274989       0.00319564       0.00714305       0.00750682
H        2.91277140       3.78189389      10.18825331      -0.00109589       0.00816488       0.00163801
H        4.98482995       4.84987800       8.38246145      -0.00036942       0.00673175       0.00550273
H        5.30018844       6.52782190       8.92148810       0.00527859       0.00529891       0.00869051
H        4.23374739       5.88050488      11.96880661       0.00531200      -0.00251997       0.00992352
H        4.50075571       4.11703199      12.02067176       0.00126006      -0.00345844       0.00217655
O       12.35338909      10.32539361      10.07115519       0.00800523       0.00323597      -0.00434420
C       10.28566006       9.20582532       9.64202110       0.00214237       0.00521603      -0.00970486
C       10.06437800      10.67389849      10.02718165       0.00272280       0.00441039      -0.00696483
C       11.78910346       8.98814360       9.82657263       0.00266697       0.00362206      -0.00177608
C       11.36027850      11.29063905       9.55963678       0.00539871       0.00479100      -0.00025880
H        9.66407205       8.53897181      10.23288345      -0.00819203       0.00412752      -0.01812524
H       10.00129142       9.06308988       8.60019773       0.00847127       0.01093470      -0.01288417
H        9.16833743      11.07812509       9.56727643       0.00632691       0.00900028      -0.01166297
H        9.95665021      10.77857081      11.11342433      -0.00914535       0.00436646      -0.00814909
H       12.05539987       8.38496189      10.69404865      -0.00848642       0.00374687       0.00115141
H       12.28772077       8.59683827       8.94081265       0.00223446      -0.00909542       0.00311425
H       11.49700888      11.35495454       8.47433348       0.00755675       0.01704036       0.00007945
H       11.60885224      12.28037492       9.99542897      -0.00091631       0.00048048       0.01132861
O        9.29400460       7.95690163       6.22522497      -0.00143485      -0.00200927      -0.00237907
C        7.55178626       6.36065146       6.32301166       0.00117087      -0.00509918      -0.00139818
C        8.89530072       5.64030024       6.39140483       0.00265221      -0.00264132      -0.00127900
C        7.95704774       7.70497866       5.74389771      -0.00135887      -0.00416318      -0.00146580
C        9.79775759       6.77398457       6.85136018       0.00024511      -0.00076723      -0.00094161
H        6.80339467       5.84387765       5.72278998       0.00206360      -0.00654386      -0.00119787
H        7.13885095       6.52799552       7.32005126       0.00096300      -0.00612858      -0.00118807
H        8.90623119       4.79689899       7.07894889       0.00421946      -0.00253788      -0.00112529
H        9.19751230       5.28410517       5.40132531       0.00384597      -0.00208179      -0.00124341
H        7.98724827       7.68246022       4.64635998      -0.00196811      -0.00405035      -0.00160414
H        7.29975805       8.50601181       6.08054993      -0.00259912      -0.00518066      -0.00120306
H        9.73193274       6.87969314       7.94220891      -0.00139821      -0.00018841      -0.00100946
H       10.84883057       6.65259426       6.57349734       0.00073338       0.00106907       0.00011472
O        5.60799120      11.82539397       2.05327088      -0.00295126      -0.00216007      -0.00799965
C        7.50336384      10.49140654       1.58207650      -0.00072980       0.00047171      -0.00765046
C        6.62611850       9.76146114       2.60066972       0.00393316       0.00273436      -0.00176507
C        7.00449342      11.92154027       1.74601816      -0.00361350       0.00010285      -0.01246684
C        5.29324938      10.46287494       2.38768256       0.00151077      -0.00161856      -0.00214586
H        8.57122523      10.39858613       1.78905732       0.00025675       0.00420460      -0.01083507
H        7.31171908      10.12613131       0.56964307      -0.00306997      -0.00451082      -0.00547615
H        6.55217758       8.68898134       2.42623417       0.00657194       0.00148612       0.00362812
H        6.99472650       9.92269917       3.61731812       0.00620864       0.00853363      -0.00348172
H        7.51449818      12.41021406       2.58955693      -0.00265758       0.00481246      -0.01569349
H        7.11722655      12.53457972       0.85010754      -0.00763741      -0.00339642      -0.01535648
H        4.77018956      10.00836556       1.54113435       0.00074756      -0.00655761       0.00059426
H        4.63750344      10.46437811       3.26119701       0.00279444      -0.00025980      -0.00100416
O        2.76424588       5.83786642       4.95999629      -0.00020361       0.00589401       0.00787106
C        3.92372513       7.91133730       4.91894593       0.00193537       0.00441849      -0.00022841
C        4.20628026       7.14051836       3.62866509       0.00180298      -0.00136580       0.00304160
C        3.39321660       6.80553854       5.82095089       0.00231022       0.00776500       0.00432090
C        3.01790045       6.19333400       3.59482795       0.00048345      -0.00005871       0.00657406
H        4.78885955       8.40314833       5.36336683       0.00180551       0.00638478      -0.00217555
H        3.15142749       8.66479274       4.74089520       0.00144854       0.00310820      -0.00347842
H        4.25520540       7.75783685       2.73345526       0.00304349      -0.00505844       0.00039169
H        5.14218669       6.57872249       3.71667118       0.00100335      -0.00213435       0.00608075
H        4.21162650       6.32014136       6.36477191       0.00310701       0.00905266       0.00442272
H        2.66329450       7.15808252       6.55297128       0.00397366       0.01050119       0.00460103
H        2.13688537       6.69209530       3.17387925       0.00111747      -0.00053352       0.00417025
H        3.19654808       5.27672529       3.02679966      -0.00055866      -0.00245640       0.00999327
O        7.40387226       1.26319381      10.42856003      -0.00121513       0.00337702       0.00562022
C        7.69102083       3.21777132       9.12502602      -0.00240773      -0.00086153      -0.00135368
C        8.51329903       3.33872205      10.40597849      -0.00353032       0.00508112      -0.00102943
C        6.69880624       2.13325180       9.50921099      -0.00177693      -0.00024307       0.00241891
C        8.63289588       1.87086359      10.79172232      -0.00240254       0.00670576       0.00530587
H        7.19983616       4.14208106       8.83435997      -0.00303864      -0.00241080      -0.00548491
H        8.32313739       2.87705370       8.30079124      -0.00167787      -0.00362775       0.00027765
H        9.48083694       3.82300229      10.26537919      -0.00350355       0.00482947      -0.00210055
H        7.94422767       3.89648411      11.15352646      -0.00458062       0.00802141      -0.00387642
H        5.84137049       2.57077666      10.02856542      -0.00208643       0.00122783       0.00100821
H        6.34889532       1.54257811       8.66292065      -0.00159831      -0.00359133       0.00454602
H        9.45631578       1.40173690      10.22907949      -0.00093615       0.00539339       0.00859636
H        8.80317925       1.69862455      11.86001011      -0.00391694       0.01171488       0.00649846
O       11.79992634       7.18342773       2.41519978       0.00053811      -0.00480434      -0.00107512
C        9.48747904       6.65105898       2.28212700       0.00081575      -0.00284347      -0.00302640
C       10.07762394       6.79733814       0.87947997       0.00088391      -0.00303976      -0.00323921
C       10.56593932       7.29140335       3.15601056      -0.00040856       0.00002483      -0.00387692
C       11.54701629       6.54353149       1.16854340       0.00134948      -0.00178750      -0.00248724
H        8.51893331       7.13515016       2.39421607      -0.00018987      -0.00432442      -0.00354605
H        9.36586893       5.59297728       2.52965846       0.00309417      -0.00276932      -0.00177832
H        9.65270599       6.10857932       0.15030926       0.00181712      -0.00433171      -0.00264855
H        9.92757450       7.81579730       0.51130045      -0.00045541      -0.00358909      -0.00409119
H       10.36887129       8.35219397       3.33770922      -0.00082034       0.00101346      -0.00898191
H       10.69047275       6.80624637       4.12460217      -0.00175971       0.00404105      -0.00167933
H       11.74200452       5.46397552       1.25541486       0.00264790      -0.00177085      -0.00448398
H       12.24297633       6.95247430       0.43222078       0.00126535       0.00058562      -0.00169721
O       12.35847555       0.72258528       0.96359636      -0.00221393      -0.00971100      -0.01451978
C       11.02496384       2.51862369       1.82499573       0.02280311      -0.00231689       0.00201881
C       10.65113272       1.21181323       2.51910797       0.00786674      -0.00059876      -0.00532046
C       11.80966860       2.04360090       0.61004393       0.00198495      -0.00517651      -0.00843838
C       11.89389583       0.37866572       2.33977306      -0.00229964      -0.01274288      -0.01385421
H       10.15798015       3.10846768       1.52578776       0.03135532       0.01438445       0.01381073
H       11.64984607       3.12920227       2.47816766       0.03558517      -0.01897609       0.00515494
H       10.40822435       1.33879750       3.57305572       0.01966412       0.00175163      -0.00416043
H        9.79888532       0.74170420       2.02152269      -0.00455919       0.01348285       0.00277194
H       11.15939062       1.90439773      -0.25567196      -0.01454304      -0.00338523       0.00349092
H       12.64176132       2.69311851       0.33811076       0.00081897      -0.00713152      -0.02044230
H       12.68347630       0.60259896       3.06064939       0.00187448      -0.01380920      -0.01869780
H       11.70643280      -0.69141929       2.35494084      -0.00920404      -0.01178896      -0.01384920
O        6.20787417       2.79409686       6.10845149      -0.00577591      -0.00327291      -0.00161660
C        5.47752403       2.83240756       3.82886931      -0.00856289      -0.00141548       0.00377798
C        6.97906565       3.11150793       3.93582613      -0.00375703      -0.00232783      -0.00146824
C        5.01467419       2.85851613       5.29489543       0.00357875       0.01139876      -0.00299990
C        7.29844571       2.45109054       5.26715370      -0.00362724      -0.00299498      -0.00310439
H        4.95142515       3.56833312       3.22203594      -0.00257711      -0.00081077      -0.00099768
H        5.31094593       1.84963658       3.38529538      -0.00470380      -0.00079149       0.00132635
H        7.55202682       2.70230770       3.10271893      -0.00227946      -0.00184183      -0.00381035
H        7.17607241       4.18506161       3.99970910      -0.00178667      -0.00144190      -0.00150444
H        4.49394844       3.78414974       5.54995279       0.00348583      -0.00129783       0.00045982
H        4.35997194       2.01668455       5.53336102      -0.01768398      -0.00451672       0.00593738
H        7.36987845       1.35859983       5.14918436      -0.00368833      -0.00380099      -0.00432519
H        8.21446583       2.81044553       5.73873582      -0.00067252      -0.00587913      -0.00302778
