148
Lattice="13.13827567231394 0.0 0.0 0.0 13.13827567231394 0.0 0.0 0.0 13.13827567231394" Properties=species:S:1:pos:R:3:forces:R:3 energy=-1069076.125 stress="-0.000556487706489861 -0.00033682832145132124 -0.0006755090143997222 -0.00033682832145132124 -0.0013179256347939372 -0.00029874336905777454 -0.0006755090143997222 -0.00029874336905777454 -0.0034418811555951834" pbc="T T T"
Es      14.19589859      11.00158743       2.06210023       0.00034705      -0.00040787      -0.00289822
O        1.77456310      11.82741889       3.94475454      -0.00461780       0.00101560      -0.00347567
O        5.14619616      12.28732575       4.41524701       0.01145911       0.00423741      -0.00815336
O        3.60763679      14.02525283       4.42538155       0.02055860      -0.01668572       0.02184375
C        4.36367994      13.14249063       4.40272417       0.00018157       0.01335347       0.00741629
H        1.48915509      12.72384939       4.14370696      -0.00810995      -0.00220801       0.00593998
O        3.36377497      12.45814146       1.92783961      -0.01030803       0.03038460      -0.00129765
O        3.10657769      14.18165421       0.50820724      -0.02975804       0.01282012      -0.01711786
O        1.30429983      13.03304164       1.24298014      -0.01644230      -0.00123519      -0.00771080
C        2.57427447      13.32124698       1.16518423      -0.01967585       0.01266378      -0.00932261
H        2.85942127      12.24721563       2.77167357      -0.01021066       0.02389043      -0.00357094
O        8.50553878      11.52117344      11.93499891      -0.00091195      -0.00240976      -0.00994112
O        7.21969661      12.89322491      10.73726736       0.00394025       0.00233150      -0.00878000
O        6.30560498      11.66200951      12.39878839      -0.00026298       0.00460589      -0.00979280
C        7.23456313      12.07349891      11.66347862       0.00096303       0.00185618      -0.00943449
H        8.35332272      10.92709326      12.67872923      -0.00389120      -0.00323617      -0.01151913
C        7.79639875       4.49867434       3.60851174       0.00940754      -0.00537536       0.00619263
C        7.51569501       3.16756480       3.33234334       0.00839080      -0.00356263      -0.00014127
C        6.78300355       5.35509883       4.01869161       0.00938708      -0.00570352       0.00614086
C        6.21405529       2.69596064       3.44282187       0.00770214      -0.00216360      -0.00605816
C        5.48898011       4.87160761       4.16567691       0.00839026      -0.00422195      -0.00035080
C        5.20051391       3.54790999       3.86326235       0.00763127      -0.00249843      -0.00609750
H        8.80733071       4.87145763       3.50631579       0.01012188      -0.00652044       0.01168036
H        8.29998569       2.50589479       2.98994885       0.00857648      -0.00320212       0.00018706
H        7.00683353       6.39372507       4.22905722       0.01030684      -0.00728986       0.01159650
H        5.99267350       1.67512227       3.16175409       0.00699910      -0.00052789      -0.01073238
H        4.69799006       5.52826045       4.50152644       0.00845534      -0.00428344      -0.00047982
H        4.18584360       3.18597466       3.94572636       0.00711852      -0.00153303      -0.01107877
C        5.61875346       3.06252596      13.19205674      -0.00533220      -0.00126866       0.00123411
C        6.33449222       1.89374079      12.95147998      -0.00382695      -0.00033003       0.00241019
C        6.29175562       4.26588967      13.37668755      -0.00701487      -0.00026004      -0.00048391
C        7.72547224       1.93314568      12.90644030      -0.00417917       0.00160429       0.00185667
C        7.68005944       4.30209527      13.34174973      -0.00733320       0.00169232      -0.00107687
C        8.39529300       3.13407231      13.10897504      -0.00590612       0.00260707       0.00005326
H        4.53841045       3.01364916      13.23581500      -0.00510174      -0.00262652       0.00081012
H        5.81692002       0.95745612      12.78574435      -0.00228971      -0.00112197       0.00278153
H        5.73479207       5.18050382      13.55212807      -0.00814437      -0.00095119      -0.00156422
H        8.27758820       1.03272830      12.67240923      -0.00299375       0.00226501       0.00278468
H        8.20393726       5.24051545      13.46990527      -0.00870015       0.00237225      -0.00191776
H        9.47810918       3.16639859      13.06196930      -0.00615302       0.00415499      -0.00012525
C        8.06311010       6.22984327       7.18720793       0.00595987      -0.00320760       0.00309432
C        8.33128481       4.89352660       6.91824172       0.00742243      -0.00309524       0.00520725
C        9.05501428       7.18754248       7.02079538       0.00491950      -0.00256638       0.00242340
C        9.59637344       4.51579440       6.48737595       0.00775267      -0.00223488       0.00626980
C       10.32007726       6.81106230       6.58267108       0.00532645      -0.00173852       0.00348822
C       10.59088761       5.47320864       6.31743734       0.00660251      -0.00155231       0.00530910
H        7.07923815       6.52422692       7.53106922       0.00570753      -0.00377882       0.00212368
H        7.54990172       4.15255606       7.03258062       0.00845933      -0.00378498       0.00622202
H        8.84883749       8.22808275       7.23680962       0.00395662      -0.00271629       0.00113868
H        9.79955462       3.47570156       6.26465239       0.00899817      -0.00211681       0.00782750
H       11.08875411       7.56326424       6.45236134       0.00445173      -0.00121985       0.00292058
H       11.57479790       5.17722429       5.97324194       0.00692992      -0.00101691       0.00607739
C        2.67595908       8.92249118       3.33581190      -0.00877151      -0.00618631      -0.02103395
C        3.64778129       8.04947727       2.87024498      -0.01059438      -0.01229872      -0.01221758
C        1.36766770       8.48155469       3.49678377      -0.00935805      -0.00180015      -0.01753829
C        3.30940799       6.73963859       2.55909807      -0.01274508      -0.01422624      -0.00031177
C        1.02671115       7.16806822       3.19634334      -0.01152077      -0.00314815      -0.00646390
C        2.00349809       6.29618430       2.72775595      -0.01353305      -0.00949618       0.00234611
H        2.94421515       9.93024485       3.63330426      -0.00633205      -0.00434992      -0.02998581
H        4.66946194       8.39144995       2.76384516      -0.01031262      -0.01509699      -0.01523046
H        0.62930481       9.15948628       3.91898710      -0.00908802       0.00249714      -0.02409026
H        4.06654685       6.05946375       2.19189277      -0.01387742      -0.01883430       0.00687334
H        0.01214316       6.81758675       3.34207941      -0.01202129       0.00108270      -0.00393569
H        1.74969266       5.27104670       2.48933343      -0.01592156      -0.01074773       0.01183238
C        5.11942856      11.11583999       9.56473969       0.00153831       0.00331211      -0.01302446
C        6.30452375      10.45761128       9.24679131       0.00089963       0.00128846      -0.00966400
C        3.95234921      10.38698250       9.72744914       0.00041030       0.00516427      -0.01376783
C        6.31796786       9.07816358       9.11822800      -0.00062874       0.00122242      -0.00746214
C        3.96654553       9.00150309       9.60635494      -0.00118753       0.00530776      -0.01148031
C        5.14996259       8.34464986       9.30940290      -0.00165884       0.00320075      -0.00838299
H        5.14729888      12.18314780       9.73496926       0.00257617       0.00331634      -0.01430013
H        7.21522869      11.03652272       9.17122483       0.00178447      -0.00031558      -0.00842452
H        3.02947253      10.89215503       9.98413745       0.00098178       0.00684028      -0.01565799
H        7.24761904       8.56557728       8.90805946      -0.00093812      -0.00013281      -0.00471036
H        3.05739034       8.43529910       9.76145600      -0.00199638       0.00681654      -0.01205044
H        5.16494502       7.26374677       9.22654657      -0.00302398       0.00326368      -0.00643420
C        1.42782776       7.91249146      -0.44974718       0.00474705       0.00327188       0.00473773
C        2.75631722       7.50452471      -0.48910666       0.00367779       0.00147669      -0.00419033
C        1.13370179       9.26833408      -0.36487100       0.00747234       0.00332239       0.00825821
C        3.77925607       8.44217954      -0.41960801       0.00512584      -0.00015784      -0.00885487
C        2.16376009      10.20394089      -0.32589233       0.00885450       0.00165709       0.00162428
C        3.49303953       9.80002428      -0.33581984       0.00792299       0.00002852      -0.00663226
H        0.63129265       7.17998773      -0.48894607       0.00377863       0.00441886       0.00904048
H        2.99286550       6.45007053      -0.56268115       0.00179008       0.00144218      -0.00739235
H        0.10047696       9.60419431      -0.33826162       0.00821288       0.00491234       0.01794260
H        4.81195066       8.11821535      -0.45217648       0.00419013      -0.00183433      -0.01588395
H        1.92070201      11.26529176      -0.29965797       0.01087864       0.00178611       0.00338684
H        4.29222820      10.53551733      -0.32308800       0.00917813      -0.00150165      -0.01128927
C        2.52837205       9.58152934       6.76316535      -0.01571167      -0.00768560      -0.01769915
C        3.78278567      10.09131484       6.45243819      -0.01838422      -0.00267342      -0.01884855
C        2.31447871       8.20981534       6.75312757      -0.00843933      -0.00850310      -0.01188983
C        4.82098023       9.23249397       6.12288535      -0.01356205       0.00170088      -0.01373719
C        3.35516289       7.34604651       6.43001556      -0.00372248      -0.00418781      -0.00707426
C        4.60601758       7.85937955       6.11266251      -0.00624320       0.00086477      -0.00761348
H        1.72508189      10.25670417       7.03002237      -0.01955742      -0.01085264      -0.02231305
H        3.95763636      11.15666889       6.49484886      -0.02491495      -0.00154716      -0.02472959
H        1.33881176       7.81285859       7.00695686      -0.00646798      -0.01250916      -0.01130938
H        5.80123454       9.63152259       5.89329447      -0.01577958       0.00589871      -0.01468088
H        3.19637148       6.27426673       6.43430660       0.00194725      -0.00477238      -0.00239785
H        5.42090592       7.18806834       5.87411042      -0.00245439       0.00421027      -0.00308683
C       10.09612303       5.70958106      10.60246936       0.01101570       0.00248502      -0.00046081
C       10.22437954       6.96543645      11.18824063       0.01414901       0.00243309      -0.00171402
C        8.83563107       5.19812618      10.32637041       0.00977694       0.00524637       0.00084931
C        9.09311407       7.70645785      11.50593043       0.01626435       0.00521024      -0.00186139
C        7.70461121       5.94136526      10.63912010       0.01185316       0.00821956       0.00018418
C        7.83246481       7.18794561      11.23538699       0.01505092       0.00837637      -0.00140574
H       10.97833914       5.13156074      10.35809857       0.00932344       0.00050656      -0.00076631
H       11.20804638       7.37099792      11.39224131       0.01509561       0.00019169      -0.00255972
H        8.73165268       4.21951656       9.87633789       0.00716969       0.00535794       0.00167189
H        9.18600286       8.68925325      11.94953621       0.01882653       0.00503959      -0.00253095
H        6.72168141       5.53662927      10.43229347       0.01112331       0.01037636       0.00026098
H        6.95368623       7.77023939      11.47713182       0.01676844       0.01099262      -0.00202515
C        7.34105585       8.19544282       1.56263923      -0.00347365       0.00033469       0.00543462
C        8.61542306       7.79704534       1.95254357      -0.00412078      -0.00075017       0.00510421
C        7.02074188       9.54640277       1.50504409      -0.00037166       0.00054812      -0.00029926
C        9.56838588       8.74952914       2.28716670      -0.00113970      -0.00166092      -0.00132621
C        7.97331055      10.50061707       1.85274924       0.00221986      -0.00028878      -0.00623186
C        9.24771297      10.10306649       2.23876475       0.00187597      -0.00150065      -0.00688855
H        6.61034805       7.44389768       1.28672818      -0.00547715       0.00076605       0.01047413
H        8.86624360       6.74512746       1.98118680      -0.00840167      -0.00145082       0.00923072
H        6.05425290       9.88504809       1.15843378      -0.00024527       0.00071328       0.00008878
H       10.55928607       8.42786047       2.58472739      -0.00070293      -0.00137299      -0.00268676
H        7.71450611      11.54882346       1.78492481       0.00418711      -0.00024635      -0.01040201
H        9.98782524      10.84896558       2.50079633       0.00493124      -0.00259785      -0.01284805
C       12.15611488      11.43860002       5.58441199      -0.00706682      -0.00350436       0.01207661
C       11.32967174      10.44443551       5.07551183      -0.01122836       0.00268222       0.00740283
C       11.67345642      12.29057156       6.57377360      -0.00350674      -0.00619833       0.01577871
C       10.03260532      10.29251740       5.55242423      -0.01204096       0.00682415       0.00570456
C       10.37845307      12.14088634       7.05782256      -0.00425938      -0.00222209       0.01423851
C        9.55959338      11.13858941       6.54803635      -0.00867450       0.00453265       0.00896697
H       13.16678759      11.54179359       5.20477127      -0.00690202      -0.00589683       0.01261120
H       11.69139532       9.78036409       4.29687749      -0.01371260       0.00425069       0.00526587
H       12.31039056      13.07322157       6.96856645      -0.00021536      -0.01138782       0.02001226
H        9.39575741       9.51881111       5.14389767      -0.01511256       0.01161881       0.00197143
H       10.00364758      12.79406570       7.83578582      -0.00158170      -0.00438488       0.01701505
H        8.55258838      11.02147639       6.92936159      -0.00936460       0.00820909       0.00782122
C        5.52053843       3.07929785       9.24743938      -0.00185196      -0.00774430       0.03392820
C        5.82494662       2.15810225       8.25243609       0.00204331      -0.00807093       0.03581657
C        4.34382972       3.81575308       9.17322607       0.00395878      -0.00020565       0.02353561
C        4.95217908       1.98024512       7.18728916       0.01273961       0.00058484       0.02596667
C        3.46111499       3.62097164       8.11552487       0.01412751       0.00801370       0.01415078
C        3.76484461       2.70103100       7.11977378       0.01882631       0.00908304       0.01505908
H        6.18939275       3.19756088      10.08986618      -0.01012132      -0.01383460       0.04093702
H        6.72815022       1.56652657       8.32796524      -0.00409475      -0.01549929       0.04590036
H        4.10321722       4.52853492       9.95262093       0.00004859      -0.00139264       0.02308851
H        5.20632211       1.27538275       6.40896102       0.01506620       0.00028876       0.02717638
H        2.53334888       4.17924390       8.07378736       0.01797247       0.01325627       0.00627243
H        3.08057612       2.54284892       6.29649271       0.02677301       0.01541951       0.00785179
