148
Lattice="12.418298154745472 0.0 0.0 0.0 12.418298154745472 0.0 0.0 0.0 12.418298154745472" Properties=species:S:1:pos:R:3:forces:R:3 energy=-1056783.125 stress="-0.0024563781917095184 0.0002580922737251967 0.00030599664023611695 0.0002580922737251967 -0.001720351167023182 0.00023796018649591133 0.00030599664023611695 0.00023796018649591133 -0.0010511408327147365" pbc="T T T"
Es      13.36446928      12.13498851       1.82102823       0.00424054       0.01796651       0.00746142
O        5.35426942      11.41129431       9.77693322      -0.01952142       0.00602120       0.00167108
O        6.10405121      11.85916504       7.69502849      -0.01493573      -0.00405639       0.00158691
C        3.78716931      11.54626829       8.02183526      -0.01563609       0.00103508      -0.00209501
C        3.44359219      12.11350391       6.79719685      -0.01259361       0.00036186      -0.00311041
C        2.81335666      10.85782345       8.74119426      -0.01755738       0.00273930      -0.00358978
C        2.15428969      11.98662983       6.29487769      -0.01184893       0.00254875      -0.00484540
C        1.53068961      10.70297828       8.23203192      -0.01689412       0.00490920      -0.00545747
C        1.19760081      11.26611064       7.00371486      -0.01425910       0.00530915      -0.00579151
C        5.22040951      11.62509424       8.54945428      -0.01685405       0.00076729       0.00066972
H        4.21865037      12.64268284       6.25481034      -0.01083371      -0.00223275      -0.00265560
H        3.09918305      10.43183491       9.69492340      -0.01967397       0.00236896      -0.00321311
H        1.89065873      12.42134109       5.33641775      -0.00965782       0.00140963      -0.00579768
H        0.79105470      10.14266208       8.79130367      -0.01851626       0.00614049      -0.00670806
H        0.20507156      11.13526426       6.59172850      -0.01357780       0.00723274      -0.00759540
O        0.48718134      10.36070876       0.53497797      -0.01001871       0.02762157       0.00522900
O        1.09489270       8.25107575       1.07279781      -0.00155401       0.02273631      -0.03695039
C        2.54574204      10.10732190       1.56243806      -0.00490826       0.01679781      -0.00713104
C        2.91230522       9.90509545       2.88889458      -0.00476895       0.01012972      -0.00814836
C        3.17188107      11.12076834       0.82424120       0.00338978       0.01448013      -0.00344184
C        3.83898307      10.74938748       3.49574827       0.00142511       0.00105682      -0.00538282
C        4.10886984      11.94967307       1.42402823       0.01094760       0.00431582      -0.00112089
C        4.42389498      11.77930802       2.76763102       0.00922763      -0.00141180      -0.00186417
C        1.28996634       9.44971719       0.99988557      -0.00625533       0.02443671      -0.01380953
H        2.41503968       9.12903971       3.45636726      -0.00674724       0.01055627      -0.00941660
H        2.90560921      11.26360842      -0.21693541       0.00710266       0.02012677      -0.00341044
H        4.09548735      10.61581979       4.54013783       0.00194560      -0.00593817      -0.00652215
H        4.59409066      12.71848891       0.84076848       0.02049988      -0.00080295       0.00043725
H        5.14672968      12.43125547       3.23751948       0.01596691      -0.01001735      -0.00068977
O       11.37758529      12.68489425       2.95926487      -0.01014903       0.01105416      -0.03421576
O       12.36794106      10.75673190       3.46335764      -0.01005840       0.02692461       0.02418882
C        9.99546097      10.86832353       3.57207672      -0.01180834       0.02291721      -0.00541806
C        9.76624906       9.52332001       3.27689895      -0.00492115       0.02242684      -0.00567940
C        8.94931897      11.68844578       3.98325975      -0.01523466       0.01536208       0.00136852
C        8.46935942       9.03566829       3.31588047       0.00017026       0.01120235       0.00218382
C        7.66793740      11.17378007       4.08666334      -0.01020056       0.00372253       0.00893144
C        7.42218038       9.86005514       3.70924058      -0.00321424       0.00246596       0.00954344
C       11.33674340      11.46806828       3.34295265      -0.01045042       0.02011195      -0.00489258
H       10.58459474       8.88036710       2.97980274      -0.00095570       0.02930327      -0.00766282
H        9.15751140      12.72678278       4.20453824      -0.02535945       0.01596212       0.00833667
H        8.27033584       8.00866122       3.03454191       0.00871500       0.00824656       0.00785030
H        6.86545112      11.79223757       4.46502101      -0.01203078      -0.00573806       0.02007846
H        6.41276792       9.47365329       3.72966018       0.00039929      -0.00582260       0.01770720
O        7.36562940       3.64293655       3.11229506       0.00088528      -0.00351328       0.00549829
C        6.17247212       2.91185907       2.91194128       0.00284642      -0.00679472       0.00652194
C        7.87851276       4.16655367       1.90205964       0.00043368      -0.00619921       0.00427075
C        5.60179579       2.55016987       4.26109404      -0.00038470      -0.00149826       0.00631958
C        9.15176977       4.91635855       2.20447449      -0.00131059      -0.00267959       0.00166702
H        5.45520506       3.52073698       2.34163321       0.00318661      -0.01125789       0.00161365
H        6.38429479       2.01537089       2.30696479       0.00593540      -0.00934577       0.01173601
H        8.06181132       3.35377233       1.18324398       0.00263493      -0.00810310       0.00738508
H        7.13225966       4.83654532       1.45196203      -0.00050095      -0.00895372       0.00216609
H        4.64156203       2.04517973       4.14810909       0.00112355      -0.00377506       0.00513715
H        6.27781829       1.89880727       4.81615743      -0.00150223       0.00174722       0.01117807
H        5.44338173       3.45314946       4.84864254      -0.00396631       0.00049776       0.00209026
H        9.54547533       5.38079315       1.30001271      -0.00319934      -0.00376046       0.00036365
H        8.96277742       5.69822593       2.94056893      -0.00266177      -0.00149924      -0.00015561
H        9.90654824       4.24319852       2.60964139       0.00023381      -0.00024514       0.00227842
O        8.90694643       3.52983021      10.27526103       0.01576191      -0.00744388      -0.00032921
C       10.19542723       3.01065130      10.02190431       0.01445207      -0.00437486      -0.01297688
C        8.88977873       4.91619836      10.53377676       0.01493090      -0.00613409      -0.00791408
C       10.04628436       1.54196577       9.70837700       0.01507337      -0.00478023      -0.00987852
C        7.46912153       5.32427087      10.82005112       0.01648653      -0.00626054      -0.00117647
H       10.65239646       3.54931396       9.17904686       0.00399467      -0.00455287      -0.01856935
H       10.83415534       3.16553992      10.90557015       0.02340952      -0.00152253      -0.02018535
H        9.54653646       5.14518747      11.38808025       0.02016836      -0.00025862      -0.01373434
H        9.28468057       5.46583397       9.66688795       0.00827146      -0.01062062      -0.01365227
H       11.02212468       1.08794222       9.53532673       0.01460052      -0.00312525      -0.01592794
H        9.56022442       1.02721760      10.53739838       0.02169621      -0.00450695      -0.00606017
H        9.42916170       1.40568616       8.82106576       0.00951084      -0.00706673      -0.00546618
H        7.41355274       6.39568853      10.99481778       0.01520453      -0.00499788      -0.01001858
H        6.82562396       5.10323686       9.97030497       0.01076396      -0.01510338       0.00555690
H        7.08043445       4.78723049      11.68421708       0.02359706       0.00071569       0.00606918
O        9.53776607       4.11211045       6.28150844       0.00575787      -0.00967926       0.00305191
C        8.62621188       5.16152793       6.55732318       0.00386155      -0.01073100      -0.00015774
C       10.71738790       4.56791494       5.65581733       0.00420952      -0.00970089       0.00053373
C        7.38017846       4.56678205       7.15926618       0.00542194      -0.01144370       0.00178495
C       11.50946827       3.36700112       5.19847553       0.00359659      -0.00954658      -0.00033106
H        9.08904909       5.88844331       7.24312129       0.00231534      -0.00759196      -0.00267214
H        8.39324887       5.69593049       5.62504580       0.00267865      -0.01438886      -0.00176215
H       10.46183127       5.21074930       4.80198662       0.00231941      -0.01030016       0.00090820
H       11.30207393       5.18756277       6.35575285       0.00538033      -0.00926620      -0.00104803
H        6.65919009       5.35101673       7.38862527       0.00404315      -0.01246545       0.00023286
H        6.92344555       3.87561584       6.45442567       0.00645193      -0.01394132       0.00382642
H        7.61778741       4.01881430       8.07036587       0.00681100      -0.00860893       0.00290604
H       12.39941481       3.68246889       4.65249937       0.00259124      -0.00950433      -0.00156367
H       11.82153027       2.76127264       6.05022262       0.00509971      -0.00902360      -0.00070280
H       10.90821874       2.74053653       4.53937803       0.00285895      -0.00962655       0.00056012
O        4.50645891       6.61774714       5.76691448      -0.00249639      -0.00750232      -0.00117950
C        3.12250608       6.43404221       5.55253880      -0.00283986      -0.00437033      -0.00018765
C        4.85650816       7.99250110       5.75579296      -0.00035226      -0.00825197       0.00300342
C        2.83462517       4.95561052       5.50317443      -0.00581850      -0.00349057      -0.00322745
C        6.30060530       8.14116144       6.15525677      -0.00070405      -0.01160769       0.00493395
H        2.55780312       6.91684031       6.36445328      -0.00097775      -0.00520614       0.00134617
H        2.82050675       6.92101055       4.61342991      -0.00282621      -0.00158679       0.00138015
H        4.67645021       8.39413289       4.74807022       0.00121266      -0.00508714       0.00407553
H        4.20251222       8.54846361       6.44553062      -0.00007275      -0.00928247       0.00374767
H        1.75972291       4.78038737       5.47732096      -0.00605766      -0.00113048      -0.00179834
H        3.28076270       4.50256091       4.61833328      -0.00827575      -0.00235256      -0.00487474
H        3.24477945       4.46538084       6.38585791      -0.00556181      -0.00634012      -0.00519243
H        6.56625346       9.19751293       6.21510372       0.00094743      -0.01230940       0.00722414
H        6.47770342       7.69434703       7.13180139      -0.00261597      -0.01335584       0.00426957
H        6.95453467       7.65796426       5.42978697      -0.00070734      -0.01124807       0.00486228
O        6.70070188       8.02187852       9.39517779       0.00119437       0.00476503       0.00843053
C        5.33296147       8.40072340       9.38434065       0.00016618       0.00016397       0.00301309
C        7.57337084       9.14889400       9.34798165      -0.00213587       0.00682989       0.00432593
C        4.47175628       7.16279987       9.39243418       0.00526917      -0.00313425       0.00472286
C        8.98605068       8.63649078       9.20204223      -0.00119174       0.00999460       0.00392000
H        5.11899775       9.05053085      10.23624341      -0.00501250       0.00239727      -0.00021964
H        5.13120366       9.00667662       8.49377114       0.00109406      -0.00372225       0.00022042
H        7.29898507       9.80893483       8.51696343      -0.00492996       0.00373495       0.00297922
H        7.45076379       9.74912637      10.25633104      -0.00241420       0.00873843       0.00279534
H        3.41997760       7.45526157       9.39237528       0.00422092      -0.00777267       0.00022822
H        4.65579905       6.54832968       8.50900544       0.01079465      -0.00565643       0.00782068
H        4.65462006       6.55939710      10.28278582       0.00492708       0.00084887       0.00733939
H        9.68450506       9.47292618       9.17065264      -0.00304694       0.01129255       0.00275450
H        9.26186574       7.99194705      10.03836738       0.00058378       0.01141915       0.00430098
H        9.09564674       8.06360761       8.27963423      -0.00048902       0.00941521       0.00458987
O        4.29792297       7.29932918       1.06716186       0.01006424      -0.00567174       0.00151196
C        5.66317569       7.60083884       0.84793990       0.01084214      -0.00870627       0.00320038
C        4.12044199       5.91010275       1.26471794       0.00537872      -0.00415012       0.00460629
C        5.84423444       9.08444631       0.67035241       0.01186111      -0.00923771       0.00118197
C        2.65881892       5.58564868       1.44080047       0.00328618       0.00309490      -0.00102487
H        6.25754304       7.24010483       1.70469486       0.00894052      -0.00798993       0.00462717
H        6.01391825       7.05987001      -0.03943318       0.01148608      -0.01066893       0.00472367
H        4.53497205       5.36048092       0.40247119       0.00665097      -0.00820050       0.00805509
H        4.69550607       5.60055418       2.15279430       0.00028199      -0.00391236       0.00776649
H        6.89635418       9.31328496       0.49618537       0.01186380      -0.00990272       0.00164736
H        5.26993322       9.45676104      -0.17592233       0.01290965      -0.01071487       0.00003678
H        5.52202477       9.62178226       1.55851940       0.01102442      -0.00808377       0.00008842
H        2.54262923       4.51042082       1.59541412      -0.00284261       0.00456136       0.00311082
H        2.24147863       6.11553021       2.29546835       0.00206714       0.00844942      -0.00504659
H        2.08226659       5.89002622       0.56991650       0.00916801       0.00176170      -0.00522241
O        4.46039500       2.74094873      10.25586478      -0.00680166       0.00595018       0.00328010
C        4.97592038       1.75248970      11.13777746      -0.00498164       0.01022510       0.00667471
C        3.07152020       2.89902778      10.43885846      -0.00750840       0.00145236       0.00059524
C        6.44143733       1.53876180      10.87695241      -0.00525224       0.00995164       0.00612605
C        2.54804921       3.87579619       9.41671288      -0.00953548      -0.00455642      -0.00378641
H        4.80290242       2.09148268      12.17503836      -0.00458840       0.01359010       0.00548738
H        4.43653562       0.80945827      10.97898146      -0.00419629       0.00942928       0.01009503
H        2.57189023       1.92358868      10.33415351      -0.00346351      -0.00071198       0.00334074
H        2.86825796       3.25985166      11.46068823      -0.01078464       0.00434241      -0.00126004
H        6.80123192       0.71693218      11.49787556      -0.00370617       0.01487866       0.01155233
H        6.59826880       1.23834047       9.84191565      -0.00649150       0.00267836       0.00818998
H        7.02392504       2.43305218      11.08176337      -0.00495917       0.01112765      -0.00040378
H        1.48811963       4.07068506       9.58384626      -0.01148306      -0.01196138      -0.00882701
H        3.08853710       4.81899918       9.48215284      -0.01675279      -0.00054282      -0.00387003
H        2.67424607       3.47243129       8.41254498      -0.00246919      -0.00618744      -0.00206290
