140
Lattice="12.409578434259377 0.0 0.0 0.0 12.409578434259377 0.0 0.0 0.0 12.409578434259377" Properties=species:S:1:pos:R:3:forces:R:3 energy=-1091248.375 stress="0.00025141797959804535 -1.5572100892313756e-05 8.353963494300842e-07 -1.5572100892313756e-05 -4.6091940021142364e-05 0.0005994328239466995 8.353963494300842e-07 0.0005994328239466995 0.0009221885702572763" pbc="T T T"
Es      11.87478873      12.42256395      -0.12892875      -0.02450119      -0.01963143      -0.01298784
Cl       6.65637309      11.69235950       8.13968804       0.00246336       0.00214958       0.00310695
O        7.91686828      11.90834833       8.95610582       0.01564264       0.00634718       0.01281101
O        5.44860677      12.44198110       8.65292295       0.01381660      -0.01188457      -0.00239944
Cl       2.76401775      13.01227475       4.44119507      -0.00536031       0.01055300      -0.01717281
O        3.59129450      12.48335064       3.25695800      -0.00393873       0.00541848      -0.01507807
O        1.26518242      12.74307245       4.32231946      -0.00199914      -0.00420573      -0.01064487
Cl       2.01181761      11.64941281       1.08983909      -0.02327514      -0.00926509       0.00593334
O        1.43946046      13.12156103       0.89921264      -0.03265859      -0.01413894      -0.01698082
O        1.05039074      10.77462694       0.13472731      -0.02355275      -0.03175336       0.03023624
O        1.00908930       7.68126458       4.11830282      -0.00347713       0.00476283       0.00689795
C        2.65188061       9.34764514       4.13379166      -0.00455368       0.00827265       0.00210690
C        1.70063481       9.64946165       5.29731952       0.00158980       0.00249761       0.00842944
C        1.77103366       8.50064377       3.23270380      -0.00194341      -0.00006637       0.00276375
C        0.74426477       8.44696331       5.30465309      -0.00254130       0.00295520       0.00791369
H        3.01943685      10.24925340       3.64465561      -0.00463858       0.00278175       0.00423972
H        3.51065011       8.76580903       4.47285671      -0.00118658       0.00225215       0.00131784
H        2.21644142       9.76456457       6.25036227       0.00184932       0.00034296       0.00439522
H        1.16279944      10.57679473       5.09939264       0.00033835       0.00488257       0.00889622
H        1.10716192       9.14168022       2.63406451      -0.00949958       0.00701264       0.00713474
H        2.31768811       7.83867458       2.55700711      -0.00979877       0.00808796       0.00446069
H        0.89844023       7.78877574       6.16022594      -0.00266205       0.00435725       0.00582755
H       -0.30365869       8.76594011       5.31260488      -0.00143534       0.00562820       0.00686669
O        5.28948381       8.55369445      11.39724829      -0.00248188      -0.00564438       0.00311014
C        3.39541250       8.31493914      10.01986192      -0.00816429      -0.00192529       0.00224143
C        4.09950379       9.61835865       9.64832112       0.00113189      -0.00719213      -0.00614694
C        3.93614487       8.08367491      11.42092565       0.00025082      -0.01857412       0.00092876
C        5.48387269       9.39176111      10.24557277       0.00038925      -0.00038418       0.00708479
H        2.30859357       8.38504550       9.98896152       0.00359514      -0.00821567      -0.00162551
H        3.71447859       7.50605716       9.35808185       0.00292806      -0.00689697      -0.00368008
H        4.13165785       9.81882751       8.57910945      -0.00066642      -0.00274684       0.00851876
H        3.60734278      10.46670356      10.12940017      -0.00304383      -0.00392663       0.00727409
H        3.35866808       8.66712167      12.15304952      -0.00536260      -0.01007274       0.00207198
H        3.94265591       7.03631511      11.72782315      -0.00071685      -0.00524694      -0.00402598
H        6.14236471       8.87276523       9.53874900      -0.00155723      -0.00780869       0.00166723
H        5.98052919      10.31297695      10.55894375      -0.00199196      -0.00942230       0.00250563
O        5.55604437       4.63208072      10.00443458      -0.00629023      -0.00239110      -0.00089385
C        5.91099722       2.50687420      10.97750930       0.00281223      -0.00690973      -0.00469553
C        7.21781693       2.98223981      10.34381108       0.00347507       0.00600791       0.00379215
C        4.90483638       3.37589464      10.23887971      -0.00338328      -0.00295228       0.00504759
C        6.96882868       4.48023667      10.23369354      -0.00457200       0.00459981      -0.00467554
H        5.72277843       1.44534412      10.83065860       0.00853361       0.00176319       0.00029109
H        5.89868281       2.73346946      12.04762935       0.00440748      -0.00038178       0.00260141
H        8.10312045       2.75713349      10.93937900       0.00088023       0.00854639      -0.00449096
H        7.33722988       2.52555141       9.35851235       0.00120972       0.00523344      -0.00449386
H        4.64286538       2.91458567       9.27812024      -0.00180073      -0.00704384       0.00122112
H        3.98409874       3.56321387      10.79676913       0.00088683      -0.00840867       0.00268295
H        7.22959664       4.98875032      11.16835606      -0.00814749       0.00432637       0.00193179
H        7.50698102       4.96687983       9.41803551      -0.00850552       0.00631911       0.00215065
O       12.23346992       9.59393434       8.27027227      -0.00642151      -0.00454378       0.01060711
C       11.07428580      11.40763280       9.25717381       0.01280624       0.01146042       0.00408548
C       10.53827106      10.09700153       9.82781075       0.00880975       0.02009455       0.02012774
C       11.77923632      10.92500092       7.99155718       0.00046995      -0.00449386       0.00179017
C       11.68618328       9.14902611       9.52018683      -0.00257787       0.00492167       0.01625359
H       10.29144134      12.13858797       9.06338029       0.01682898       0.01453400       0.00432546
H       11.81822575      11.85271538       9.93820522       0.02381684       0.01227623      -0.00872135
H       10.28605801      10.14572702      10.89012625       0.01857859       0.02923336       0.02268609
H        9.63230197       9.81463124       9.28831083       0.00165978       0.02372375       0.03084534
H       11.07306306      10.89915359       7.15356605      -0.00810757      -0.00744801       0.00847793
H       12.63293150      11.54140933       7.70244784       0.00042897      -0.01273987      -0.00977732
H       12.45658903       9.21535374      10.30097613       0.00429887       0.00255697       0.01082101
H       11.38324471       8.10583606       9.41070002      -0.01414108       0.01061535       0.02446943
O        8.56696387       6.44847326       7.35772671       0.00381339       0.00663713       0.00800791
C       10.56835461       6.09167909       6.18635329      -0.00188315      -0.00609814       0.00065771
C        9.60211887       6.82772920       5.25986581      -0.00096640      -0.00107376       0.00346041
C        9.59327737       5.47103307       7.17324181      -0.00077707       0.00123162       0.00688571
C        8.58922381       7.37669600       6.25898546       0.00278363       0.00305366       0.00520003
H       11.20078513       5.36135771       5.68178777      -0.00734341      -0.00849706       0.00079820
H       11.21392043       6.80906370       6.69806642       0.00347421      -0.00655532      -0.00182189
H       10.07460170       7.60956527       4.66560885      -0.00055489      -0.00581124       0.00090721
H        9.11885767       6.12346637       4.57716945      -0.00731564      -0.00194296       0.00570156
H        9.15462625       4.54928863       6.76244086      -0.00708669       0.00238734       0.00909162
H       10.02944689       5.24068547       8.14755026       0.00104050       0.00107617       0.00454056
H        8.90785749       8.35487923       6.63962301       0.00852016       0.00377750       0.00237891
H        7.58049456       7.45797547       5.85128120       0.00295115       0.00629037       0.00864504
O        8.15265458      10.47663812       1.25984952       0.00630113       0.00780530      -0.01094100
C        5.82247945      10.35014828       1.69963465       0.00492400       0.00392379       0.00197157
C        6.33424892      11.73384226       2.09017718       0.00245956       0.00878519      -0.00651228
C        7.11425738       9.54608178       1.63616025       0.00841212       0.00620984      -0.00868744
C        7.62181292      11.80685501       1.28876097       0.00314507       0.00666597      -0.00736523
H        5.10677710       9.94195880       2.41253371       0.00631122       0.00649547      -0.00223598
H        5.34937792      10.37157278       0.71591233       0.00433510       0.00641066      -0.00462347
H        5.63629114      12.53531932       1.85953468       0.00770923       0.00625992      -0.00290527
H        6.54220163      11.76793138       3.16269657       0.00914139       0.00711438      -0.00169230
H        7.36673449       9.12327068       2.61745194       0.00791930       0.00772361      -0.00426656
H        7.07417709       8.74313685       0.89913029       0.00550861       0.00651398      -0.00161302
H        7.42503201      12.14320784       0.26151027      -0.00924744       0.00546602      -0.00796902
H        8.37196213      12.46605430       1.73592126       0.00414589       0.00521538      -0.01695105
O        5.80428798       5.72938390       5.61915045       0.00091687       0.00214005      -0.00203839
C        3.52671042       6.29970075       5.96518357      -0.00480920      -0.00337574      -0.00162368
C        3.98624090       5.32594113       7.04895438      -0.00006849       0.00668696       0.00845236
C        4.62213795       6.13178803       4.91696135       0.00212592       0.00714352      -0.00152174
C        5.48814375       5.53733055       7.00874090       0.01016575      -0.01822205      -0.00073823
H        2.53757967       6.09713199       5.55932969       0.00594103       0.00715930       0.00700226
H        3.52461554       7.31977260       6.35872375       0.00683334       0.00498042       0.00703637
H        3.56466451       5.52316542       8.03292612       0.00705060      -0.00392449      -0.00291827
H        3.73263312       4.30006783       6.76871486      -0.00044587      -0.00334373      -0.00354935
H        4.35836823       5.35030627       4.19433219      -0.00305553       0.00052497       0.00156766
H        4.83322411       7.04677197       4.35614137      -0.00116269      -0.00112963       0.00120609
H        5.77287860       6.42793045       7.58151456       0.00669046      -0.00269723       0.00328493
H        6.07940849       4.70215049       7.38055641      -0.00236422      -0.00091013      -0.00864552
O       10.25543872       5.57899486      -0.15116861       0.00094377       0.00406995      -0.01295128
C       11.46487030       7.01271205       1.33458995       0.00386578      -0.00169477      -0.00941575
C       10.12067118       7.63064003       0.94648391       0.00033244      -0.00517404      -0.00332268
C       11.55540301       5.78250311       0.41725157       0.00279686       0.00105640      -0.01468623
C        9.32668493       6.39619772       0.56014965       0.00019239      -0.00590271      -0.00229383
H       12.30157169       7.69454313       1.19278099       0.00180864       0.00224349      -0.01369941
H       11.46443279       6.72038855       2.38608460       0.01218277      -0.00255084      -0.01071116
H        9.66232909       8.21457678       1.74280575       0.00483605      -0.00327708      -0.00244176
H       10.22934450       8.27972769       0.07565464      -0.00906857      -0.01398158      -0.01119396
H       12.25394392       5.93016604      -0.41087714       0.00159198       0.00166818      -0.01344278
H       11.86541081       4.88824726       0.96926633       0.00020732      -0.00186926      -0.01626217
H        8.95943987       5.86891855       1.45352615       0.00291111      -0.01372087      -0.00429720
H        8.48311442       6.59404780      -0.10160067       0.00070199       0.00136099       0.00140491
O        9.94920187       3.10149835       2.02815509       0.00649872       0.00388016      -0.00982622
C       11.14891482       1.21172575       2.71632813      -0.00375735      -0.00188601      -0.00283194
C       11.52735217       2.35689421       3.66371337      -0.00258285      -0.00217117      -0.00302637
C       10.64911812       1.99455877       1.51014826      -0.00221281      -0.00427628      -0.00486074
C       10.53141455       3.46175189       3.29777344       0.00459468       0.00242963      -0.00820020
H       12.01169798       0.56932351       2.51939319      -0.01062897      -0.00650269       0.00047324
H       10.33928096       0.60387754       3.12786441      -0.01051009       0.00367479       0.00121751
H       11.47136980       2.06027938       4.70919010      -0.00042470       0.00250155      -0.00631842
H       12.55580823       2.66193652       3.46993523       0.00195062      -0.00433679      -0.00723025
H       11.50763011       2.32988776       0.88669191       0.00096682      -0.01358151      -0.00742504
H        9.95896244       1.43978714       0.85524898      -0.00550927      -0.00177205      -0.00156267
H        9.71171678       3.54697796       4.01241094       0.00133848       0.00282088      -0.00867397
H       11.01132908       4.44057739       3.20491905       0.00502899       0.00020576      -0.00555889
O        7.07166734       1.75152266       6.49929149      -0.00148587       0.00753158       0.00251591
C        5.73434172       2.41092983       4.63304615      -0.00501090       0.01766888       0.00368726
C        7.19847890       2.79879277       4.42300258       0.00113749      -0.01484561      -0.01841167
C        5.70546012       1.95164930       6.09667374      -0.00338109      -0.01492867      -0.00382477
C        7.88828919       1.79982091       5.33793721       0.01143977       0.01112550       0.01030451
H        5.05119791       3.23868621       4.45189161       0.00619748      -0.00684094       0.00051416
H        5.45352033       1.59509455       3.96789084      -0.00249777      -0.00638273      -0.00931610
H        7.52313399       2.72893116       3.38455308      -0.00044233      -0.00489676       0.00624925
H        7.36656643       3.81715323       4.78126816       0.00081749       0.00683799      -0.00214599
H        5.28389422       2.69903882       6.76963175      -0.01229410      -0.00954205      -0.00077391
H        5.14133531       1.02475598       6.23415196       0.00997910      -0.00812072      -0.00860058
H        7.93973045       0.80834593       4.85999859      -0.00051185      -0.00462008       0.00472525
H        8.89529881       2.08164715       5.65328739      -0.00648341       0.00150213      -0.00042102
