147
Lattice="12.656847799255758 0.0 0.0 0.0 12.656847799255758 0.0 0.0 0.0 12.656847799255758" Properties=species:S:1:pos:R:3:forces:R:3 energy=-438268.03125 stress="-0.0007090647122822702 -0.0002136917901225388 0.000605457928031683 -0.0002136917901225388 -0.0010146454442292452 -0.0003901658346876502 0.000605457928031683 -0.0003901658346876502 -0.0006323348497971892" pbc="T T T"
Eu      11.32118576      12.65668027      -0.87144660       0.00629903      -0.00267300       0.00119177
O        9.64089446      12.60131578       7.37560029      -0.02368063       0.00804311      -0.02268630
H        9.98964942      11.69620027       6.94161272      -0.01999079       0.01682866      -0.01858911
O        4.98808538      13.46364755       3.31874266       0.00022251      -0.01079792       0.00981594
H        4.29323356      12.81203786       3.45291919      -0.00211018      -0.00805055       0.00663135
O        9.65247801      12.84864034       9.96261077       0.00909914       0.00961687      -0.02743649
H        9.70783757      12.69824663       8.37928809      -0.02379677       0.01749810      -0.01192510
O       10.77024936       7.04746775       1.63428574       0.00213209      -0.00038815       0.00864209
O       12.75579566       7.84334963       1.01997181      -0.00079989      -0.00352180      -0.00447280
O       12.55823383       5.67720637       1.59298958       0.00182831       0.00251240       0.01089598
C       10.51001215       8.36493953       1.08998624      -0.00081378      -0.00415874       0.00112034
C       11.88402291       8.99802262       1.10289634      -0.00100034      -0.00367880      -0.00913990
C       12.06550644       6.75706182       1.43349866       0.00220314      -0.00367177       0.00630800
H        9.79642678       8.87159613       1.72562636       0.00144218      -0.00065121       0.00045064
H       10.09446414       8.25327516       0.09172350      -0.00361858      -0.01167270       0.00317919
H       12.07749100       9.62309226       0.23858593      -0.00541636      -0.01047692      -0.01486778
H       12.11182766       9.53348569       2.02493130       0.00276247       0.00281681      -0.01387298
O        9.52907818       1.90081050       4.24905935       0.01814711      -0.00097066       0.00524938
O       11.32821782       3.17338562       4.42801813       0.01301271       0.00835721      -0.00888592
O       10.77749290       1.82828039       6.11715843       0.02465844       0.00533891      -0.00291553
C        9.71749845       2.48523891       2.91147856       0.00069147      -0.00036229       0.00436729
C       10.68053576       3.61670260       3.18813120      -0.00181766       0.00388616      -0.00378859
C       10.55158504       2.26909481       4.99907452       0.02120349       0.00677297      -0.00263104
H        8.76072886       2.81404652       2.52735890      -0.00366732      -0.00160378       0.01293156
H       10.13941847       1.70410926       2.28810028      -0.00143425       0.00305071      -0.00141107
H       11.45138469       3.75704953       2.43987508      -0.00645104       0.00708569      -0.00700301
H       10.17931608       4.56343123       3.39039831      -0.00333950       0.00108013       0.00420678
O        9.89019785      11.10805139       0.26221802       0.00544503      -0.00114498       0.00325429
O        9.29644084      11.64326072       2.40271709       0.00096849       0.00519342       0.00013018
O       11.03761846      12.61216800       1.42977201      -0.00064260       0.00680386      -0.00187545
C        7.16844155      11.60525866       1.25015511       0.00201953      -0.00517599      -0.00137347
C        7.95682696      11.33409546       2.28105874       0.00151563       0.00191801       0.00093988
C       10.09093448      11.77930694       1.30755135       0.00105898       0.00318145       0.00090772
H        6.12839292      11.32089339       1.32451146       0.00251184      -0.00632045      -0.00026137
H        7.51902776      12.08630852       0.34897201       0.00141130      -0.01016287      -0.00406144
H        5.66619471      13.00470309       2.81269705      -0.00719850      -0.00683293      -0.00423954
H        7.59796966      10.90008957       3.20454019       0.00148672       0.00689594       0.00313220
O        7.33202961       4.70329930       3.51539097       0.00214466      -0.01091431       0.00779520
O        5.23052696       5.26674161       3.95286397       0.00377816      -0.00238675       0.00381950
O        6.64055434       6.80857455       3.12289142       0.01164895      -0.00764495       0.01089710
C        6.65922564       3.46257420       3.85603626      -0.00442135      -0.00841743       0.00268178
C        5.39140434       3.94463252       4.52432684      -0.00391898      -0.00413087       0.00063720
C        6.42490786       5.68726424       3.49599659       0.00668503      -0.00573319       0.00786689
H        7.30950401       2.88892783       4.50814875      -0.00887661      -0.01359926       0.00257072
H        6.45697302       2.92037129       2.93261433      -0.00444701      -0.00496875       0.00068718
H        4.52195032       3.34424979       4.27485234      -0.00622961       0.00088662      -0.00315294
H        5.50242898       4.05684523       5.60398245      -0.00624886      -0.00733814       0.00101632
O       11.78987337       1.85216054      10.18339340      -0.00201985       0.02728359       0.01952258
O        9.03453229       2.38805006      10.11424476       0.01442286       0.00899822       0.00775443
O        9.13767645       1.12505572      11.92374503      -0.01746884      -0.02478915      -0.01651999
C       11.29623067       2.36684702       9.17950016       0.00786597       0.02500263       0.01360989
C        9.85610548       2.71635220       9.01037417       0.00590485       0.01138417       0.00375983
C        9.24736393       1.18004125      10.68757723       0.00258392      -0.00173375      -0.01298523
H       10.07224612       0.71229515       6.85416405      -0.01324478      -0.00798988      -0.04484554
H       11.93113260       2.60132824       8.31129176       0.01451745       0.02635063       0.01895454
H        9.79355361       3.80319245       8.90607789      -0.01337379       0.00885218      -0.00473846
H        9.48482728       2.32390636       8.05922307       0.01302432      -0.00999092       0.00989842
O        9.91781479       4.90418606       6.55128175       0.00668807       0.00248009       0.00219847
O        9.67631196       7.10123957       6.82004903       0.00110656       0.00291443      -0.00844470
O        7.85397149       5.80837684       6.51675431       0.00861403      -0.00268486      -0.00474089
C       11.24971001       5.39698117       6.81419117       0.00461906       0.00665677       0.00278276
C       11.09786614       6.90373079       6.65595584       0.00177294       0.00565785      -0.00462610
C        9.03778141       5.92693113       6.62652892      -0.00057954       0.00060879      -0.00445166
H       11.92222715       4.93456010       6.09675601       0.00687262       0.00465915       0.00664368
H       11.52680725       5.11263602       7.83086460       0.00234740       0.01241320       0.00483164
H       11.61463300       7.48406254       7.41610433      -0.00184605       0.01034606      -0.00611973
H       11.37549100       7.26648820       5.66746572       0.00262476       0.00182478      -0.00561139
O        2.80245926       7.91202309       3.07725721      -0.00208969       0.00937980       0.00043973
O        0.75036755       8.33565139       3.82926679      -0.00497981      -0.00333464      -0.00188328
O        1.86976435       9.91893964       2.68293671      -0.01392291       0.00881970      -0.00482458
C        2.29826219       6.62722195       3.51126699       0.00603202       0.00649083       0.00233644
C        1.03768810       6.99483234       4.28019460       0.00415531      -0.00073712       0.00154871
C        1.81419334       8.82334521       3.16231147      -0.00794127      -0.00632060       0.00258416
H        3.06389441       6.15263125       4.11428077       0.00915673       0.01186465       0.00302732
H        2.07923752       6.02955659       2.62781846       0.00977314       0.00371695       0.00321299
H        0.19485589       6.35825365       4.01636742       0.00833595      -0.00719947       0.00312550
H        1.18823178       7.03053699       5.35763402       0.00390330       0.00269946       0.00163496
O        4.98723271       9.65764959       9.19124719       0.00579894       0.00757497       0.00316361
O        5.51941053      11.75146612       9.72743413       0.00402665       0.00960177      -0.00502105
O        3.39134723      11.05650103       9.94363783      -0.00328928       0.01016618      -0.00010103
C        6.34843076       9.83575917       8.72045629       0.00528905       0.00747192       0.00034291
C        6.78094901      11.10232951       9.43524111       0.00420153       0.00793740      -0.00189938
C        4.52671587      10.84237339       9.63618442       0.01679975       0.00592600      -0.00476572
H        6.30539829       9.96481582       7.64034770       0.00394817       0.00498760      -0.00006494
H        6.92813802       8.95632540       8.98675680       0.00681309       0.00801313       0.00061961
H        7.29970440      10.91099413      10.37671944       0.00224635       0.00949130      -0.00050610
H        7.36801564      11.77144667       8.81329529       0.00619318       0.00626887      -0.00260034
O        2.82813396      11.40116274       0.07551060      -0.01592734       0.00093734      -0.00775650
O        1.62188501       9.75770547      -0.77709927      -0.00226802      -0.00533903      -0.01574519
O        0.79997840      11.82729410      -0.77489774      -0.01100560      -0.01108655      -0.01675311
C        3.68041764      10.23287157       0.22197704      -0.01073122       0.00655274      -0.00466818
C        2.85490792       9.09630627      -0.38546122      -0.00130409       0.00176376      -0.00795836
C        1.71364207      11.04103137      -0.51247459      -0.01041403      -0.00577191      -0.01373960
H        3.85792671      10.09896572       1.28531222      -0.01484598       0.00843942      -0.00438586
H        4.59934985      10.43457531      -0.32425465      -0.01083222       0.01252991      -0.00132078
H        3.28749323       8.67146944      -1.28752197       0.00539902       0.00362663      -0.00504625
H        2.59406994       8.31967132       0.32775640      -0.00214122       0.00204557      -0.00865105
O        3.75950675       3.56386423      11.99345770      -0.00280271       0.00515237      -0.00624812
O        3.82677818       3.88614846       9.79471959       0.00423056      -0.00439647      -0.00724260
O        2.82745036       5.41538159      11.11083605       0.00515175       0.00329822      -0.01637427
C        4.59823057       2.49737770      11.49456976      -0.00412676       0.00129035       0.00063866
C        4.37668077       2.56366240       9.98668582      -0.00021864      -0.00505158      -0.00008136
C        3.41246040       4.37954686      10.98094300       0.00201753       0.00247085      -0.01061951
H        4.26655068       1.56293881      11.94101303      -0.00737546       0.00423840       0.00423546
H        5.62774458       2.71076693      11.78664192      -0.00446868       0.00012165       0.00222746
H        5.29715828       2.49120004       9.41209219       0.00082725      -0.01054754       0.00262493
H        3.65397706       1.83107793       9.62767347      -0.00158903      -0.00460860       0.00153700
O        2.66845474       8.00497116       6.86899973      -0.00735253       0.00764042       0.00724798
O        4.56953338       8.97739092       6.22656636       0.00163856      -0.01162329       0.00490921
O        2.65529803      10.16944853       6.22769815      -0.00096345       0.01969469      -0.01880184
C        3.68725705       7.01460617       7.11012256      -0.01498269       0.00253722       0.02007920
C        4.90207871       7.58486624       6.39282081      -0.00727767      -0.01203092       0.02254090
C        3.24149924       9.15542398       6.42804167       0.01854792      -0.02850896       0.00269764
H        3.35456609       6.06438435       6.69346059      -0.01989586      -0.00023919       0.02440335
H        3.83002065       6.91436648       8.18514339      -0.02277234       0.00809465       0.02304065
H        5.81272884       7.50057922       6.97993593      -0.00930145      -0.01092048       0.02991858
H        5.06001272       7.15850386       5.40313895      -0.00172638      -0.02537017       0.02763894
O        9.93950213       5.73710055      10.02156683       0.00225255       0.00374925       0.00419259
O       10.39057415       7.89609139      10.30691486       0.01364277       0.00193048      -0.00112176
O        8.33596716       7.26862446       9.62071269       0.01316363       0.01034378       0.00154547
C       11.19225643       5.77518484      10.75333090       0.00247490      -0.00093600       0.00338778
C       11.64595114       7.20327187      10.51944104       0.01006013      -0.00408933      -0.00065657
C        9.44853702       6.99622755       9.95775090       0.00504988       0.00696674      -0.00016579
H       11.86935885       5.03192378      10.33716797      -0.00198124      -0.00534864       0.00511539
H       10.97686431       5.54139439      11.79705351       0.00168258       0.00276748       0.00400400
H       12.15907536       7.65162730      11.36406145       0.01279668      -0.00492220      -0.00225100
H       12.25965799       7.31414062       9.62359596       0.00974770      -0.00999898      -0.00156990
O        8.36755467       9.97432188       5.84890569       0.01314312      -0.02002454       0.01388055
O        9.99186433       9.11312487       4.61429503      -0.00676244      -0.02065206      -0.01155531
O       10.47849093      10.67627381       6.12523523       0.01746008      -0.02710170      -0.00545313
C        7.72972823       8.85732592       5.15797217      -0.00677443      -0.00243399       0.00517051
C        8.79792770       8.40514939       4.17332817      -0.01744902      -0.00493896      -0.00583524
C        9.65972097       9.96626582       5.56298240       0.01049718      -0.02557899      -0.00093196
H        6.81874112       9.21737514       4.69023868      -0.00522271       0.01255527       0.01168497
H        7.50698677       8.10149630       5.90263208      -0.01419529      -0.01051155      -0.00479439
H        9.00388682       7.34032277       4.20643384      -0.02271780      -0.00565487      -0.01554845
H        8.58018023       8.69788409       3.15217555      -0.02060674       0.00589578      -0.00220147
O        8.25614962       6.53005229      12.60939806       0.00146830      -0.00260946       0.00248337
O        6.81056010       4.88209357      12.98789480       0.00179239      -0.00146756       0.00803978
O        9.02180327       4.50312382      13.22270545       0.00254256      -0.00064152       0.00946066
C        6.95583003       7.15472234      12.53520938       0.00128630      -0.00326842       0.00223918
C        6.01730832       5.96128769      12.44199015       0.00216782      -0.00365107       0.00334154
C        8.11283673       5.23607841      12.96708621       0.00066739      -0.00048208       0.00668472
H        6.94133024       7.78864868      11.65174551       0.00055949      -0.00358166       0.00217772
H        6.80705360       7.73369303      13.44614799       0.00102142      -0.00302607       0.00204179
H        5.11190163       6.05677647      13.03613749       0.00066921      -0.00294896       0.00093699
H        5.76317212       5.71540485      11.40962372       0.00473534      -0.00665854       0.00337192
