144
Lattice="12.443848426471208 0.0 0.0 0.0 12.443848426471208 0.0 0.0 0.0 12.443848426471208" Properties=species:S:1:pos:R:3:forces:R:3 energy=-436039.1875 stress="0.00017092614143621176 -0.0005133537342771888 -0.00037482216430362314 -0.0005133537342771888 -0.0006173562142066658 0.0006662496307399124 -0.00037482216430362314 0.0006662496307399124 -0.000567212759051472" pbc="T T T"
Eu      13.44730020      11.59938066       1.78830973       0.01669076       0.01064139       0.01779396
B        7.05018964       9.40107689       1.42012836      -0.00019815      -0.00444920      -0.00414833
F        6.16641962       8.67220511       2.19380128       0.01860768      -0.02538908      -0.00203729
F        7.41470786       8.60199854       0.27896160       0.01093048       0.00601107      -0.00990677
F        6.43326298      10.57492248       0.96073270      -0.02730983      -0.01789367       0.00054270
F        8.21389068       9.70743983       2.11185303      -0.00295985       0.01503637      -0.01050335
B       12.05420300      11.01721177       4.28749989      -0.01481125      -0.00901582      -0.00364792
F       12.32721963      10.73275055       5.57015142      -0.01074048      -0.02520480      -0.00750688
F       12.72103915      12.26024070       3.87511112      -0.00779021      -0.00461276       0.00936133
F       12.76788104      10.06419648       3.36957291      -0.02525608      -0.00262686      -0.01272835
F       10.75183403      11.03945641       3.94581097      -0.01597142       0.01072059       0.00287522
B        5.94589884      12.05372961       4.96010416      -0.04298937       0.00059474      -0.02197863
F        4.64130775      12.38817132       4.35892199      -0.04331481      -0.03564167      -0.03805135
F        6.83232327      13.05750228       4.52288024      -0.06098527       0.01868778      -0.01758823
F        5.79046001      12.09325117       6.33065847      -0.06007208       0.00897680      -0.02365994
F        6.31847287      10.82120758       4.50488907      -0.00674066       0.00736463      -0.01018107
O       10.13425294      11.14656463      -0.04308658       0.01052976      -0.01966999      -0.04455284
O       11.43190688      12.29457061       1.26440438       0.02789807      -0.04700549      -0.04017090
C        9.07225756      12.53119113       1.64035906       0.03056800      -0.00845990      -0.04328427
C       10.24854484      11.98680921       0.92050601       0.02304909      -0.02746190      -0.04236816
H        8.19798651      12.59133120       0.99627651       0.02640676      -0.01438230      -0.03784515
H        8.82292580      11.81061461       2.42633203       0.03337079       0.00785792      -0.02822396
H        9.29947025      13.48346353       2.11164863       0.04018499      -0.00120829      -0.06233404
H        9.20211205      11.05663219      -0.45023131       0.00396043      -0.00755575      -0.03763130
O        4.45769802       1.58780845       2.50511130      -0.01256093       0.02769512       0.01277208
O        2.36797340       0.91536374       2.09889800      -0.00974293       0.03362317      -0.00586426
C        3.22540289       2.84879686       0.95810695       0.01152358       0.01292944      -0.02017432
C        3.32381028       1.70832702       1.90462746      -0.00459826       0.02692474      -0.00302652
H        3.41083700       3.77697485       1.49950323       0.03731002       0.01945561      -0.04125009
H        3.98587946       2.76966371       0.17964574       0.00175631      -0.02060364      -0.02644973
H        2.23893734       2.88948997       0.50714842       0.00880408       0.02454484      -0.01277073
H        4.50550916       0.85895556       3.21784352      -0.02531688       0.01620772       0.00100541
O        8.55740539       3.95674027       2.00130197      -0.00278187      -0.01663162       0.02814882
O        7.93678031       4.04590524       4.15164846      -0.02729100       0.01942503       0.01826465
C        6.32635228       4.58674995       2.44987006      -0.00116885       0.01285258      -0.00761527
C        7.65322992       4.17796949       2.99053673      -0.01260620       0.00640063       0.01337600
H        6.40455980       5.58547380       2.01801900       0.00991038       0.01581961       0.00076880
H        5.99639517       3.90379597       1.66869302       0.01277702       0.01800554      -0.01756848
H        5.59414496       4.61250594       3.24919680      -0.01271401       0.00993457      -0.01861182
H        9.40077252       3.76265854       2.43518360      -0.01257773      -0.01669400       0.04721996
O        9.92082970       3.28657295      11.92606780       0.01532406       0.00796747       0.01582131
O        9.38595441       1.33654776      10.97567729       0.03667039       0.01724339      -0.01634386
C        7.61376929       2.84413881      11.61667401       0.02094924      -0.01463723       0.01402402
C        9.02367841       2.38089041      11.45084247       0.02582800       0.00491154       0.00263155
H        7.41737234       2.98805790      12.67655570       0.02290135      -0.03251863       0.01681942
H        7.47135829       3.81419699      11.14034335       0.00832886      -0.00929269       0.02860204
H        6.92883012       2.11933003      11.19036184       0.02833989      -0.01661466       0.00588242
H       10.78918669       2.88487022      11.78340557       0.02045128       0.02271578       0.00539364
O       11.04990377       4.58238990       7.50799548      -0.00485212      -0.01370764      -0.01040113
O       11.36372566       4.29368689       5.30676981      -0.00953263      -0.01328307      -0.01141846
C        9.68819359       5.85183445       6.06343772       0.00285453      -0.00230259      -0.00664174
C       10.76239598       4.82755769       6.20353398      -0.00396770      -0.00999135      -0.00979644
H        8.84352183       5.61515398       6.70678083       0.00015773      -0.00087017      -0.00951204
H       10.07918753       6.82269006       6.37642178       0.00782433      -0.00620696      -0.00112063
H        9.34948942       5.90583834       5.03478653       0.00468855       0.00459060      -0.00676915
H       11.72255068       3.88776763       7.50815416      -0.01098049      -0.01961324      -0.01080677
O        1.69547037       6.62021169       2.28484570       0.00149250      -0.00897110       0.03936068
O        3.80989464       6.21885095       1.64480167      -0.01398194      -0.00753385      -0.00880975
C        3.29819884       8.22328163       2.89814716       0.01565391      -0.00466734      -0.00068831
C        3.02143641       6.93883448       2.19496630      -0.00371617      -0.00500143       0.01017222
H        2.45360171       8.90509874       2.80554425       0.01753616      -0.00059087       0.01483169
H        3.38601441       7.96976576       3.95760860       0.03623135      -0.00193813      -0.00182894
H        4.24570447       8.64500906       2.57939390       0.01123276      -0.00939753      -0.02060018
H        1.59733999       5.65286863       2.14248340       0.00251652      -0.01144496       0.04079522
O        7.31972934       9.48841870       9.81797547       0.01975018       0.01604158       0.01662298
O        7.93643630      11.19828320      11.13999771      -0.00349873       0.02830812       0.01120579
C        5.98443073      11.41714656       9.78906125       0.00548035       0.00551200      -0.00164315
C        7.17851275      10.69855128      10.32656440       0.00754660       0.01693822       0.00836873
H        6.15449222      11.64883188       8.73468352       0.00925376      -0.00095014      -0.00228694
H        5.10795564      10.77093687       9.85196590       0.00863878       0.00124830      -0.00207878
H        5.82434063      12.33748222      10.34242884      -0.00338454       0.00816156      -0.00899284
H        8.15436160       9.08218270      10.16021802       0.02131341       0.02164561       0.02053583
O        1.61186494       9.52741848       0.22925566      -0.04481212       0.02910328       0.03712451
O        3.52609571       8.78079794      -0.74882702      -0.06202931      -0.01662885       0.02023243
C        3.50390738      10.90991057       0.43569603      -0.02227521      -0.00358862       0.00543344
C        2.97795033       9.62239153      -0.12332093      -0.04673946       0.03819019       0.04165223
H        2.96183776      11.76562179      -0.00359870      -0.02682333       0.00647990       0.02423928
H        3.38397356      10.90522040       1.53778424       0.00791141       0.00663227       0.01133436
H        4.57598464      11.00971288       0.26065521      -0.02702147       0.00198948      -0.01485153
H        1.30553841       8.64742390      -0.04798332      -0.06962067       0.03942072       0.05035374
O        2.03324197       9.73678691       6.78754734       0.00456786       0.01263869       0.01553567
O        2.14630537       8.31831645       8.52393516      -0.00798374       0.01261169       0.01554132
C        4.15225079       8.90349003       7.31012886      -0.00380498      -0.00519751       0.01331429
C        2.69222671       8.92562211       7.62823344      -0.00221634       0.00971070       0.01530439
H        4.30522191       8.85121148       6.23490848      -0.00722755      -0.02242140       0.01302160
H        4.60589406       9.84229443       7.63260762      -0.00241128      -0.00058591      -0.00453989
H        4.64264281       8.07621102       7.81203333      -0.00575828       0.00234263       0.02795742
H        1.09957262       9.78637116       7.04196358       0.00236467       0.00539091       0.00888211
O       11.44797421       7.09254407      10.29829158       0.01399517       0.00337726      -0.02912852
O        9.74334666       8.52369114      10.31734076       0.02297440       0.01438475      -0.00004321
C        9.28713307       6.15658261      10.35823769       0.00989419       0.01700097       0.00757845
C       10.13760395       7.37658014      10.33485295       0.01718420       0.01189315      -0.00715284
H        9.56963950       5.51080741       9.52595120      -0.00538716       0.01245272       0.00608876
H        9.46824840       5.60056056      11.27757979       0.01775513       0.01887134       0.00712034
H        8.23806363       6.43270999      10.29503330       0.01104599       0.02392124       0.02076469
H       11.92091641       7.93134382      10.18690666       0.02036406      -0.00093204      -0.03554168
O        9.70490597       7.52280508       0.90231991       0.00871250       0.00640079       0.00127697
O        8.77449120       6.83224625       2.83012118      -0.00545669       0.00626290      -0.00551254
C       11.16034856       6.95321351       2.65056613      -0.00368810      -0.01774301       0.00294289
C        9.75024534       7.09756263       2.16825886       0.00025308      -0.00067270      -0.00067666
H       11.56010325       6.00014064       2.29903854      -0.01184383      -0.01871644      -0.00374585
H       11.78972700       7.74425694       2.25503647       0.00443459      -0.01987087       0.01212280
H       11.18631906       6.94889460       3.73638325      -0.00727805      -0.02647271       0.00274573
H        8.77905508       7.79859510       0.68283706       0.01073867       0.00892801      -0.00206535
O        6.62792058       2.55893000       6.36669228      -0.00709701      -0.00983202       0.02351135
O        8.86946254       2.44954804       6.57728001      -0.00539863      -0.02216500      -0.00409847
C        7.56063937       3.41151259       8.34229442       0.02185701      -0.00578517       0.00778675
C        7.79326355       2.76399657       7.00961785       0.00221252      -0.01396143       0.00825518
H        7.06512567       4.37494133       8.22069776       0.03117949      -0.00106063       0.00720873
H        6.90532719       2.77468362       8.93604074       0.02025068       0.00474221       0.01706457
H        8.51119907       3.54171987       8.84691299       0.02775258      -0.01318169      -0.00148201
H        6.81481906       2.01916067       5.56661118      -0.02078785      -0.00768979       0.01871348
O        4.29813882       3.86576670       7.98874115       0.01764251      -0.00374162       0.00139943
O        4.35313560       3.09967365      10.09348292       0.02779680       0.00059956       0.00195044
C        4.04644762       5.46067006       9.71474617      -0.00079502      -0.00364101      -0.00097835
C        4.23672604       4.02878140       9.32902979       0.01594152      -0.00296956       0.00100473
H        4.95593840       6.01305291       9.46747708      -0.00641923       0.00463691      -0.00253110
H        3.24045527       5.93415389       9.15452212      -0.00532722      -0.01429024      -0.00280406
H        3.86679167       5.54314387      10.78205606      -0.00317186      -0.00186587      -0.00115952
H        4.52091114       2.93815683       7.80492005       0.03215414      -0.00084037       0.00179186
O        1.58155382       5.47179090       4.91026796      -0.00485674      -0.00365585      -0.00929552
O        1.48978624       4.07744655       3.15323832       0.01007840      -0.00037830      -0.01023996
C        2.19452081       3.22566350       5.27560856      -0.01034066      -0.00139546      -0.00315714
C        1.70410297       4.27803317       4.33777416      -0.00134179      -0.00279023      -0.00710809
H        3.28588605       3.21391721       5.21396544      -0.01003245      -0.00094030      -0.00189968
H        1.92363803       3.45338648       6.30227412      -0.01451460       0.00916202      -0.00641875
H        1.81682031       2.25339020       4.97259310      -0.00862702      -0.00424452       0.00220695
H        1.33685319       6.11403372       4.22067082       0.01346169      -0.00673106      -0.01968631
O       11.37439439      11.01092296       8.46091695      -0.01132411      -0.00300980       0.00050670
O        9.21441051      11.58729292       8.26046035      -0.01556993      -0.01389337       0.01692569
C        9.94622835       9.49942179       7.32387456      -0.00808294       0.00093728      -0.00892949
C       10.09288859      10.79660985       8.05366357      -0.01107228      -0.00631881       0.00393909
H       10.08138054       9.68521539       6.25770075      -0.02440660       0.01333322      -0.00868699
H       10.69045681       8.77516037       7.64894358       0.00291820       0.00438048      -0.02698937
H        8.93960922       9.12280960       7.48149034      -0.00228778      -0.01079600      -0.00010848
H       11.36820000      11.87377555       8.90081094      -0.01476441      -0.00995216       0.01421952
O        6.31980528       5.65221595       6.29987350      -0.00508343       0.00739038       0.02861887
O        4.68623792       6.21706130       4.88673578       0.00554061      -0.01192647       0.00892013
C        6.57500633       7.69784397       5.15657197      -0.00063908      -0.00430894       0.00793055
C        5.74629423       6.48754331       5.40850206       0.00085169      -0.00392419       0.01454645
H        7.01789514       8.06797343       6.07995966       0.00131235      -0.00030523       0.00526451
H        7.38657492       7.41918862       4.47855941      -0.00255907      -0.00639664       0.00638996
H        6.00965934       8.48117198       4.66612165      -0.00221260      -0.00660782       0.00573285
H        5.80331080       4.82995133       6.30925873      -0.00488570       0.00728992       0.03259982
