142
Lattice="11.397489013344508 0.0 0.0 0.0 11.397489013344508 0.0 0.0 0.0 11.397489013344508" Properties=species:S:1:pos:R:3:forces:R:3 energy=-382277.28125 stress="-0.002302763983607292 -0.0007245763554237783 -0.0008010180899873376 -0.0007245763554237783 -0.0010854812571778893 -0.0008634454861748964 -0.0008010180899873376 -0.0008634454861748964 -0.0020096583757549524" pbc="T T T"
Eu      12.13193941       9.92586215       1.99101799       0.00982921      -0.02525669       0.00347441
O        3.04096578      10.14911181       7.75581366      -0.00137541      -0.00081533      -0.00144586
O        4.03316062      11.54768719       6.36740362      -0.00447264       0.02199596      -0.02890676
C        5.46807795      10.10744912       7.54818438       0.00059694       0.00341618       0.00348000
C        6.58078226      10.89632218       7.25193255      -0.00125452      -0.00243527       0.00275069
C        5.65661633       8.81083761       8.02326683      -0.00123869       0.00321701       0.01234934
C        7.86144644      10.40790569       7.44955183      -0.00013137       0.00155418       0.00423300
C        6.94279376       8.31244788       8.19882535       0.00071211       0.00549126       0.01579928
C        8.04450149       9.11131536       7.91845313      -0.00075623       0.00342947       0.01125533
C        4.12592553      10.66516085       7.19332565       0.00258145      -0.03550535       0.03112611
H        6.41250542      11.87804215       6.82818966      -0.00027437      -0.00140649      -0.00253895
H        4.80023173       8.17890766       8.21969659       0.00071627       0.00515959       0.01633142
H        8.71845515      11.02095893       7.19761917      -0.00086635      -0.00006636       0.00205943
H        7.09833671       7.29490181       8.53572469      -0.00014164       0.00812489       0.02244789
H        9.04380330       8.71361380       8.04165704      -0.00029890       0.00472227       0.01369262
O        1.70604829       5.73392111       4.21528682      -0.00821328       0.01369250       0.00875640
O        3.08353592       6.11769420       2.48220870      -0.01828098       0.00180012      -0.00184250
C        2.34471400       7.97417226       3.74734887      -0.00378109       0.00948286      -0.00538617
C        3.10736819       8.86796054       2.98463307       0.00928932       0.00159025      -0.00193974
C        1.58188713       8.47249405       4.80459818      -0.00971099       0.01782502      -0.01390284
C        3.09153461      10.24778301       3.25372276       0.01248452       0.00319873      -0.00937327
C        1.50142214       9.84054549       5.03929837      -0.00237215       0.01965353      -0.01889056
C        2.24185222      10.73925258       4.26278549       0.00888819       0.01095921      -0.01742332
C        2.38551720       6.47066748       3.44703151      -0.01022322       0.00754833       0.00013793
H        3.73343627       8.43866974       2.21032037       0.01263563      -0.00435904       0.00460716
H        1.04504482       7.76238511       5.41717129      -0.02005966       0.02374796      -0.01660271
H        3.73732637      10.92579831       2.69894360       0.01630597      -0.00234857      -0.01084258
H        0.90286750      10.22044937       5.85675550      -0.00686696       0.02660041      -0.02602972
H        2.19378446      11.79475038       4.50194379       0.01265021       0.01264966      -0.02314332
O       10.68742774       8.25784949       2.85755117      -0.00593656      -0.00801402      -0.01464942
O        9.96388116      10.34490093       2.91212031       0.01032469      -0.00275731      -0.00443830
C        8.57116847       8.66798834       3.88548123       0.00226766       0.00019358      -0.00717196
C        7.57674026       9.61032726       4.15339377       0.00173948      -0.00176463      -0.00254531
C        8.33125962       7.31941108       4.15006262       0.00653645      -0.00031528      -0.00681244
C        6.32008686       9.20698122       4.57276317       0.00518229      -0.00571050       0.00384755
C        7.08813548       6.92274895       4.62777825       0.01031767      -0.00381303      -0.00158548
C        6.07248565       7.85697679       4.79741686       0.00921577      -0.00621631       0.00416324
C        9.81154470       9.10894656       3.20449877       0.00100571      -0.00206541      -0.00952318
H        7.81601540      10.65657991       4.01012918      -0.00265060      -0.00091630      -0.00328013
H        9.10607174       6.59039121       3.94850056       0.00823747       0.00240932      -0.00983165
H        5.53744889       9.93881313       4.73261595       0.00388472      -0.00826633       0.00785357
H        6.89190808       5.87430738       4.81341638       0.01435244      -0.00448686      -0.00203087
H        5.08587606       7.53344494       5.10220709       0.01170465      -0.00868962       0.00845674
O       11.44625819       1.92021784       5.76199037      -0.00936413       0.00989836       0.00787920
C       10.46290886       1.28455611       4.96802943      -0.00330192       0.00767265       0.00128123
C        9.08116216       1.89587332       5.11833186      -0.00615966       0.00147885      -0.00278516
H       10.75073782       1.28906568       3.90634039       0.00198749       0.01254446       0.00332361
H       10.44408847       0.23569960       5.27535247      -0.00056626       0.00720060      -0.00160611
H        8.33866298       1.33457472       4.54803307      -0.00035156       0.00152992      -0.01011733
H        8.78011302       1.89711914       6.16775776      -0.01189263      -0.00546717      -0.00470762
H        9.07083700       2.92509275       4.76042596      -0.00783858       0.00307104       0.00271443
H       11.44844480       2.86622077       5.51652890      -0.00811574       0.00779960       0.00222047
O        6.46110357      11.19295934       1.68159646      -0.02555725      -0.03209035      -0.00741416
C        7.52263450      10.85064338       0.79078822      -0.01565275      -0.00834796      -0.00461596
C        7.62768378       9.35839434       0.53521807       0.00655332      -0.00491202      -0.01280816
H        7.30590787      11.38385557      -0.13894734      -0.01874933      -0.00558265      -0.00209391
H        8.46783081      11.22678065       1.18848847      -0.02342349       0.00354242       0.00291812
H        8.31380808       9.14812695      -0.28736513       0.02619188       0.00723406       0.00084712
H        7.98317242       8.82703292       1.41642306      -0.00740939      -0.00632583      -0.00810206
H        6.65621348       8.94527200       0.27544123       0.01653752      -0.01314652      -0.03645248
H        6.60449449      10.70080998       2.49691567      -0.01355031      -0.02626486      -0.00627866
O        1.60725493       2.76962513      11.11816348       0.01715586      -0.01328316       0.01441449
C        1.93315263       3.32713857       9.81674258       0.00082086       0.00151294       0.01714627
C        2.73106277       2.34700309       8.99469670      -0.00190744       0.01165205       0.00329909
H        0.99702654       3.58123765       9.31393902      -0.00406030       0.00181138       0.02595165
H        2.47774451       4.26131065       9.96061588      -0.00034338       0.00152090       0.02053746
H        2.82473253       2.71435010       7.97315021      -0.00672138       0.02450541       0.00758708
H        3.72338489       2.20580708       9.42241142      -0.00040333       0.00876277      -0.00161771
H        2.23810945       1.37655661       8.95435452      -0.00082208       0.01179229      -0.00586847
H        2.00351605       3.31159818      11.80586700      -0.02299032       0.01144043       0.01769158
O        5.15318356       3.19291238       4.56473352       0.00413251       0.00797832       0.00876817
C        4.12574414       2.29599428       4.17328047       0.00516027       0.00885779       0.00641805
C        3.47863077       2.65053852       2.84327403       0.00986472       0.00932783       0.00456274
H        4.51238063       1.27024235       4.14685272       0.00501281       0.00861025       0.00679779
H        3.38533431       2.32802888       4.97393030       0.00305641       0.00888855       0.00455266
H        2.62877603       1.98347042       2.65826817       0.01184355       0.00907790      -0.00085086
H        3.11347054       3.68026743       2.85078055       0.00903847       0.00902605       0.00410838
H        4.18457270       2.52190357       2.01689596       0.01333053       0.01182991       0.00752097
H        5.82647508       3.25712833       3.86914390       0.00254636       0.00955287       0.00666646
O        7.01274149       4.17791599       2.80199764      -0.01686364      -0.00263950      -0.00670090
C        6.16167757       5.06949349       2.05025462      -0.00313159       0.00880662      -0.00786829
C        6.48685295       5.04287616       0.58273108      -0.01195192       0.00287481      -0.00963491
H        5.12819644       4.78542617       2.24332863      -0.00504446       0.02059336      -0.00180417
H        6.29106052       6.07610386       2.44847687       0.00886449       0.00894195      -0.01143885
H        5.79902568       5.68901629       0.03462825      -0.00520819       0.01290405      -0.00679823
H        7.50130038       5.39577912       0.38448421      -0.00844696      -0.01038910      -0.01466034
H        6.39333337       4.03447515       0.17643780      -0.02794826       0.00431503      -0.00807736
H        7.68279270       3.81873189       2.21483637       0.02468228       0.03454341       0.01842651
O       11.74915654       0.40644872      11.74995896       0.02659035      -0.02045059       0.01474529
C       10.56791270       0.41583644      10.90116492       0.02045469      -0.01881187       0.02396587
C       10.85665762       0.81345969       9.47301555       0.01209278      -0.02718392       0.02008125
H       10.16701647      -0.59823607      10.94478864       0.01691344      -0.01685181       0.03189105
H        9.82863450       1.09125596      11.34151480       0.02701622      -0.01394436       0.02699567
H        9.93592120       0.74926240       8.89038929       0.00732085      -0.02439896       0.02739751
H       11.20319523       1.84333811       9.40678639       0.01833085      -0.02983302       0.01257698
H       11.59884567       0.16436996       9.00929767       0.00477275      -0.03432830       0.01865292
H       12.24104555       1.24332791      11.56424670       0.02246999      -0.01831350       0.01618199
O        7.49231832       4.88429528       9.02326416       0.00837451      -0.00360364      -0.00416420
C        7.82868375       3.60941761       8.48202191       0.00870123      -0.00626576       0.00315037
C        6.93101864       2.49908205       8.98405935       0.01274374      -0.00436383       0.01373565
H        7.80190035       3.64351015       7.38770189       0.00454424      -0.01339785       0.00325763
H        8.86362367       3.43215050       8.77955942       0.01011771      -0.00256134       0.00022548
H        7.32473383       1.52663522       8.69011062       0.00657849      -0.00505853       0.00846498
H        6.85342782       2.51838188      10.07144343       0.02539398      -0.00447427       0.01445414
H        5.92854371       2.57964908       8.55844560       0.00793310      -0.00131184       0.02567010
H        6.54510637       5.00106636       8.89941815       0.00925739      -0.00246891      -0.00975639
O       10.94733068       4.58048986       5.18125364      -0.03711346       0.00989279      -0.03086853
C       10.21920345       4.99508981       6.33041926      -0.00722346      -0.00002035      -0.00720739
C       10.68792429       6.28647474       6.96247473       0.00162274      -0.00097281      -0.01149529
H        9.16156067       5.08480405       6.05557885      -0.01181298      -0.00166546       0.01356477
H       10.28859545       4.18428044       7.06299041       0.00951950      -0.00158420      -0.00993854
H       10.07928564       6.48136172       7.84841624       0.01265338      -0.00193574      -0.00374976
H       11.73436080       6.21761409       7.26366398       0.00493667       0.00055163      -0.02256879
H       10.55954538       7.12673580       6.27732493      -0.00744791      -0.00003241      -0.00819649
H       11.59590145       5.24053404       4.85353228      -0.00865129      -0.00623966      -0.00441084
O        2.37809501       4.82744418       6.76655228       0.01276988       0.00244468      -0.01591398
C        3.62898749       5.46423885       6.56250117       0.00805229       0.01665363      -0.00093985
C        4.41083777       5.43821770       7.85232301       0.00229485       0.00762130       0.00210547
H        4.18940631       4.95647617       5.77047072       0.01651382       0.03075048      -0.00401479
H        3.47059013       6.50584487       6.25039797      -0.00037031       0.01878768       0.01090431
H        5.38440035       5.89929074       7.67448498      -0.00068545       0.01743467       0.01231835
H        3.89647950       5.99162336       8.64171151      -0.00545007      -0.00575387       0.00614782
H        4.55264096       4.40801595       8.18524303       0.00902114       0.00482364      -0.00982382
H        1.94135249       4.87624779       5.90071740       0.01846226       0.01350170      -0.01830668
O        3.19020037       9.03652167      10.06157042      -0.00351846      -0.00687376       0.00286882
C        4.22330264       9.62704309      10.85402197      -0.01263097       0.00473776       0.00511505
C        4.20098055      11.13900301      10.81909859      -0.02754284       0.00432003       0.00301234
H        4.14584977       9.25622706      11.87716473      -0.01228700       0.00507459       0.00533885
H        5.16130420       9.25732954      10.44445906      -0.00717774       0.01446286       0.00965638
H        4.94781568      11.53702202      11.50419680      -0.03552988       0.01228019       0.00666228
H        4.41663172      11.50270081       9.81557244      -0.02548513       0.00473889       0.00384755
H        3.22413718      11.52942936      11.11213710      -0.03319593      -0.00553210      -0.00380650
H        3.18371667       9.64889931       8.62014359      -0.00016390      -0.00180394      -0.00128157
O        1.08122430       8.75861631       0.26409821      -0.00214223      -0.02427149       0.00424007
C        0.95657018       7.34370370       0.08843495      -0.00935864      -0.02081227      -0.01298112
C       -0.48425127       6.93401601      -0.13503615      -0.01038408      -0.01237385      -0.02153892
H        1.57209064       7.04855886      -0.77050415      -0.00926775      -0.01466388      -0.01503116
H        1.37132324       6.83325343       0.96389742      -0.01431048      -0.03251553      -0.01757026
H       -0.55095333       5.84782885      -0.22577385      -0.01156623      -0.01036178      -0.04271494
H       -1.09752346       7.24232659       0.71214280      -0.01161014      -0.02688509      -0.01728266
H       -0.88326944       7.38085327      -1.04761368      -0.00860443       0.00435913      -0.01393533
H        2.34922167       9.05155379      -0.80368365      -0.00347782      -0.01641916       0.00025174
