136
Lattice="12.723170576108528 0.0 0.0 0.0 12.723170576108528 0.0 0.0 0.0 12.723170576108528" Properties=species:S:1:pos:R:3:forces:R:3 energy=-623739.4375 stress="-0.0015080819139257073 -0.00039623555494472384 -0.00034883686748798937 -0.00039623555494472384 -0.0006195192690938711 0.0007817910809535533 -0.00034883686748798937 0.0007817910809535533 0.00010381470929132774" pbc="T T T"
Eu      12.56129031      12.84386538      -0.78677702      -0.00343599       0.00963116      -0.00424519
Br       3.09202025      11.65226650       0.81091365      -0.00876380       0.01147787       0.00767595
O        2.92206706      12.10958847       2.34109081       0.00416427       0.03190921       0.00356627
O        1.54103946      11.80749187       0.09675936      -0.01924124      -0.02186250       0.02818435
O        4.05022007      12.64863781      -0.02392509      -0.02573761       0.01001319      -0.01683432
O        3.49074402      10.10911217       0.63859754       0.01088095       0.01446646       0.02906868
Br       0.84804030      11.48664013       6.28434478      -0.00291037       0.01258877      -0.00433098
O       -0.55126837      11.87598898       5.54791673      -0.00930572      -0.00305089       0.00310677
O        0.58328272      11.12835003       7.85185137       0.01175338       0.01501822      -0.00016236
O        1.50697918      10.20520878       5.53485176       0.00468874       0.01842237      -0.00515449
O        1.84891570      12.77265803       6.21861325      -0.02200425       0.02635562      -0.01736623
Br      10.33254757      11.65923368      10.06854009       0.00929701      -0.00825194       0.00958011
O        9.08592678      10.66982934      10.19942328       0.01819198      -0.01600356       0.02235038
O       11.75882428      10.97877455      10.58689820       0.01888382       0.00476092      -0.00041999
O       10.49232925      12.27943337       8.60698641      -0.01016978      -0.01040189       0.00696275
O       10.22229652      12.88696495      11.20729311       0.00961869      -0.00582039       0.00843610
O        6.72883970       4.49636809       8.28758149       0.00746042       0.00108412      -0.00906010
O        5.11313675       3.70132357       9.47730782       0.00713950       0.00845123      -0.00985116
O        5.07597105       3.35543365       7.23664163       0.00146610       0.00683457      -0.01432931
C        7.42271651       4.63494157       7.01899343       0.00760877       0.00483100      -0.00871812
C        8.78934567       5.18161057       7.32137195       0.00833774       0.00503826      -0.01297942
C        5.59203552       3.81543894       8.22238376       0.01403499       0.01267067       0.00180584
C        3.94002427       2.89222136       9.56728966       0.00507379       0.01399249      -0.00651342
H        7.46337455       3.65184831       6.55126024       0.00700846       0.00467455      -0.01086500
H        6.84076452       5.29741227       6.37690679       0.00566304       0.00493923      -0.00783348
H        9.34912567       5.28025960       6.39062708       0.00587245       0.00542230      -0.01329197
H        8.71911958       6.16190032       7.78274357       0.00828268       0.00455907      -0.01175758
H        9.32830592       4.51255340       7.98962358       0.00957504       0.00526394      -0.01383609
H        3.12972371       3.33916792       8.99940377       0.00478274       0.01369934      -0.00894043
H        3.69905807       2.84531602      10.62838140       0.00505132       0.01473429      -0.00723451
H        4.13247943       1.88791944       9.18684897       0.00047661       0.01250452      -0.00730522
O        8.14852110       8.23263396      10.95317092      -0.00612605      -0.01600419       0.00394161
O        9.66004624       7.40585474       9.66171994      -0.00413472      -0.00687426      -0.00020206
O       10.23109138       7.89816377      11.79602034      -0.00837421      -0.01191484      -0.00349164
C        7.75136319       8.95075623      12.15136353      -0.00685143      -0.02164599       0.00756688
C        6.49684920       9.71155871      11.81727138      -0.00490993      -0.01814026       0.00853907
C        9.41809358       7.85192846      10.90351832       0.00044399      -0.01145448       0.00715357
C       11.01308538       7.00264376       9.43026136      -0.00118179       0.00528397      -0.00306866
H        7.57566327       8.22394776      12.94096855      -0.00958982      -0.02524680       0.00325042
H        8.57077704       9.61044088      12.43769623      -0.00697708      -0.02439186       0.01209146
H        6.19006340      10.30757496      12.67697269      -0.00541274      -0.02243321       0.01132992
H        6.66340731      10.38336556      10.97491134      -0.00131086      -0.01392980       0.01265931
H        5.67887507       9.03475924      11.57714193      -0.00587600      -0.01482485       0.00313280
H       11.69471809       7.83088703       9.61765804      -0.00874220       0.01143214      -0.00410777
H       11.05743028       6.71271837       8.38506586      -0.00052904       0.00737093      -0.00354248
H       11.26666925       6.15478136      10.06666990       0.00777113       0.00723702      -0.00471541
O        8.52356510       8.37307422       6.40718592      -0.00290161       0.01894888      -0.00378352
O       10.32706364       8.01434838       5.27831248      -0.00011852       0.01768121       0.00251082
O       10.45544729       9.34718960       7.10433939       0.00616038      -0.01824605       0.03044975
C        7.77528917       9.07596436       7.43798456      -0.00499728       0.00861701       0.00075787
C        6.65927704       8.18111862       7.90593185       0.00053149       0.00082645      -0.00095999
C        9.82752363       8.65762836       6.34422931      -0.00231141      -0.00022292       0.00668734
C       11.70349955       8.33780293       4.98742725       0.00423550       0.00683454       0.01335303
H        8.46137598       9.33176224       8.24027653      -0.00501531       0.00949673       0.00093466
H        7.39628239       9.99328284       6.98194331      -0.01091242       0.00779241       0.00460503
H        5.99692715       8.75883740       8.55149886      -0.00204475      -0.00473648       0.00147089
H        6.07608304       7.80853977       7.06332725       0.00166115       0.00066077      -0.00149581
H        7.03863998       7.33978733       8.48291404       0.00558394       0.00133970      -0.00397003
H       11.78690999       9.37952038       4.68714959       0.01483422       0.00862962       0.02413680
H       11.98427856       7.67171507       4.17590304       0.00311000       0.01270784       0.00867552
H       12.33236991       8.17747141       5.85849533      -0.00241189      -0.00762638       0.01528442
O        4.49973187      10.35314838       6.08664241       0.00188458      -0.00257498       0.00544345
O        3.57644738       9.41945769       7.79212277      -0.00658439       0.00021952       0.00382638
O        3.80943667       8.20329786       5.89159437      -0.00757450       0.02696037       0.01794457
C        4.82586412      10.35915845       4.68051265      -0.00005025      -0.00468683       0.00298366
C        5.34818841      11.73455278       4.37060561       0.00550385      -0.00591016       0.00595924
C        3.93564707       9.22878223       6.51278414      -0.01031813      -0.03338635      -0.01577109
C        2.94825007       8.28891072       8.39175572      -0.01507771       0.00082718      -0.00097677
H        5.56448568       9.57490163       4.49240438      -0.00433069      -0.00714117       0.00311597
H        3.91726864      10.12387594       4.12332182      -0.00132978       0.00046945       0.00460061
H        5.63927597      11.79837758       3.32134793       0.00585859      -0.00701150       0.00563450
H        4.57340348      12.47639650       4.56599577       0.00881404      -0.00324059       0.00544291
H        6.22487158      11.96813162       4.97366273       0.00618821      -0.01003334       0.00539829
H        2.01392710       8.06058949       7.87988262      -0.01328909       0.00632361      -0.00497964
H        2.75424457       8.58289619       9.42006005      -0.01853967       0.00312242      -0.00163898
H        3.60782812       7.41972188       8.35841358      -0.01921540      -0.00108355       0.00235373
O        9.76007472       2.11600524       2.80046396       0.00837561      -0.02072114      -0.00149320
O        7.86017224       2.67569620       3.68408676       0.01024023      -0.00828743      -0.00617271
O        8.29916397       0.47581175       3.37213188       0.00172785      -0.00869441       0.00416371
C       10.72018256       1.09359149       2.49128976       0.00650460      -0.02543250       0.00446194
C       11.79868480       1.75031489       1.65136089       0.00088122      -0.03234178      -0.00829516
C        8.59610540       1.63901787       3.29904081       0.00551462      -0.01777732      -0.00037247
C        6.60061909       2.30177648       4.29439742       0.00802502       0.00008838      -0.00655614
H       11.12604013       0.68668690       3.42135280       0.01578364      -0.01535454       0.00587171
H       10.21663837       0.28344379       1.95810027       0.00280815      -0.02876821       0.01315346
H       12.66680368       1.07680341       1.53117086       0.00354569      -0.03038948       0.00537034
H       11.40428189       2.09226941       0.68343138      -0.00350438      -0.04807821      -0.01281565
H       12.19963484       2.63464027       2.15304339      -0.00370971      -0.02194482      -0.02484299
H        6.02979661       1.67991930       3.60870974       0.00521651       0.00218382      -0.00537595
H        6.08785355       3.23625874       4.49070782       0.01309897       0.00350684      -0.00978123
H        6.78520872       1.75454096       5.21690181       0.00403601       0.00138479      -0.00512481
O        0.97680232       4.28980252      10.59263051       0.00000736       0.01587009      -0.00158745
O        0.86544872       2.55025332       9.30608052      -0.00391707       0.02258122      -0.00894243
O        0.64817122       2.27638247      11.53187508       0.00370832       0.01161562      -0.00913113
C        1.10550674       4.85214380      11.94185895      -0.00505739       0.01203561       0.00030577
C        1.23825972       6.34098868      11.81101037       0.00435359       0.01123604       0.00242194
C        0.81456602       2.99646430      10.53316241      -0.00001224       0.01642844      -0.00645557
C        0.77383348       1.11365612       9.12994212      -0.00643692       0.02417260      -0.01796098
H        0.22496079       4.56303275      12.51636375      -0.01069054       0.01633205      -0.00662164
H        1.98758828       4.39241968      12.39189049      -0.01204628       0.00509493       0.00624879
H        1.47381676       6.75889172      12.78936721      -0.00278556       0.01068801       0.00404875
H        2.04581972       6.60233268      11.12880913       0.01180974       0.00718248       0.01010075
H        0.31065429       6.79466883      11.46981676       0.00989839       0.01551961      -0.00641988
H        1.44163479       0.59360644       9.83179504      -0.00196677       0.01889397      -0.02671130
H        1.13245958       0.90108494       8.12527894      -0.01416689       0.03204711      -0.02209675
H       -0.27114927       0.79885303       9.19240924      -0.00601347       0.02421483      -0.01055942
O        5.36041006       5.09253584       2.65258237      -0.00712733      -0.00490355       0.00172293
O        6.91158473       6.44528485       3.31244726      -0.00765961      -0.00543579       0.00534451
O        5.92066479       6.83154247       1.31317397      -0.00272536      -0.00790161       0.00718427
C        4.33625665       4.72836278       1.70686723      -0.00474513      -0.00369483      -0.00171271
C        3.78536079       3.39384509       2.14061306      -0.00603585      -0.00375259      -0.00349028
C        6.05424255       6.19221072       2.32779927      -0.00631525      -0.00157416      -0.00199485
C        7.76893243       7.57663203       3.07040405      -0.00493774      -0.00711939       0.00563285
H        3.57386987       5.51222353       1.71310978      -0.00401407      -0.00338700      -0.00327009
H        4.77313160       4.69276041       0.70747628      -0.00193927      -0.00353622      -0.00010675
H        2.93169650       3.11709996       1.51889595      -0.00403282      -0.00400297      -0.00627062
H        4.53292736       2.60918002       2.04040305      -0.00603864      -0.00371271      -0.00158773
H        3.45754717       3.42807747       3.17959939      -0.00913290      -0.00406747      -0.00453794
H        8.40674897       7.38679953       2.20733714       0.00165622      -0.01265627       0.01225114
H        8.36370785       7.68786901       3.96852350      -0.01205343      -0.00242549       0.00979763
H        7.17031156       8.46804940       2.88768218      -0.00239035      -0.00788268      -0.00365829
O        8.51065168       1.89839548       9.28912589       0.00622536      -0.00105277       0.00309631
O        9.90265142       2.14325093       7.66250009       0.00948203       0.00088078       0.00526774
O        7.98574835       0.99556692       7.27731564       0.01469600       0.01441967       0.00687599
C        7.31285862       1.31568264       9.85038672       0.00358205      -0.00218415      -0.00183576
C        7.13234271       1.90368101      11.22389361       0.00130301      -0.00521606      -0.00084287
C        8.72383436       1.61377841       8.00175438      -0.00322479      -0.00561869      -0.00799000
C       10.32313631       1.83016547       6.32214033       0.00740549       0.00524342       0.00294010
H        6.47730650       1.52832152       9.18491987       0.00588489       0.00017844      -0.00285676
H        7.44019940       0.23065020       9.88552562       0.00381852      -0.00197154      -0.00432849
H        6.24774465       1.47226951      11.69468045      -0.00034480      -0.00618526      -0.00439070
H        7.99621227       1.67720599      11.84762467      -0.00071675      -0.00742153       0.00081328
H        7.00627771       2.98348325      11.16366878       0.00193035      -0.00526330       0.00161916
H       10.45456021       0.75592267       6.20738476      -0.00311375       0.00530887      -0.00359888
H       11.27721506       2.33393861       6.19506877       0.01288456      -0.00371057       0.00839233
H        9.59319380       2.20910894       5.60903824       0.01316580       0.01738673       0.00446640
