142
Lattice="13.244661456523026 0.0 0.0 0.0 13.244661456523026 0.0 0.0 0.0 13.244661456523026" Properties=species:S:1:pos:R:3:forces:R:3 energy=-1079808.875 stress="-0.0011047476436942816 0.0003287334693595767 -0.000187698271474801 0.0003287334693595767 -0.00037538629840128124 6.15957487752894e-05 -0.000187698271474801 6.15957487752894e-05 -0.0006468403153121471" pbc="T T T"
Fm      12.99896668      12.68359751       1.17426317      -0.00138617      -0.02462533       0.02583683
N       12.01769577      13.12871962      12.44890432      -0.00375713       0.01247115       0.03148139
C       11.20574272      12.56967653      11.81289609       0.02808419       0.02673951      -0.01334441
N        3.14018351      13.24497056       0.27143678      -0.00443400       0.00973770      -0.00582931
C        2.03958187      12.89228119       0.37957148      -0.02249998      -0.00678456       0.01453045
N        0.97623455      11.80646031       4.37158500       0.02592529       0.03033011       0.02670637
C        0.68750719      11.92459266       3.25287707       0.01729298       0.00559646       0.03511113
C        6.97966861       3.40271933       7.67911214      -0.00710188      -0.00233978      -0.00862369
C        7.57184326       4.27691063       8.58951441      -0.00868081       0.00298020      -0.01278771
C        5.98923222       2.53372371       8.14025554      -0.00270328      -0.00440681      -0.00345644
C        7.42230542       3.37055208       6.24641307      -0.01122695      -0.00469623      -0.00989047
C        7.20242419       4.26798170       9.92785506      -0.00721442       0.00761836      -0.01249292
C        5.62397649       2.51462056       9.47997765      -0.00198808       0.00080233      -0.00321010
C        6.24020927       3.37570703      10.37961011      -0.00529055       0.00785522      -0.00774142
H        8.33778800       4.96352061       8.24584168      -0.01183087       0.00448751      -0.01664203
H        5.50475719       1.86414092       7.43806789      -0.00056080      -0.00978448       0.00049000
H        6.59619563       3.13552625       5.57384146      -0.01301512      -0.00695577      -0.00676455
H        7.85249706       4.32431340       5.93928986      -0.01374876      -0.00464281      -0.01288744
H        8.19250160       2.61016084       6.09627800      -0.01060142      -0.00375390      -0.01128072
H        7.68232424       4.94320220      10.62543321      -0.00840721       0.01189273      -0.01589501
H        4.86128367       1.82927666       9.82950415       0.00068460      -0.00022613       0.00014668
H        5.96427312       3.35191907      11.42332615      -0.00618551       0.01355954      -0.00784388
C       10.01874274       8.76101435       8.54959103       0.00371297      -0.00045612       0.00690006
C        9.15316917       7.93131918       9.26405325       0.00394262      -0.00223270       0.00505975
C        9.68119954      10.10825711       8.41152870       0.00204420      -0.00105226       0.00733868
C       11.25737699       8.21035076       7.90574279       0.00592378       0.00220248       0.00918190
C        7.96947274       8.42668211       9.79998968       0.00256907      -0.00435209       0.00364723
C        8.50090342      10.60772407       8.94679161       0.00070341      -0.00299880       0.00609826
C        7.63678196       9.76657173       9.63735328       0.00077903      -0.00490510       0.00397146
H        9.41305726       6.88700122       9.39985154       0.00552402      -0.00178850       0.00487438
H       10.35715769      10.77323762       7.88556429       0.00193219       0.00056295       0.00946096
H       12.06090716       8.94616901       7.89064868       0.00618631       0.00182983       0.01645254
H       11.60980596       7.31647100       8.42049623       0.00325154      -0.00039500       0.00628377
H       11.05923692       7.93029592       6.86721089       0.01016554       0.00757661       0.00706109
H        7.30594260       7.76510780      10.34403678       0.00285097      -0.00546374       0.00238109
H        8.26078362      11.65759957       8.83586061      -0.00121878      -0.00366350       0.00539326
H        6.71653602      10.15582872      10.05424115      -0.00064074      -0.00673192       0.00232059
C        3.07563962       9.27473369       3.74830142      -0.00287444      -0.00006874      -0.00090139
C        4.17407336      10.08812719       3.47284445      -0.00843865       0.00664024      -0.00246057
C        2.30242424       8.82617043       2.67837484       0.00245243      -0.01000176      -0.00014932
C        2.69332401       8.96621655       5.16421272      -0.00383146       0.00460223      -0.00028771
C        4.47775787      10.46450673       2.17301971      -0.00881754       0.00354806      -0.00312411
C        2.60941387       9.19139311       1.37338585       0.00106987      -0.01175514      -0.00102459
C        3.69446068      10.01930634       1.11658366      -0.00419156      -0.00551692      -0.00257495
H        4.79381378      10.43432363       4.29230378      -0.01400211       0.01607351      -0.00256381
H        1.42844534       8.21327138       2.87237477       0.00754049      -0.01691658       0.00046544
H        2.18300212       8.00506668       5.24516165      -0.00107633       0.00360972       0.00326800
H        3.56761487       8.95256807       5.81590007      -0.00505227       0.01051964       0.00116204
H        2.01257900       9.74127574       5.52596829      -0.00586852       0.00476751      -0.00493813
H        5.31684638      11.12216076       1.98182519      -0.01343793       0.00888243      -0.00450214
H        1.98632587       8.84996371       0.55590711       0.00308526      -0.01682180      -0.00026260
H        3.90491813      10.35294262       0.10964210      -0.00483074      -0.00818101      -0.00354108
C       11.06622052       4.79150209       4.03038021       0.00132229       0.00206897      -0.00127307
C       11.56620685       4.45270820       2.77073499       0.00430091      -0.00192088       0.00106016
C       10.76555429       6.12851250       4.28467438       0.00571220       0.00362384      -0.00425752
C       10.93707453       3.75933791       5.10861898      -0.00997984       0.00373200      -0.00106308
C       11.79301868       5.42923465       1.80921076       0.01050508      -0.00422075       0.00034532
C       10.99173022       7.10755375       3.32604733       0.01165006       0.00120144      -0.00512341
C       11.51159199       6.76249703       2.08540816       0.01447193      -0.00271104      -0.00278203
H       11.79946951       3.41584480       2.55196030       0.00083432      -0.00317352       0.00293000
H       10.34783823       6.40377808       5.24652040       0.00391296       0.00694847      -0.00617577
H       10.19534841       4.04522283       5.85177580       0.00055504       0.01753579       0.00397994
H       10.67239115       2.78446499       4.70502566      -0.03110994       0.00879440       0.00055076
H       11.88722445       3.64034851       5.63934336      -0.00884813      -0.01492292      -0.00771409
H       12.20128664       5.14801278       0.84659295       0.01124698      -0.00700644       0.00150633
H       10.75603584       8.13837042       3.54966234       0.01364641       0.00239494      -0.00785375
H       11.69173344       7.52736875       1.34046851       0.01992802      -0.00484586      -0.00359831
C        9.12757189       1.13388244       2.49321514       0.00596629      -0.01742131      -0.00325152
C        8.63326827       0.84181417       3.76366343      -0.00414363      -0.02597495      -0.00934242
C       10.48799107       0.91939926       2.24260249       0.00874522      -0.01064655       0.00709653
C        8.22752554       1.70130232       1.43639545       0.01338419      -0.01762262      -0.00916833
C        9.45975054       0.32632611       4.75868049      -0.00927940      -0.02311266      -0.00355615
C       11.31475088       0.44857248       3.25000628       0.00301769      -0.00811609       0.01276526
C       10.80830099       0.12769093       4.50391205      -0.00608432      -0.01500291       0.00724359
H        7.58447127       1.02099973       3.97352992      -0.00607908      -0.03078249      -0.01751751
H       10.88006376       1.13199040       1.24888225       0.01554653      -0.00574530       0.01101815
H        8.51168662       1.34979028       0.44533343       0.02010107      -0.01740903      -0.00734180
H        7.18996230       1.42569280       1.61859250       0.01244530      -0.01679554      -0.01577301
H        8.28357991       2.79403226       1.42896709       0.01363425      -0.01780844      -0.00885097
H        9.05127395       0.09666410       5.73582733      -0.01668249      -0.02916901      -0.00822826
H       12.39227947       0.35253946       3.14203549       0.00427970      -0.00171664       0.01993416
H       11.48243591      -0.26010106       5.25629707      -0.01133476      -0.01377790       0.01236796
C        2.57138403       3.71584303      11.49208116      -0.00540386       0.00778787      -0.00585551
C        2.25357981       4.84036028      10.72667496       0.00453149       0.00647275      -0.01187058
C        3.56653902       3.84197770      12.46004747      -0.01731939       0.00884606       0.00599015
C        1.88134045       2.40511962      11.27239551      -0.00451410       0.00834244      -0.01229749
C        2.90928761       6.04853556      10.91599687       0.00260916       0.00650465      -0.00579068
C        4.23327895       5.04775734      12.64566374      -0.01964471       0.00917346       0.01259522
C        3.91015278       6.15632620      11.87577086      -0.00978342       0.00775337       0.00681668
H        1.47946711       4.76104933       9.97251693       0.01440427       0.00536716      -0.02171768
H        3.82094762       2.97714835      13.06326776      -0.02479094       0.01008037       0.01065707
H        2.10154152       1.70352974      12.07244495       0.00371247       0.00064212      -0.02158791
H        0.79995401       2.52482396      11.20125006      -0.00549105       0.00703979      -0.00046714
H        2.21214430       1.94328860      10.33741728      -0.01370606       0.01963554      -0.02092554
H        2.63896656       6.90924219      10.31624927       0.01107249       0.00529101      -0.01107314
H        5.01575790       5.11801819      13.39087024      -0.02998168       0.01046927       0.02302587
H        4.42639356       7.09634830      12.02498411      -0.01210087       0.00797324       0.01257173
C        2.37960411       4.29869738       3.88722034       0.00877236      -0.00407455       0.00782511
C        2.30955822       2.94032089       3.57671813       0.00670867      -0.00413737       0.00951608
C        3.51789629       5.00994348       3.51156327       0.00939440      -0.00628063       0.00564981
C        1.26953141       4.98025145       4.62564992       0.01106635      -0.00063841       0.00832587
C        3.35184755       2.30092578       2.91671544       0.00528504      -0.00631523       0.00939393
C        4.57290081       4.37340371       2.87211409       0.00793920      -0.00842062       0.00551061
C        4.49040171       3.01915472       2.57193059       0.00600131      -0.00866072       0.00713317
H        1.42567847       2.37379138       3.84905347       0.00645915      -0.00333582       0.01027320
H        3.55836400       6.07585990       3.70826925       0.01104717      -0.00610076       0.00406800
H        1.13900291       6.01060889       4.29423803       0.00604418      -0.00432250      -0.00094531
H        0.32742662       4.46449921       4.47206066       0.01126857      -0.00468110       0.02023466
H        1.46720284       5.00076141       5.70131649       0.01853008       0.01137928       0.00658298
H        3.26797848       1.25661410       2.64669405       0.00337865      -0.00652543       0.01136394
H        5.45391068       4.93864489       2.59222544       0.00802988      -0.00969607       0.00388326
H        5.29650092       2.52776137       2.04262725       0.00479917      -0.01037082       0.00666614
C        6.56444500       7.50230624       5.32995534      -0.00156391       0.00993904       0.00284070
C        6.34290580       7.56158563       3.95386761       0.00357029       0.00577144       0.00181924
C        7.62299258       8.24264380       5.85938171      -0.00614250       0.01503321       0.00434494
C        5.68240088       6.67629511       6.21955696      -0.00195339       0.00894392       0.00118801
C        7.14705738       8.33576548       3.12949927       0.00431348       0.00582304       0.00258699
C        8.42587510       9.02551854       5.03856663      -0.00489213       0.01481884       0.00509828
C        8.18802153       9.07787923       3.67041713       0.00063370       0.01001479       0.00400133
H        5.50512705       7.02712261       3.52613211       0.00709465       0.00156669       0.00019086
H        7.80737988       8.21913556       6.92690868      -0.01081248       0.01917027       0.00520615
H        5.73401052       7.01896298       7.25271631       0.00483955       0.00116941       0.00294861
H        4.64420679       6.71211919       5.89031208      -0.00312912       0.01745048       0.00640699
H        5.97797357       5.62614313       6.21282516      -0.00854588       0.00746894      -0.00832381
H        6.93533191       8.38454587       2.06890897       0.00767252       0.00211717       0.00170147
H        9.23319900       9.60243399       5.47405627      -0.00839229       0.01817617       0.00658504
H        8.80521419       9.69719551       3.03143851       0.00085097       0.01123496       0.00581159
C       10.05387873       2.29283944      10.22810068      -0.00054104       0.00094585      -0.01106060
C       11.11657202       2.55929910       9.36564388      -0.00305772       0.00690871      -0.01192464
C        9.89596702       3.11559410      11.34332116      -0.00148807      -0.00303056      -0.00824401
C        9.12015605       1.15334085       9.96962761       0.00474033      -0.00313845      -0.01109713
C       11.98643975       3.61574521       9.60235165      -0.00570868       0.00839019      -0.00973161
C       10.75818075       4.17661432      11.58443781      -0.00353289      -0.00195513      -0.00581610
C       11.80969168       4.43460560      10.71218214      -0.00563698       0.00366932      -0.00652339
H       11.26391767       1.92374847       8.49957152      -0.00246660       0.00997876      -0.01404133
H        9.06981762       2.93412915      12.02004862       0.00050612      -0.00804380      -0.00758766
H        8.13041496       1.35745371      10.37643408       0.00611731      -0.01216188      -0.00348851
H        9.01716457       0.97131496       8.89887657      -0.00071897       0.00098994      -0.01119424
H        9.50654519       0.24035013      10.43546035       0.01519020      -0.00195220      -0.01767169
H       12.80984882       3.79305767       8.92088184      -0.00742540       0.01326491      -0.01063012
H       10.60211877       4.80837109      12.45054467      -0.00330370      -0.00585499      -0.00290917
H       12.49101918       5.25447915      10.90311933      -0.00700751       0.00432735      -0.00456899
