145
Lattice="12.86823754370605 0.0 0.0 0.0 12.86823754370605 0.0 0.0 0.0 12.86823754370605" Properties=species:S:1:pos:R:3:forces:R:3 energy=-1143532.75 stress="0.001232155249454081 -0.0005393139144871384 8.599013017374091e-05 -0.0005393139144871384 0.0007418801542371511 -2.904996927100001e-05 8.599013017374091e-05 -2.904996927100001e-05 0.0006583789945580065" pbc="T T T"
Fm      14.12621509      13.01580501      -0.56750034      -0.00302553      -0.00677130       0.00685323
S        9.41690073      12.22024205       5.62671136       0.00652409      -0.00215828      -0.00061548
F       11.20222388      10.25471806       5.75337941       0.00394961      -0.00435647       0.00067207
F       11.81264012      11.92440233       4.51049373       0.00628179      -0.00576985      -0.00086452
F       10.33012817      10.52187216       3.78761344       0.00427748      -0.00447732       0.00030744
O        9.11901887      13.13288560       4.53735764       0.00572976      -0.00349998      -0.00213063
O       10.07825575      12.81681205       6.76804759       0.00884843      -0.00032759      -0.00253534
O        8.37647697      11.25721078       5.92991976       0.00627410      -0.00009286       0.00247705
C       10.75154363      11.17637952       4.88175661       0.00497735      -0.00427914      -0.00044072
S        4.01082276       8.23309407       1.84488930      -0.00115430       0.00461550       0.00030231
F        6.29427766       6.95018277       2.24344173      -0.00745484      -0.00694072       0.00190492
F        5.41369483       7.75465923       4.05152370      -0.00115992       0.00370853       0.00046229
F        6.40446420       9.07517118       2.65529769       0.00446922      -0.00621349      -0.00529783
O        3.48148784       9.47304933       2.38974171       0.00468779       0.00749445      -0.00168169
O        3.28148202       7.03378768       2.21093140      -0.00682628       0.00802016       0.00336403
O        4.42315233       8.30475006       0.45374055      -0.00199789      -0.00047758      -0.00016451
C        5.61570679       8.00527324       2.74778521      -0.00138044      -0.00159910      -0.00064969
S        2.04334502      12.05954084       9.58539816       0.02226955      -0.03381759      -0.00367248
F        1.17607828      12.49584953       7.13877443      -0.00561228       0.03155581       0.02781174
F       -0.35943524      12.59359647       8.66746882      -0.00552815      -0.01632388       0.02846690
F        0.44072276      10.67387493       8.05268530       0.00409143       0.00350150      -0.01588595
O        1.45547086      11.28600600      10.70568154      -0.00284642      -0.03689751       0.00226024
O        2.06671277      13.47581756      10.00602990       0.00314806      -0.02903676       0.02707960
O        3.24042474      11.54230045       9.00060085      -0.01747739      -0.00853536       0.01063725
C        0.73270363      11.95213626       8.26576792      -0.00001442      -0.00038598       0.01428461
C        7.72430514       1.63753029      10.74871478       0.00340866      -0.00063951      -0.00695927
C        7.83750015       2.98660702      10.41000121       0.00249542       0.00097671      -0.00131832
C        6.52406091       0.98504501      10.46487196       0.00224902       0.00067708      -0.00638574
C        8.85099837       0.90654644      11.41674850       0.00560999      -0.00213051      -0.01116660
C        6.78434463       3.66638191       9.81064828       0.00123826       0.00310247       0.00281074
C        5.46767653       1.65939851       9.86650275      -0.00021309       0.00313437      -0.00045343
C        5.59539052       3.00312116       9.53648525       0.00024143       0.00419691       0.00337534
H        8.76746176       3.50823481      10.60945358       0.00228261       0.00095573       0.00033950
H        6.42058968      -0.06341887      10.71692454       0.00320237      -0.00048892      -0.01074582
H        8.82045213      -0.15629972      11.17981393       0.00907936      -0.00148135      -0.01512663
H        9.81739276       1.30557202      11.10566877       0.00512561       0.00046706      -0.00988806
H        8.78369517       0.99914633      12.50380764       0.00547913      -0.00579880      -0.01071331
H        6.89782793       4.71161861       9.54871888       0.00102694       0.00390619       0.00560691
H        4.54783480       1.13197016       9.64732690      -0.00206652       0.00448228       0.00153060
H        4.77663950       3.52350386       9.05624585      -0.00063699       0.00634743       0.00685784
C        9.25347708       8.05327625       8.84189997      -0.00182137       0.00300312       0.00567496
C        8.79393393       7.52310856      10.04916930      -0.00372750       0.00090677       0.00419363
C        8.39594581       8.87218226       8.10574874      -0.00057903       0.00492063       0.00605062
C       10.63235315       7.74397171       8.33468266      -0.00124386       0.00334428       0.00670756
C        7.50650852       7.78820158      10.50418139      -0.00432678       0.00072727       0.00293736
C        7.10958318       9.14021064       8.55771389      -0.00116111       0.00457466       0.00481591
C        6.65568834       8.59425150       9.75416075      -0.00311729       0.00246701       0.00327236
H        9.45968537       6.90643066      10.64451494      -0.00478728      -0.00062158       0.00387405
H        8.72990107       9.33418542       7.18457224       0.00081162       0.00633241       0.00716233
H       11.03364656       8.57292771       7.75396106       0.00180818       0.00620738       0.01281884
H       11.32173170       7.53016258       9.15162723      -0.00342938      -0.00337406       0.00683556
H       10.61808090       6.86804410       7.67969229      -0.00163897       0.00767384       0.00082995
H        7.16517906       7.38077903      11.44877565      -0.00585788      -0.00086433       0.00195262
H        6.47091786       9.79130706       7.97363219      -0.00038391       0.00574265       0.00503153
H        5.65452811       8.80357968      10.11052342      -0.00372386       0.00203924       0.00219765
C        2.62569230       7.04693317       7.00094882       0.00043967      -0.00133429       0.00545989
C        1.28566899       7.13236731       6.62146524       0.00025505      -0.00343877       0.00538807
C        3.50618776       8.02498182       6.53857624      -0.00065848      -0.00086848       0.00414300
C        3.11891081       5.90767358       7.84589514       0.00193009       0.00007734       0.00680971
C        0.83989213       8.15711682       5.79612128      -0.00095746      -0.00507950       0.00382586
C        3.06639929       9.04860473       5.70964453      -0.00177920      -0.00267297       0.00234496
C        1.73129444       9.11803849       5.33586953      -0.00193132      -0.00484049       0.00208856
H        0.58423486       6.38541105       6.97800101       0.00096826      -0.00364682       0.00674323
H        4.55199170       7.97537279       6.82131857      -0.00040194       0.00051947       0.00381207
H        3.97370382       6.20883948       8.45216991       0.00150648       0.00170873       0.00670630
H        2.34190689       5.53531641       8.51446221       0.00220126      -0.00045754       0.00703719
H        3.44492332       5.07197329       7.21942523       0.00318965      -0.00025517       0.00761960
H       -0.20220574       8.20958818       5.50938145      -0.00119296      -0.00653953       0.00410168
H        3.76967858       9.78066966       5.33596479      -0.00258072      -0.00250305       0.00085243
H        1.38898737       9.90986752       4.68302441      -0.00292646      -0.00609261       0.00088967
C       12.25246778       9.46636742       0.98209998       0.00303774       0.00297278       0.00779162
C       13.06496887       8.66604198       1.78562276       0.00368935       0.00043152       0.00439045
C       10.99039195       9.00192779       0.61941506       0.00218928       0.00572877       0.00747485
C       12.76189948      10.80141826       0.51742592       0.00633015       0.00199583       0.01024504
C       12.61904453       7.42796257       2.22472890       0.00371081      -0.00071162       0.00112616
C       10.53869080       7.76528540       1.06913102       0.00176091       0.00456228       0.00438844
C       11.35075157       6.97627001       1.87448359       0.00266533       0.00157569       0.00093816
H       14.05714359       9.00295689       2.06507054       0.00437647      -0.00034220       0.00310542
H       10.35382735       9.60602571      -0.01778231       0.00262859       0.00816072       0.00919971
H       12.03415752      11.29891843      -0.13358822       0.01553934      -0.00258021      -0.00359515
H       12.97083995      11.45566107       1.37222652      -0.00771184       0.00682437       0.00994609
H       13.69048409      10.65854428      -0.04888626       0.01499942      -0.00060381       0.02540792
H       13.27692792       6.81996821       2.83140589       0.00479910      -0.00312294      -0.00232621
H        9.54786966       7.42267993       0.79503474       0.00130965       0.00563829       0.00387866
H       10.99893195       6.01183871       2.21826461       0.00273242       0.00044388      -0.00205845
C       11.04883502       2.41976728       1.69057823       0.00571720      -0.00191566      -0.00795937
C       10.72576495       2.32771671       3.04078648       0.00234704      -0.00455020      -0.00881952
C       10.28337784       3.25770023       0.87647771       0.00791346      -0.00006582      -0.00829476
C       12.16518933       1.59412183       1.10899755       0.00630422      -0.00199530      -0.00717718
C        9.66597514       3.05523657       3.57055721       0.00078133      -0.00551409      -0.01001152
C        9.22208863       3.98252377       1.40111934       0.00641251      -0.00092354      -0.00948565
C        8.91305237       3.88669286       2.75440471       0.00274616      -0.00387029      -0.01037668
H       11.27154786       1.65499478       3.68933944       0.00063857      -0.00574464      -0.00855732
H       10.51312280       3.33326410      -0.17958927       0.01074558       0.00204937      -0.00752470
H       12.80460460       2.20329050       0.45961002       0.01042916      -0.00132538      -0.00263967
H       12.78109725       1.15801938       1.89933143       0.00211228      -0.00698476      -0.00656430
H       11.75447280       0.76603210       0.51552440       0.00598754       0.00149216      -0.01232807
H        9.41015583       2.92792640       4.61256009      -0.00181507      -0.00764934      -0.01080814
H        8.62866649       4.61838397       0.75527660       0.00817145       0.00048275      -0.00985214
H        8.07944686       4.44298398       3.16478795       0.00156783      -0.00466933      -0.01130757
C        5.34901441       3.43684091       4.89349183      -0.00253102       0.00176757      -0.00025703
C        6.44411190       3.97743972       5.57206624      -0.00324941       0.00377807      -0.00043005
C        5.07189536       2.08140528       5.07787674       0.00236730       0.00026125      -0.00363539
C        4.53248529       4.28280203       3.96186069      -0.00697872       0.00179148       0.00343931
C        7.24308350       3.18350001       6.38453423       0.00030749       0.00430277      -0.00315006
C        5.87282957       1.28263891       5.88707976       0.00610453       0.00073422      -0.00665226
C        6.96665268       1.83079696       6.54178721       0.00497586       0.00294214      -0.00628135
H        6.66963692       5.03204077       5.45131458      -0.00668926       0.00481576       0.00175497
H        4.21766143       1.64588296       4.57046153       0.00335377      -0.00145186      -0.00417094
H        3.56372295       3.82954040       3.75619039      -0.00680161       0.00032993       0.00526834
H        4.36515926       5.28711255       4.34970494      -0.00762377       0.00084341       0.00587995
H        5.04177444       4.40632936       3.00266504      -0.00984259       0.00452771       0.00216833
H        8.08892288       3.61898202       6.90234851      -0.00049993       0.00586347      -0.00289947
H        5.65565628       0.22804300       5.99864696       0.01010716      -0.00035122      -0.00921836
H        7.60103545       1.21172203       7.16164637       0.00790882       0.00331098      -0.00871564
C        5.14973289      11.98651572       0.77348253      -0.00190699       0.00357761      -0.00791453
C        5.85543632      11.09544058      -0.03221320       0.00047362       0.00276026      -0.00504041
C        5.80403869      12.57520757       1.85383472      -0.00532732       0.00570847      -0.00695562
C        3.70068647      12.26698234       0.49228410      -0.00134829       0.00199280      -0.01276916
C        7.18746896      10.80725215       0.23354478      -0.00002184       0.00363711      -0.00073305
C        7.13488274      12.28538337       2.13113370      -0.00584742       0.00648239      -0.00273344
C        7.82939588      11.40223613       1.31264257      -0.00342041       0.00522971       0.00045893
H        5.35105291      10.60167787      -0.85300486       0.00288562       0.00214089      -0.00607812
H        5.26896825      13.25966728       2.50307319      -0.00760631       0.00687809      -0.00994436
H        3.43009687      13.28785051       0.79234950      -0.00275420       0.00258711      -0.01532747
H        3.50351311      12.14320988      -0.58207985       0.00295435       0.00158339      -0.01370693
H        3.06918150      11.55489068       1.04117462      -0.00252180       0.00197963      -0.01365383
H        7.71040591      10.09695386      -0.39694006       0.00194609       0.00299264       0.00143665
H        7.63002281      12.72294650       2.98986604      -0.00793983       0.00787662      -0.00204122
H        8.85957173      11.15891957       1.54347130      -0.00409274       0.00567292       0.00395888
C        3.21458735       4.77531186      12.15835003      -0.00827789      -0.00193370       0.00059190
C        2.27576670       5.80491753      12.27049572      -0.00552931       0.00103593       0.00123030
C        2.77408454       3.51624244      11.74744484      -0.01104394       0.00075123      -0.00456326
C        4.65609702       5.04563643      12.46501392      -0.00839490      -0.00810672       0.00733826
C        0.93500361       5.58145213      11.99365021      -0.00496457       0.00544733      -0.00495248
C        1.43205570       3.29786277      11.45078236      -0.01063763       0.00459781      -0.00912810
C        0.50805521       4.32641981      11.57521779      -0.00759700       0.00624821      -0.00870901
H        2.61168271       6.78331352      12.58645077      -0.00362141      -0.00147519       0.00749317
H        3.49690786       2.71646558      11.62243330      -0.01345807      -0.00144457      -0.00432311
H        5.26680747       4.15139050      12.35071210      -0.01223791      -0.01138377       0.01202615
H        5.04922134       5.81896621      11.80202473      -0.00089002      -0.01138633       0.00781411
H        4.75849589       5.43836518      13.47699854      -0.01159219      -0.00668855       0.00720191
H        0.22194786       6.38859854      12.10945978      -0.00289951       0.00819610      -0.00402465
H        1.11849648       2.34049689      11.04158220      -0.01411400       0.00514887      -0.00713126
H       -0.53435934       4.15317754      11.33862206      -0.00769578       0.01434037      -0.01401210
