136
Lattice="12.731054414514897 0.0 0.0 0.0 12.731054414514897 0.0 0.0 0.0 12.731054414514897" Properties=species:S:1:pos:R:3:forces:R:3 energy=-1091292.25 stress="0.0007687761099077761 -0.00011954148067161441 0.0005762219952885062 -0.00011954148067161441 0.00022507568064611405 -0.00035987942828796804 0.0005762219952885062 -0.00035987942828796804 9.658648195909336e-05" pbc="T T T"
Fm      12.05528610      10.15491648      -0.80680253      -0.02693096       0.01155022       0.02108148
B        1.89492823      10.27698507       0.70644764      -0.00681230       0.00709228      -0.01006192
F        1.50481790       9.35596638      -0.36843227      -0.01832915       0.01289895      -0.01083994
F        1.82731857       9.61829282       1.90094346      -0.00077030      -0.00077009      -0.01187772
F        3.07306143      10.85961843       0.44031673      -0.00699055       0.00406587      -0.01278575
F        0.79247778      11.25571246       0.64192186      -0.00573692       0.01008743       0.00558471
B        0.55608638      11.21517982       7.06080148       0.00089364      -0.00962795       0.00547238
F       -0.38562848      10.18030758       7.29090222      -0.00072789      -0.00898039       0.00523238
F        0.58660071      12.04781427       8.19493031       0.00416727      -0.00621367       0.00313735
F        1.81978735      10.64242261       6.87762055      -0.00004840      -0.01199174       0.00544222
F        0.18278146      11.95812109       5.94650638       0.00152996      -0.01066816       0.00410163
B        7.30417539      11.67297416      11.29232250       0.03071835      -0.00500141       0.01185930
F        8.58252182      12.01276262      11.82840652       0.03340518      -0.01786929       0.01680219
F        7.06175324      10.32180070      11.56717322       0.01501516      -0.00162470       0.01310599
F        6.34191473      12.48940088      11.85617086       0.03881454       0.00953221       0.00751799
F        7.35082236      11.85907560       9.89571857       0.03620197      -0.00738272       0.01163316
O       10.46063589      10.22012033      10.24811308       0.01377378      -0.00084229      -0.00880290
C        9.48117053       9.31174234       9.72394076       0.00654384       0.01152346       0.00196189
C       10.56712398      11.49280142       9.56546428      -0.00207034       0.00162120      -0.01122567
C        9.21541729       8.26304423      10.77462401       0.02394515      -0.01432261      -0.01790959
C       11.55078919      12.31345182      10.36676099      -0.00293455       0.00302914       0.00284028
H        8.57588505       9.88452081       9.51317218       0.00226849       0.00018984      -0.01220503
H        9.87521945       8.89404672       8.79235214       0.01160201      -0.00409499      -0.02925166
H       10.93211784      11.31811493       8.55214412       0.00510803       0.01589920      -0.00446588
H        9.57380216      11.94067288       9.56023122      -0.00008255      -0.00144306      -0.00749323
H        8.54018943       7.49894770      10.38877006       0.01187912      -0.00288628      -0.01247379
H       10.13533821       7.76614582      11.09449461       0.01005237       0.00115084      -0.02202637
H        8.72967282       8.72786627      11.62936302       0.01332544      -0.00017953      -0.00742589
H       11.65209049      13.30591577       9.93294832      -0.00414187       0.00565715       0.00867628
H       11.20690159      12.43140759      11.40492701      -0.00651344      -0.00106987       0.00039741
H       12.56287666      11.88754743      10.30618890      -0.00473496       0.00166010       0.00499655
O        7.80301916       5.78337600       7.24076861      -0.00207663       0.00177085       0.00138563
C        9.18560306       5.98202362       7.03373676      -0.00294751       0.00171059      -0.00285717
C        7.10626902       6.99915394       7.44374638      -0.00224036       0.00237091       0.00055945
C        9.84446969       4.63719485       6.85488561      -0.00293870       0.00151426      -0.00131051
C        5.66348342       6.69061141       7.75253810      -0.00206769       0.00270911       0.00180203
H        9.34602479       6.62045203       6.15103466      -0.00539279      -0.00028735      -0.00491560
H        9.62064558       6.51327758       7.89340478      -0.00042623       0.00406033      -0.00526625
H        7.56692869       7.55567516       8.27178801      -0.00197291       0.00307083      -0.00023013
H        7.19145448       7.63218354       6.54721423      -0.00267046       0.00130677      -0.00017017
H       10.91544964       4.75902895       6.68963973      -0.00348435       0.00098240      -0.00469472
H        9.69437474       4.02066377       7.73999749      -0.00048862       0.00346437       0.00046602
H        9.41577367       4.11356741       6.00011360      -0.00545610      -0.00076123       0.00091022
H        5.12555239       7.60860672       7.98931222      -0.00199800       0.00245641       0.00105616
H        5.16360549       6.22441603       6.90481178      -0.00263267       0.00162828       0.00180303
H        5.60368029       6.01565046       8.60764491      -0.00169246       0.00306435       0.00203928
O        5.11884071      11.38248094       3.50710599      -0.00952291       0.00574703      -0.00019377
C        6.45014825      10.94063511       3.39496812      -0.01089078       0.00012597       0.00161397
C        4.77737697      11.81892386       4.81192448      -0.01052427       0.00019917       0.00151309
C        6.70625726      10.57263891       1.95589598      -0.00770161       0.00778230       0.00013953
C        3.35522446      12.31619002       4.78750683      -0.00961995       0.00350413       0.00243526
H        7.13819210      11.73696295       3.72195005      -0.00815031      -0.00477314       0.00871250
H        6.62271160      10.08228284       4.06868513      -0.01718548      -0.00477070      -0.00308484
H        4.88390659      10.98658083       5.52468575      -0.01346816      -0.00334817      -0.00227222
H        5.47428309      12.61015279       5.13038823      -0.00928420      -0.00256801       0.00606307
H        7.74895266      10.29041582       1.81032906      -0.00853764       0.00356919       0.00167356
H        6.07317355       9.74159988       1.64741774      -0.01085272       0.01250809      -0.00725118
H        6.48510388      11.40759730       1.29373260      -0.00151018       0.01286894       0.00469679
H        3.04333617      12.64616299       5.77652196      -0.00876868       0.00119370       0.00343350
H        3.25673988      13.13856743       4.07736301      -0.00777328       0.00587781       0.00504866
H        2.67249465      11.52236837       4.49091436      -0.01165588       0.00591853       0.00031511
O        2.59681192       7.13793205       6.10793956      -0.00288977       0.00038904      -0.00698392
C        2.95700998       8.27124242       5.32662573      -0.00500914       0.00032908      -0.00800765
C        1.86838503       7.51170545       7.26664367      -0.00332063      -0.00186849      -0.00676149
C        3.75257512       7.80751420       4.13222956      -0.00206497       0.00189523      -0.00533229
C        1.56035089       6.26048824       8.05483236       0.00019819      -0.00023538      -0.00523013
H        2.05677959       8.81453484       5.01715088      -0.00760549      -0.00266147      -0.00900012
H        3.53431709       8.97090690       5.94446433      -0.01025745       0.00421044      -0.00750065
H        2.45787808       8.21853124       7.86627775      -0.00477511       0.00107819      -0.00822794
H        0.95415713       8.04855437       6.98636776      -0.00518364      -0.00321025      -0.00640890
H        4.03129939       8.66637117       3.52056118      -0.00314296       0.00345722      -0.00637237
H        4.65796212       7.28329005       4.44689751      -0.00013328       0.00607933      -0.00401148
H        3.15931454       7.13004594       3.51720181       0.00295943       0.00017788      -0.00729540
H        0.98115054       6.51179269       8.94409300       0.00115672       0.00083338      -0.00382766
H        0.98161047       5.55850740       7.45276975       0.00010715      -0.00279460      -0.00312649
H        2.47756158       5.76041786       8.36999815       0.00122198       0.00132752      -0.00593589
O        6.34728935       2.88674913       9.90798217      -0.00102419       0.00004435       0.00485235
C        4.98345175       2.74901410       9.58062258      -0.00071341       0.00081834       0.00270897
C        7.18412993       2.25087013       8.95081469      -0.00047970      -0.00301759       0.00718808
C        4.15957292       3.46606174      10.62283339      -0.00159526      -0.00154674       0.00401425
C        8.56601630       2.11667037       9.54185314       0.00075257       0.00432347       0.00720340
H        4.79040822       3.16711210       8.58029534       0.00039690       0.00515440       0.00416362
H        4.71938090       1.68273181       9.54513576      -0.00070170       0.00172383      -0.00080839
H        6.78566088       1.25724969       8.71546959       0.00223228      -0.00523305       0.01281906
H        7.19461284       2.84350844       8.02533588      -0.00215421      -0.00787318       0.00389671
H        3.09977039       3.40498808      10.37280925      -0.00161959      -0.00143658       0.00366177
H        4.31250523       3.01470066      11.60200146      -0.00192277      -0.00440073       0.00307781
H        4.44246089       4.51802078      10.67803368      -0.00240646      -0.00236815       0.00540851
H        9.24666060       1.69027209       8.80278668       0.00173440       0.00266980       0.00917715
H        8.95046296       3.08990480       9.85140809      -0.00286147       0.00774716       0.00163626
H        8.53984754       1.45343364      10.40528885       0.00305741       0.00935167       0.01084462
O        9.60333328       7.22165794       1.28447829       0.00031008       0.00450715      -0.00017153
C        8.21093021       7.21398721       1.57693724      -0.00002515       0.00369751      -0.00593296
C       10.19738468       8.47775594       1.49614867       0.00156873       0.00402068       0.00048347
C        7.68912145       5.81222368       1.38679431       0.00080740       0.00422770      -0.00837930
C       11.68350164       8.34844540       1.27204381       0.00353166      -0.00089204       0.01911679
H        8.05875378       7.55002310       2.61346290      -0.00557815       0.00305153      -0.00663888
H        7.69277642       7.92636276       0.92347924       0.00138581       0.00425646      -0.00807485
H        9.76032712       9.23060765       0.81429304       0.01294596       0.00239798      -0.01041976
H        9.99917507       8.82747793       2.51984049      -0.01108892       0.01134463      -0.00463027
H        6.63048597       5.77274394       1.64683032       0.00226302       0.00383009      -0.00834555
H        7.79689849       5.49628883       0.34951259       0.00333919       0.00447215      -0.00834855
H        8.23847936       5.10816615       2.01126260       0.00096105       0.00310735      -0.00765176
H       12.19480371       9.30267566       1.43961395       0.00341337      -0.00131165       0.02270417
H       12.14051189       7.64728160       1.96794880      -0.00813197      -0.00227748       0.02615993
H       11.89647166       7.97083743       0.26220825       0.01779246      -0.00120068       0.02196155
O       10.13402075       3.39945312       2.29292341       0.00029576      -0.00643405      -0.00053115
C        9.98725756       2.12885565       1.67591175      -0.00206238      -0.00629467      -0.00063521
C       11.33368744       3.52201509       3.02894378       0.00058185      -0.00823486      -0.00092450
C        8.69986419       2.11003990       0.89313634      -0.00294745      -0.00486810       0.00170213
C       11.43063220       4.94552507       3.52262096       0.00256764      -0.00811297      -0.00226074
H       10.85018568       1.94234940       1.02059687      -0.00293863      -0.00730314      -0.00178140
H        9.99540062       1.34338230       2.44614110      -0.00167913      -0.00632656      -0.00031182
H       11.34474196       2.80251100       3.86359135      -0.00020053      -0.00827867      -0.00066340
H       12.19076474       3.27838349       2.38464539       0.00019956      -0.01006651      -0.00108954
H        8.54172402       1.13762472       0.42641456      -0.00391872      -0.00479656       0.00122439
H        7.85383419       2.32010242       1.54777732      -0.00201197      -0.00499117       0.00270812
H        8.71601277       2.86711135       0.10930904      -0.00356206      -0.00431558       0.00174350
H       12.34847586       5.10259651       4.09001900       0.00274540      -0.00815686      -0.00204413
H       11.40887102       5.62903249       2.67592261       0.00390818      -0.00930795      -0.00329056
H       10.58154033       5.18738844       4.16128444       0.00243068      -0.00596146      -0.00309783
O        6.78091368       2.20605255       5.33079478       0.00124905      -0.00104826       0.00218427
C        7.90860376       1.79890236       4.57991020       0.00191349      -0.00363678       0.00380215
C        5.81356570       2.86344719       4.53527833       0.00428563       0.00002453      -0.00000213
C        8.83298663       1.02019851       5.48296539       0.00084534      -0.00322148       0.00448409
C        4.64781961       3.24381728       5.41339718       0.00466990       0.00229111      -0.00028780
H        7.57938633       1.18110181       3.73057969       0.00154388      -0.00511381       0.00495559
H        8.41604030       2.67796218       4.15536060       0.00268582      -0.00532293       0.00127292
H        6.26045316       3.75537972       4.07055299       0.00590640      -0.00096083       0.00027011
H        5.49124783       2.19583483       3.72206793       0.00322460       0.00068414       0.00016704
H        9.71623270       0.68302908       4.93995760      -0.00144061      -0.00502022       0.00773916
H        9.16112505       1.63906715       6.31758181       0.00313716      -0.00477715       0.00521347
H        8.32424735       0.14726015       5.89230163      -0.00288421      -0.00044264       0.00688229
H        3.88195864       3.75648650       4.83136311       0.00570756       0.00470423       0.00079733
H        4.20414768       2.35609409       5.86330913       0.00306129       0.00286777      -0.00082402
H        4.97744374       3.91085061       6.20927750       0.00674896       0.00034019       0.00052619
