137
Lattice="12.404117751108075 0.0 0.0 0.0 12.404117751108075 0.0 0.0 0.0 12.404117751108075" Properties=species:S:1:pos:R:3:forces:R:3 energy=-943359.9375 stress="-0.00257775723002851 0.0008429103472735733 2.685976869543083e-05 0.0008429103472735733 -0.0017393839079886675 -5.666293390049759e-07 2.685976869543083e-05 -5.666293390049759e-07 -0.001279267598874867" pbc="T T T"
Fr      11.33805133      14.45181464      -0.44966183      -0.01544864       0.02691376      -0.03258967
I       13.27999053      11.70076318      -0.04437908      -0.01188684       0.04120308       0.02479396
O        4.23970187       3.40556606       5.38707169      -0.00130487      -0.00946048      -0.00331738
C        3.13119293       2.52817383       5.44308033       0.00020671      -0.01324889      -0.00366037
C        5.47224219       2.71387634       5.39870801      -0.00116402      -0.01059571       0.00501668
C        1.86647247       3.34977381       5.44249905      -0.00151613      -0.01240048      -0.00475104
C        6.59957088       3.71557228       5.32965691      -0.00438654      -0.00396106       0.00513558
H        3.15436316       1.84640719       4.57943218       0.00144396      -0.01241258      -0.00162864
H        3.19449643       1.90896900       6.35102040      -0.00053319      -0.00965899      -0.00252384
H        5.54649644       2.10623048       6.31419490      -0.00363923      -0.00324959       0.00801405
H        5.51003137       2.01747910       4.54591224       0.00423421      -0.01304844       0.00973684
H        0.98909029       2.70279736       5.46320379      -0.00026722      -0.01519042      -0.00875327
H        1.83470526       4.00035378       6.31613651      -0.00466454      -0.01542870      -0.00527747
H        1.81623465       3.97338097       4.54975821       0.00007911      -0.01260035      -0.00430912
H        7.56599462       3.22342006       5.42361447      -0.00117376      -0.00613260       0.00847213
H        6.58805262       4.25264000       4.38162224      -0.00210889      -0.01020830       0.00408711
H        6.49988316       4.44026324       6.13661091      -0.00674664      -0.00561218       0.00109848
O        9.22082311      10.66013161       9.44452313       0.00451431       0.01197869       0.00077349
C        9.79900554      10.04240030      10.58392372      -0.01402760      -0.00771791      -0.00095277
C        7.98873159      11.28047304       9.73823665       0.00279766       0.01188037      -0.00588471
C       11.11124951       9.43033627      10.17899283       0.00126094       0.00987984       0.01499102
C        7.47045284      11.91682482       8.47244915       0.00926600       0.02517918      -0.00122926
H        9.95731566      10.79301130      11.37460869      -0.02395143      -0.01320073       0.01284286
H        9.10745884       9.28407372      10.98162239      -0.01562020      -0.00842670      -0.02250601
H        7.27627961      10.53394741      10.12617731      -0.00370148       0.00906381      -0.01998237
H        8.12578976      12.03528310      10.52935713      -0.00601500       0.00443617       0.00175256
H       11.53469050       8.85449975      11.00223791      -0.01517096      -0.01038567       0.01044106
H       10.97882800       8.78219485       9.31293574       0.01066360       0.01616387      -0.00226772
H       11.82441035      10.21043898       9.93087039      -0.00285058       0.00318879       0.03684050
H        6.49331999      12.37024878       8.63929913       0.01604003       0.02904308       0.00101995
H        8.16126431      12.68215847       8.12090734       0.01652862       0.02654792       0.00644113
H        7.37188371      11.16413035       7.69021461       0.00853939       0.03434812      -0.01030906
O        5.29969956       5.06435299       8.76818381      -0.00225047      -0.00851781       0.00238106
C        6.27141582       4.53067645       9.64488678      -0.00494552      -0.00978419       0.00368479
C        4.28804250       5.78296113       9.45807286      -0.00253165      -0.00660348      -0.00083557
C        7.24361099       3.70243672       8.84027003      -0.00274703      -0.01032600       0.00729659
C        3.20868735       6.16528306       8.47761839      -0.00651959      -0.01094355       0.00330994
H        6.79213791       5.34696650      10.16933733      -0.00401485      -0.01114401       0.00481200
H        5.78134612       3.91520242      10.41367536      -0.00714317      -0.01081511       0.00111520
H        3.87816012       5.15726572      10.26408960      -0.00224327      -0.00490037       0.00226909
H        4.72467736       6.67388436       9.93597367      -0.00411579      -0.00499049      -0.00360036
H        7.98686090       3.24727248       9.49542445      -0.00623786      -0.01252514       0.01082478
H        6.71434673       2.90764343       8.31468727      -0.00372517      -0.00558639       0.00083196
H        7.76374826       4.31528353       8.10360638      -0.00042628      -0.01070842       0.00913742
H        2.44497317       6.76787953       8.96947822      -0.00517623      -0.01489312       0.00367051
H        3.61590440       6.75760778       7.66064182      -0.00882268      -0.00842623      -0.00018610
H        2.74480675       5.27084778       8.06299540      -0.00296235      -0.01193714       0.00183704
O        3.53186569       9.45936256       7.63368921      -0.00135164       0.01530167       0.00317210
C        4.88566325       9.84772864       7.58938960      -0.00158340       0.01942977       0.00591157
C        2.68436894      10.57938574       7.84344507      -0.00186074       0.01525997       0.00640820
C        5.75226767       8.62540975       7.45462533      -0.00286072       0.01364756       0.00678905
C        1.26455607      10.09743136       7.94669697      -0.00465167       0.01593742       0.00131631
H        5.04705310      10.53735870       6.74477334      -0.00049204       0.01710159       0.00666738
H        5.13731222      10.39769255       8.50662749      -0.00309905       0.01565631       0.00576150
H        2.98923963      11.09571839       8.76424932      -0.00623840       0.00881116       0.01176167
H        2.80573027      11.28748186       7.00940708      -0.00041258       0.01908767       0.01293758
H        6.79921258       8.91137827       7.37112587       0.00086673       0.01543988       0.01437928
H        5.64552683       7.97118950       8.31902190      -0.00859191       0.01595593       0.00395261
H        5.48264114       8.05451341       6.56665582       0.00379831       0.01947973       0.00522456
H        0.60004280      10.93597260       8.15236001      -0.00260920       0.01122859       0.00806422
H        0.93920343       9.62778732       7.02008713      -0.00265888       0.02478128      -0.00711453
H        1.17725044       9.38354132       8.76488425      -0.00596473       0.00527234      -0.00976875
O        0.86978581       9.35516402       4.64918298      -0.00862241       0.00131375       0.00077637
C        1.60028092      10.43246313       4.08642525      -0.01291791       0.00383317       0.00215635
C        1.70403796       8.22454143       4.86392019      -0.00706416       0.00409770      -0.00127941
C        0.67327086      11.60239104       3.88220319      -0.00941551       0.00548530       0.01166808
C        0.88343267       7.10561781       5.45742456      -0.00164899       0.00118691      -0.00080609
H        2.43163599      10.70016032       4.75813285      -0.00430566      -0.00277066      -0.01063710
H        2.04080358      10.12207954       3.12903154      -0.02468705       0.00721355      -0.00987154
H        2.15650782       7.92062181       3.91050791      -0.01096494       0.00257580      -0.00555015
H        2.51873113       8.50061163       5.54877002      -0.00494650       0.00625636      -0.00842348
H        1.22440358      12.44151581       3.45598205      -0.01409429       0.00461486       0.01695147
H       -0.11379084      11.34262161       3.17332885      -0.01861751       0.01253279       0.02567169
H        0.22274408      11.90460163       4.82845737       0.00117947       0.00107752       0.02751687
H        1.53487273       6.28541073       5.75718599       0.00375061       0.00448278      -0.00095254
H        0.33891814       7.44507648       6.33923957       0.00191544       0.00320165       0.00386982
H        0.16329312       6.71911593       4.73748215      -0.00310633      -0.00100873       0.00750063
O        9.34364926       6.60736253       7.24641018       0.00548694      -0.01327899       0.00547754
C        8.78223350       7.00383912       8.48626763       0.01083130      -0.00256963       0.00429457
C        8.68872508       7.21707178       6.14826454       0.00189553      -0.01359161       0.00693417
C        9.54047818       6.31892180       9.59784803       0.00984940      -0.00256702       0.00356448
C        9.35516507       6.77027084       4.87422922       0.00180864      -0.01701185       0.00583136
H        8.84055881       8.09762544       8.58970027       0.01373390      -0.00480705      -0.00118291
H        7.71705767       6.72986750       8.51303132       0.01157331      -0.00372338       0.01140705
H        7.62459010       6.93920418       6.15032286       0.00282609      -0.01761463       0.00910866
H        8.74076234       8.31271517       6.24734481       0.00029095      -0.01626509       0.00667817
H        9.16875487       6.64417011      10.57117836       0.01865595      -0.00153050       0.00451276
H        9.43280484       5.23757389       9.52231274      -0.01080334       0.00206769      -0.00623375
H       10.60050724       6.56121121       9.54187892       0.01485217      -0.01114454      -0.00001919
H        8.84722513       7.19299555       4.00560843      -0.00393732      -0.02289034       0.00481576
H       10.39208821       7.10126621       4.85579942      -0.00087462      -0.00653747       0.00111378
H        9.33265010       5.68275908       4.79430251       0.00986811      -0.01375400       0.01177183
O        4.32776276       7.83670831       2.53296938      -0.00403765       0.00611922       0.00179198
C        4.55321692       9.10954571       1.95145409      -0.00921327       0.00522850      -0.00329715
C        5.03436422       7.64945306       3.74195091      -0.00603686       0.01399988       0.00545090
C        3.71221431       9.20359785       0.70772008       0.00101766       0.00256129      -0.01454580
C        4.62040035       6.32775212       4.33198489       0.00106445       0.00604653       0.00007452
H        4.28842754       9.89744370       2.67129601      -0.02543969       0.00787786      -0.01277214
H        5.61953371       9.23659945       1.71987870      -0.01017624       0.01053268       0.00403431
H        6.11947475       7.66468572       3.55095939      -0.00456101       0.01885341       0.01348005
H        4.81392675       8.47967345       4.43031172      -0.01384737       0.00804079       0.00513235
H        3.84511907      10.16650850       0.21759942       0.00316124       0.00293688      -0.00665884
H        3.97567030       8.40683930       0.00965582       0.01415282       0.00703272      -0.01684673
H        2.65518226       9.10783948       0.95419162      -0.00137718      -0.00715566      -0.03309292
H        5.17875858       6.10684797       5.23932540      -0.00508292       0.00748333       0.00313927
H        3.56202174       6.31920710       4.58293805      -0.00262436       0.00179262      -0.01112118
H        4.79504514       5.51898037       3.62370888       0.01223171       0.01179238       0.00067601
O        9.31418988       7.61555482       1.33682408       0.00419371       0.00289533      -0.01027005
C       10.18943182       8.63548963       1.80478125       0.00995487      -0.01303396       0.00380798
C        7.98380637       8.07162974       1.19408780       0.00596738      -0.00603375      -0.00389707
C       11.54151365       8.02768015       2.06569909       0.02569273       0.02461863      -0.02699592
C        7.10465855       6.89724145       0.83967760       0.00334394       0.00111979      -0.00745808
H       10.25707129       9.44365799       1.06478646       0.00433169       0.00580195      -0.00602064
H        9.77883715       9.06994565       2.72867143       0.01693419      -0.01098563      -0.00292322
H        7.65365785       8.53586139       2.13512042       0.00734323      -0.00688550       0.00039697
H        7.93018791       8.85291122       0.42102432      -0.00205694      -0.00001830      -0.00186297
H       12.20650508       8.76808353       2.50834208       0.00825112      -0.01697010      -0.03235976
H       11.44592416       7.20124352       2.76992320       0.01599042      -0.02098806      -0.03310858
H       11.98979619       7.65700951       1.14414979       0.00219440       0.00561292      -0.03107661
H        6.07614556       7.21101779       0.66935772       0.00124799       0.00731024       0.00072737
H        7.47784569       6.40889894      -0.06124164      -0.01211448       0.00454894      -0.01283613
H        7.10006531       6.16563042       1.64841000       0.00071846      -0.00538763      -0.01171799
O        9.27727284       2.51570996       3.39506625       0.00845088      -0.00854518      -0.00147268
C        8.70435405       2.95761139       2.18474645       0.01145428      -0.01044112      -0.00300479
C        8.73856322       1.27488473       3.82399922       0.01128127      -0.01233205      -0.00634366
C        9.35954778       4.25725103       1.79008305       0.00360328       0.00011832       0.00662808
C        9.33563650       0.92740949       5.16464680       0.01266694      -0.00869091      -0.00286907
H        8.84246921       2.18737080       1.40309569       0.01071330      -0.00602651       0.00250560
H        7.61864195       3.08838356       2.30575939       0.00761810      -0.00739411      -0.00255299
H        7.64388547       1.35152855       3.88883642       0.01021254      -0.01283810      -0.00624296
H        8.96790254       0.49779787       3.07945690       0.01036091      -0.01340747       0.00143355
H        8.99154204       4.60852729       0.82678362       0.00558388      -0.00113061       0.00286047
H        9.15509138       5.03845545       2.51905891       0.01064234      -0.01230091       0.00058064
H       10.44321967       4.13986120       1.73574484       0.01067299      -0.00628496      -0.00082564
H        8.94085767      -0.02355967       5.52237431       0.01159508      -0.01050146      -0.00862192
H       10.41929505       0.84613773       5.09029078       0.01221582      -0.01101400      -0.00508108
H        9.10047097       1.69613942       5.90210639       0.01136826      -0.01000901      -0.00703534
