139
Lattice="12.375585183442569 0.0 0.0 0.0 12.375585183442569 0.0 0.0 0.0 12.375585183442569" Properties=species:S:1:pos:R:3:forces:R:3 energy=-787931.75 stress="-0.0005352005246095359 -0.00039016801747493446 -0.0001382280097459443 -0.00039016801747493446 -0.0009028672939166427 0.0002235558204120025 -0.0001382280097459443 0.0002235558204120025 -0.0025470282416790724" pbc="T T T"
Fr      13.78380401      12.33661896       0.96448256       0.01084334       0.02810031       0.03465320
O       11.53621864      11.39945680       3.17746999      -0.01661432      -0.01000810      -0.01044655
N       10.92070585      12.76969014       1.30289799       0.02520227       0.03548086       0.01585388
C       11.14313494      12.08946659       2.25619872      -0.00289789       0.02992237      -0.02076277
O        3.17482961       2.56486971       6.24164373      -0.00434715      -0.01419526      -0.00133915
O        1.79912008       4.06453010       6.97595790      -0.00624359      -0.01625764      -0.00108096
O        3.76936342       4.75024300       6.09814091      -0.00946659      -0.01288319      -0.00470123
C        4.42726649       2.19246241       5.60517526      -0.00331058      -0.01256716       0.00128481
C        4.76257889       0.78120695       6.00033985       0.00198641      -0.00895816       0.01075953
C        2.99539289       3.87817115       6.40386250      -0.00722033      -0.01401508      -0.00238115
C        1.49015663       5.45091671       7.22566045      -0.00845702      -0.01659040      -0.00331426
H        4.29870479       2.29386058       4.52758906      -0.00363351      -0.01942142       0.00060844
H        5.19201070       2.90731145       5.90145720      -0.00612694      -0.00782296      -0.00293446
H        5.72815345       0.51962217       5.56457605       0.00504465      -0.00700933       0.01700292
H        4.82847446       0.67877921       7.08299516      -0.00234887      -0.00113018       0.01154986
H        4.03410522       0.06517347       5.63108401       0.00702953      -0.01459982       0.01241888
H        2.31344131       5.93609809       7.73881267      -0.01400921      -0.01733050       0.00647435
H        0.59820497       5.43388039       7.84659987      -0.01533024      -0.01739132      -0.01351371
H        1.30320468       5.97408138       6.29086198       0.00230291      -0.01540412      -0.00484461
O        4.83126460       2.78240635       9.04969687       0.00083774      -0.00650543       0.00389722
O        2.83682306       2.51317950       9.85344425       0.00189425      -0.00788216       0.01025914
O        3.58929357       4.61979492       9.50160762      -0.00150631      -0.00844735       0.00497868
C        5.90075434       3.64342511       8.57478043      -0.00132033      -0.00516647       0.00255302
C        7.05323281       2.74534557       8.21469044      -0.00022346      -0.00286719       0.00036753
C        3.74730934       3.42415939       9.46881430       0.00021580      -0.00834727       0.00616907
C        1.56493980       3.08316398      10.18459598       0.00183806      -0.00840643       0.01357300
H        5.52954809       4.21858693       7.72484528      -0.00280011      -0.00539336       0.00332183
H        6.16179356       4.34499691       9.36621476      -0.00071718      -0.00526908       0.00227031
H        7.91050343       3.34971811       7.92361549      -0.00242853      -0.00110386      -0.00235493
H        7.33671621       2.13111015       9.06677314       0.00400993      -0.00178535      -0.00030288
H        6.79929305       2.08754371       7.38510969      -0.00058819      -0.00364313       0.00117825
H        1.65980286       3.79725421      11.00256737       0.00706337      -0.01049055       0.01210211
H        0.92923155       2.24823958      10.46303417       0.00409551      -0.00430125       0.02561285
H        1.15044065       3.58807463       9.31536729      -0.00222581      -0.01440506       0.01265410
O        3.14344217      10.14568638       6.05183832      -0.00444299      -0.00026357      -0.00500002
O        4.89220264       8.95806907       6.52738770      -0.00563613      -0.00000961      -0.00391334
O        2.90018810       7.91350924       6.30764790      -0.00931609       0.00262594       0.01709449
C        1.71979476      10.21691485       5.79220527      -0.00422941       0.00303727      -0.00042987
C        1.32297852      11.66715486       5.75383957       0.00094886       0.00442654      -0.00508147
C        3.58681009       8.90529006       6.29941184      -0.00675893       0.00070500       0.00412479
C        5.50499864       7.67617326       6.74799600      -0.00579001       0.00040623      -0.00077083
H        1.51424322       9.72202246       4.84142912      -0.00948368      -0.00019574       0.00233316
H        1.18786192       9.66199426       6.56191332      -0.00391054       0.00845355       0.00335816
H        0.26128625      11.73092748       5.52100789       0.00005162       0.00808640       0.00014067
H        1.51458350      12.16238588       6.70646512       0.00739552       0.00758745      -0.00816615
H        1.86993673      12.20658837       4.98001258       0.00008237      -0.00065956      -0.00944461
H        5.06182594       7.19249625       7.61796480       0.00062872       0.00697905       0.00587210
H        6.55566768       7.89313781       6.91608448      -0.00421888      -0.00010729      -0.01081194
H        5.36923911       7.04752236       5.87163522      -0.01381616      -0.00478071       0.00431326
O        5.94594613       9.36090373       9.40883846      -0.01151948       0.00010425       0.00080267
O        3.92312428       9.98164104       8.99032991      -0.01335032      -0.00121367       0.00412206
O        4.45127726       9.41838122      11.11682202      -0.00329378       0.01794452       0.00570250
C        7.00080453       9.00634287      10.33964158      -0.00806093       0.00785065      -0.00087398
C        8.20155370       8.58554214       9.53933432      -0.01138330       0.00160043      -0.00245020
C        4.75242429       9.56865845       9.95509530      -0.00904222       0.00623045       0.00622034
C        2.59731752      10.27632395       9.42723572      -0.00936663       0.00645968       0.00890902
H        7.21971328       9.88756964      10.94210911      -0.00538614       0.01247287      -0.00810179
H        6.64254618       8.21523619      10.99573367      -0.00521123       0.01297957       0.00701496
H        9.00553579       8.31293120      10.22508842      -0.00992878       0.00421854      -0.00345606
H        7.97243031       7.72362806       8.91625005      -0.01495056      -0.00154051       0.00329207
H        8.54903200       9.39342975       8.89548406      -0.01242073      -0.00276259      -0.00809015
H        2.15046284       9.41044229       9.91472655      -0.01011908       0.01140749       0.01721230
H        2.04931573      10.53236684       8.52719147      -0.01313630       0.00174955       0.01009572
H        2.61098043      11.12602669      10.10940350      -0.00385858       0.01172397       0.00295153
O        9.40424449       7.70289338       6.55998772       0.00049300       0.00145062      -0.00151518
O        9.06806610       9.79894074       6.14132304      -0.00252485       0.00060929      -0.00221664
O       11.19822171       9.07399363       6.38203846      -0.00156653       0.00363827      -0.00349406
C       10.30455350       6.61849837       6.87949460       0.00172889       0.00238752      -0.00209963
C        9.47295671       5.46978614       7.38678894       0.00279367       0.00185749      -0.00224526
C       10.00846846       8.87917398       6.35636809      -0.00161064       0.00167918      -0.00247252
C        9.58936103      11.12731006       5.93011598      -0.00444412       0.00097679      -0.00102645
H       10.86260776       6.35651917       5.97732872       0.00162947       0.00321510      -0.00217527
H       11.02082635       6.96813506       7.62333525       0.00143644       0.00300996      -0.00233942
H       10.11121962       4.59636611       7.53118551       0.00342533       0.00268534      -0.00105027
H        9.00386623       5.70960354       8.34119466       0.00170533       0.00212011      -0.00303590
H        8.69314121       5.20957036       6.67110934       0.00389156       0.00066647      -0.00284962
H       10.23431356      11.41038240       6.76125674      -0.00911795       0.00310687       0.00177872
H        8.71648118      11.77179919       5.89346418      -0.00549287      -0.00083775      -0.00567143
H       10.15027944      11.17082336       4.99754382      -0.00056008       0.00139150       0.00155428
O        3.44535167       9.62128541       2.78645796      -0.00361310      -0.00275049      -0.00659126
O        5.23757203      10.52402745       3.61402924      -0.00540701      -0.00249743      -0.00617377
O        4.97643022       8.27901190       3.76655138      -0.00553572      -0.00304484      -0.00476170
C        2.68913296       8.41785195       2.51827010      -0.00439197      -0.00146252      -0.00916231
C        1.43392153       8.81095478       1.78716390       0.00094432       0.00169170      -0.01640506
C        4.60552367       9.36724948       3.42243137      -0.00580961      -0.00147367      -0.00633866
C        6.53694188      10.39873666       4.22328793      -0.00615898      -0.00094442      -0.00462784
H        3.31579041       7.75428351       1.92345570      -0.00321195      -0.00333381      -0.00529528
H        2.47623516       7.92797373       3.46993746      -0.01055446      -0.00022307      -0.00972643
H        0.82665996       7.92203385       1.61787444       0.00055369       0.00318861      -0.02272231
H        0.82901166       9.51265207       2.36499123      -0.00154534       0.00106184      -0.01852688
H        1.67451262       9.23497484       0.81025531       0.00902884       0.00404981      -0.01320374
H        6.42527508      10.26830688       5.29622039      -0.00709569       0.00849716      -0.00350609
H        7.05454397      11.32658681       3.99238078      -0.00333516      -0.00460497      -0.01220640
H        7.06673805       9.54771550       3.80115978      -0.00891756      -0.00600946       0.00284547
O        8.69624524       9.08573466       0.89182171       0.00488804       0.01307020      -0.00449270
O        7.52759649      10.90293267       0.79719176       0.01794635       0.01224525       0.00106737
O        6.46311370       8.95181380       1.24243513       0.00545907       0.01453739       0.00342572
C        8.76856038       7.64041594       1.02480089       0.00369990       0.00984402       0.00268149
C       10.22583067       7.26568263       0.98852556       0.00330162       0.00818092       0.00240806
C        7.46417556       9.58147131       1.00841550       0.00904852       0.01153761       0.00100963
C        6.24205636      11.54888166       0.75461338       0.01762031       0.01258005       0.01049502
H        8.27935162       7.34247926       1.94939242       0.00383288       0.01560953       0.00671643
H        8.21897587       7.18462086       0.20105938       0.00029761       0.00381434       0.00575656
H       10.31910187       6.17904922       1.00713157       0.00189773       0.00820246       0.00707200
H       10.70069724       7.62755640       0.07534233       0.00098287       0.00431133       0.00071362
H       10.75737733       7.68030911       1.84520909       0.00344197       0.01229089      -0.00076206
H        5.61719093      11.07101137       0.00155156       0.01659596      -0.00782077      -0.00125992
H        6.44279942      12.58530843       0.50239890       0.01238336       0.01155874      -0.02383963
H        5.75830904      11.47427165       1.72338375       0.01434369       0.02827223      -0.00239021
O        5.16891496       4.31793916       3.37994787      -0.00000907      -0.00585371      -0.00226922
O        7.25861948       4.14136943       3.93631660      -0.00123788      -0.01079465      -0.00293235
O        6.64604719       5.82776331       2.56295997       0.00453863      -0.01269251      -0.00717986
C        4.07546461       5.15877316       2.93373618       0.00119784      -0.00516582      -0.00369475
C        2.82912463       4.31788291       2.86165562       0.00313628      -0.00668079      -0.01206539
C        6.37106968       4.86064702       3.22630533       0.00139433      -0.00965059      -0.00461507
C        8.59544439       4.64942588       3.83582160       0.00086135      -0.01738836      -0.00556619
H        3.98071095       5.97370296       3.64992623      -0.00235339      -0.00800341      -0.00122136
H        4.34018242       5.57658083       1.96595809       0.00461370      -0.00166465      -0.00096560
H        1.99674223       4.94250952       2.53343227       0.00246076      -0.00665864      -0.00963188
H        2.94473743       3.49950521       2.15004912       0.00722466      -0.00094578      -0.01819187
H        2.56947806       3.90637114       3.83501940       0.00199696      -0.01496358      -0.01602182
H        8.92676532       4.64950617       2.79827447       0.00130571      -0.02600997      -0.00533733
H        9.20899539       3.98231754       4.43403555      -0.00257190      -0.01605049      -0.00085932
H        8.64183443       5.66829263       4.22307303       0.00521070      -0.01506749      -0.01250121
O        7.29709356       2.94597702      11.84756652       0.01479496       0.00642681       0.01252325
O        5.71818938       4.42297970      11.99619689       0.01065043       0.00262642       0.00472464
O        7.78556479       5.11109585      11.38347197       0.00833476       0.00522852       0.00021696
C        8.67251145       2.59417163      11.53149923       0.01227809       0.00611663       0.00412390
C        8.75131527       1.10344918      11.34387455       0.01140724       0.00515634       0.01228309
C        7.01207402       4.24465078      11.72165262       0.01068056       0.00425065       0.00566223
C        5.26823805       5.78838667      11.86190704       0.00831804       0.00135326       0.00136085
H        8.96261155       3.14582300      10.63682086       0.00438312       0.00030461      -0.00197130
H        9.30530656       2.91839347      12.36020352       0.02033025       0.01011408      -0.00383702
H        9.75205945       0.84448357      10.99804878       0.00930402       0.00355972       0.00772253
H        8.61045265       0.56809315      12.27798108       0.01768218       0.01111121       0.01669270
H        8.02446240       0.75958525      10.60672034       0.00649129       0.00033166       0.01950973
H        5.74611509       6.41698003      12.61178879       0.00740778       0.00342385      -0.00010398
H        4.19332693       5.74665292      12.00616220       0.00857219       0.00040489       0.00155962
H        5.47444256       6.15261445      10.85731288       0.00809504      -0.00057341       0.00071087
