149
Lattice="11.410408942220656 0.0 0.0 0.0 11.410408942220656 0.0 0.0 0.0 11.410408942220656" Properties=species:S:1:pos:R:3:forces:R:3 energy=-415712.1875 stress="0.00018454407108947635 -0.0007807204965502024 0.001076579443179071 -0.0007807204965502024 -0.0001859357871580869 0.00017882514657685533 0.001076579443179071 0.00017882514657685533 0.0007968487916514277" pbc="T T T"
Gd      10.85492227      12.28523909      -0.42443702       0.00218904       0.00264195      -0.00090905
S        4.03473766      10.33792517       8.33622167       0.00206929       0.00088078       0.00025803
O        3.04057172       9.26716165       8.45499851      -0.00252980      -0.00187069      -0.00125565
O        4.72043804      10.65193132       9.59158962       0.00057197      -0.00531611      -0.00191844
O        3.48506599      11.53938394       7.68455871       0.00086290      -0.00042450       0.00186461
C        5.28834980       9.71036583       7.24714532      -0.00156283      -0.00123534      -0.00281352
H        4.85991260       9.59685337       6.25337000      -0.00308277      -0.00087325      -0.00203343
H        6.11408994      10.42026326       7.21569646      -0.00204980      -0.00010070      -0.00408624
H        5.63100833       8.75269817       7.63345232      -0.00005099      -0.00071903      -0.00350265
S        7.60356755      10.62423265       2.73601174      -0.02549291      -0.03563239      -0.01260096
O        7.45932180      11.92752484       2.06109517       0.00039728       0.00246167      -0.00740606
O        9.01721533      10.19352498       2.74754309       0.01266742       0.00324106       0.00292413
O        6.70201789       9.61125817       2.22091946       0.03048480       0.01319796       0.00632590
C        7.19105918      10.93369913       4.43428356      -0.00264296      -0.00296138      -0.00375509
H        6.13428513      11.18679256       4.49345738      -0.00656110      -0.01208572      -0.00874463
H        7.38963042      10.03468325       5.01239722       0.00039783      -0.00284562      -0.00325545
H        7.81490784      11.74904671       4.79826270      -0.01144154      -0.00015137      -0.00258488
S        1.63302528       9.74464342       1.17491471      -0.00018805       0.00544602       0.03055944
O        1.40518600       8.67096977       0.22265587      -0.00269625      -0.01109546      -0.00064993
O        1.35033293       9.40370759       2.56399177       0.00483723       0.01130939      -0.01286274
O        0.86449994      10.98193004       0.76229018       0.00086637       0.00020888      -0.00429206
C        3.32840427      10.22217092       1.09207096       0.00094497      -0.00130701      -0.00309124
H        3.60858324      10.41058222       0.05585254       0.00069337      -0.00533043      -0.00193548
H        3.47037266      11.11003663       1.70586997       0.00185618       0.00208579      -0.00497092
H        3.92684878       9.41380694       1.51004498       0.00084282       0.00053254       0.00176981
N       10.02028723       1.77629814       1.71424691      -0.00242704       0.00243151      -0.00207239
H       10.61005630       1.55504970       2.51510466      -0.00115069       0.00484851      -0.00174040
H        9.88533815       2.79882193       1.71693352      -0.00475606       0.00245661      -0.00200686
H        9.09985246       1.36416611       1.92062109      -0.00001872       0.00082195      -0.00202493
N        3.36138634       6.70304585       2.99837272      -0.00427197      -0.00325827      -0.00307990
H        2.69688502       5.96783350       3.23947228      -0.00798136       0.00287715       0.00288102
H        3.64084542       6.56691551       2.03086655      -0.01178322      -0.00715741      -0.00422066
H        2.83009748       7.56882674       3.00883247       0.00241731       0.00176114      -0.00118003
N        6.51253395       1.67420505       8.78373807       0.00006813      -0.00786520       0.02146484
H        5.85722310       0.96290805       9.11097415       0.00655319      -0.01661966       0.01481127
H        6.53680121       1.60107508       7.77167742      -0.01326177       0.01337255       0.02060991
H        6.09264322       2.57642461       8.97978120      -0.00032331      -0.01431055       0.04603352
N        4.20460188       7.24152751      -0.35374219      -0.00239595      -0.00335404      -0.00533929
H        3.30442330       7.71264608      -0.41601869      -0.00118439      -0.00342999       0.00183528
H        4.44085548       6.96587515      -1.30085466      -0.00363059       0.00822482      -0.00944083
H        4.87344303       7.96525934      -0.10960144      -0.00114292      -0.00690824       0.00197978
N        0.83069748       2.97191975      11.35120710      -0.00182095       0.00470072      -0.00223111
H        1.66848867       3.11923378      10.79390690      -0.00004330       0.00437045       0.00010818
H        1.13395142       2.93835642      12.33293622      -0.00433291       0.00668067      -0.00129026
H        0.28212068       3.82737236      11.23339174      -0.00214034       0.00391033      -0.00630711
N        5.98844113       5.98774032       7.27154765      -0.01090552       0.00011935       0.00160808
H        5.79614384       5.04458476       6.94735339       0.00464881      -0.00423422       0.00645268
H        6.11899635       6.54297607       6.41907594      -0.00873990      -0.00384620      -0.00082215
H        5.10206585       6.29612954       7.66188518      -0.01877969      -0.00895747      -0.00991721
N        0.32862935       3.47222926       8.01151219       0.00351793      -0.00241289      -0.00251725
H        0.02228963       3.97015825       8.84768953       0.01313647      -0.00131387      -0.00024773
H        1.25136472       3.83307893       7.79772218       0.00110482      -0.00293049      -0.01374239
H        0.44604957       2.48923626       8.22526893       0.00659542      -0.00197411      -0.00189766
N        1.59673410       8.05335797       5.70101178      -0.00385842       0.00207524       0.00103816
H        1.95739227       8.61791920       6.46728342      -0.00207158       0.00219239      -0.00051638
H        1.42299248       8.68066186       4.92207372       0.00457744      -0.00008247      -0.00306594
H        2.36859935       7.46573783       5.39931489      -0.00775656      -0.00589937       0.00664871
N        7.38627721       5.78925856      10.28822146       0.00865290      -0.00939765      -0.00687281
H        7.05886730       5.89711249       9.32663631       0.00253915      -0.00332065      -0.00406241
H        7.22336270       6.68267913      10.74287503       0.01659331      -0.01013359      -0.00247315
H        6.72887715       5.15061089      10.74244378       0.00725482      -0.00661464      -0.00523727
N        5.04711699       4.34236086       0.37230995       0.00681421       0.00345436       0.00375694
H        4.44196865       3.68269239      -0.10126277       0.00281362       0.00116677       0.01238257
H        4.62278909       5.26783514       0.27691479       0.00870997       0.00366969      -0.00411239
H        5.04071178       4.09574858       1.35565992       0.00789288       0.01311707       0.00622056
N        8.96457262      10.72193369      -0.37142859       0.00339365       0.00089991      -0.00333719
H        8.87132491       9.99940136      -1.10769063       0.00268333       0.00080767      -0.00339493
H        8.04325205      11.15196878      -0.28159666       0.00334525       0.00083878      -0.00282935
H        9.07274548      10.20704521       0.50628813       0.00335149      -0.00011231      -0.00403187
N       -0.19735338      11.38651744       4.43588499       0.00068998       0.00611126       0.00594805
H       -1.07410985      11.06666839       4.02512039       0.00221594       0.00452003       0.00679537
H       -0.22145291      11.14402662       5.41929145       0.00284259       0.00529372       0.00554577
H        0.50771859      10.79800159       3.99869368       0.00218026       0.00655900       0.00435958
N        4.74396945       1.69560747       2.50149662       0.00297983       0.00196851      -0.00512895
H        4.43713473       1.95663205       1.57174945       0.00845662       0.00438580      -0.00652832
H        5.64543167       1.24035374       2.36396507      -0.00049123      -0.00275519      -0.00169302
H        4.92816135       2.56518976       3.01060018       0.00581151       0.00140344      -0.00508323
N        9.34557976       2.46607091       5.15467836      -0.00512853      -0.00127813      -0.00059947
H        9.46211199       3.44543955       5.38896970       0.00690662      -0.00368617       0.00240196
H        8.84619878       2.42991191       4.27305850      -0.01239911       0.00806262       0.00360190
H       10.26782852       2.08101294       4.96920107      -0.01063878      -0.01000655      -0.00920142
N        0.69329483      -0.08193130       9.04543228      -0.00236127       0.00014800      -0.00308704
H       -0.02721742      -0.11360575       8.31189478      -0.00392261       0.00129643      -0.00195855
H        0.95321965      -1.05090317       9.24632335      -0.00413096       0.00017676      -0.00306914
H        1.54723573       0.27278261       8.60241451      -0.00198361      -0.00154419      -0.00436074
N       -0.64393124       6.26663924       3.97013557      -0.00704308       0.00084642       0.00514097
H       -0.05789022       6.84779695       4.56616710      -0.00293735      -0.00062302       0.00295250
H        0.01221434       5.67600253       3.46999896      -0.01072108       0.00079303       0.00047216
H       -1.04612934       6.87799679       3.26599632      -0.01091351       0.00273553       0.00927726
N        1.78035200       4.40212384       4.46217086      -0.00274961       0.00208151       0.00320417
H        1.07813619       4.47325850       5.18903947      -0.00556617      -0.00407685       0.00077267
H        2.65108641       4.12631360       4.89731895      -0.00224902       0.00761146       0.00554233
H        1.51106652       3.64786681       3.83587083       0.00420698       0.00138090       0.00101124
N        9.91450326       7.71930027       1.07340342      -0.00632865       0.00091979       0.00073700
H        9.59823051       8.43924305       1.72100763      -0.01209436      -0.00074163      -0.00021815
H        9.35761476       7.82423129       0.23281124      -0.00014562       0.00336842      -0.00363163
H       10.87129823       7.95631222       0.82344911      -0.00612250       0.00078731       0.00948261
N        2.28479795       6.19012213       8.30673034       0.00237304       0.00328268      -0.00249402
H        1.62678816       6.31221384       7.54051822      -0.00674471       0.00134071       0.00505141
H        2.65575124       7.12674662       8.46534783      -0.00255076       0.00482804      -0.00242367
H        1.71912230       5.98369341       9.12346102       0.01342738      -0.00532407       0.00242555
N        3.68018248      10.73071666       4.52780492      -0.00281893       0.01014064      -0.00032764
H        3.91617698      11.52811680       3.94061046      -0.00336044       0.01028908       0.00023566
H        3.29860448      11.08892715       5.39770760       0.00101596       0.00779631       0.00116768
H        2.94584111      10.22429877       4.04744019      -0.00617190       0.01228458      -0.00037813
N        9.56984524       5.62727306       6.88823645       0.00128004       0.00143497       0.01001804
H        9.74032605       5.80384141       5.89835053       0.00011156       0.00122105       0.00966647
H        8.56880577       5.55955927       7.04054951       0.00135848       0.00201512       0.01038249
H        9.99486132       4.73081890       7.10610899      -0.00029179       0.00036816       0.00862484
N        5.20445084       4.23069339       4.23267832       0.00426862       0.00425580      -0.00841677
H        4.64857256       5.06513806       4.05844342      -0.00204876       0.00008154      -0.00978537
H        6.14635212       4.56325909       4.40518972       0.00055848       0.01313325      -0.00570652
H        4.87438270       3.82862491       5.11069593       0.00588787       0.00253425      -0.00871553
N        1.68380607       1.80432683       2.75431636       0.00033786       0.00337566      -0.00411510
H        1.22205748       1.50712803       3.61329718       0.00434802       0.00345894      -0.00192980
H        2.68655087       1.78576812       2.94261366       0.00126257       0.00316028      -0.00890692
H        1.52693194       1.02017672       2.12550189      -0.00228290       0.00279574      -0.00321957
N        9.44043241       0.24015104       7.51573078      -0.00245643      -0.00208061      -0.00113113
H        9.29450411       0.97200117       6.81682594      -0.00326224      -0.00149705      -0.00035837
H        8.64565667       0.28925658       8.14495679      -0.00216082      -0.00268601      -0.00050886
H        9.36013476      -0.65115258       7.02417483      -0.00284406      -0.00172999      -0.00222417
N        6.09450753       7.57909442       4.48712511      -0.00373838      -0.00409417      -0.00315829
H        5.82751939       8.55951421       4.46915288      -0.00377950      -0.00360610       0.00453833
H        5.26111787       7.12230737       4.11067775      -0.00392777      -0.00106733      -0.00532098
H        6.77844999       7.51752055       3.73789372      -0.00533611       0.00293875      -0.00594468
N        3.70464068       3.11520819       6.95693100       0.01061484      -0.00067464      -0.00175709
H        3.94974818       2.30609016       7.52127484       0.00994687       0.00313186       0.00394311
H        2.82703903       2.86091216       6.51738824       0.01355521      -0.00637919      -0.00429508
H        3.51188093       3.90699195       7.56427586       0.00541148       0.00141865      -0.00650036
N        8.45237263       8.61398766       8.93401514       0.00456297      -0.00532076      -0.00074744
H        8.77317851       8.84477554       7.99528283      -0.00014095      -0.00164017      -0.00152604
H        7.44061655       8.68152259       8.91083022       0.00391436      -0.01260640       0.00222986
H        8.66580296       7.62913857       9.05246848       0.01146317      -0.00418867      -0.00397560
N        9.46678091       8.75546384       5.89574305      -0.00121661       0.00131810      -0.00432581
H        8.71003605       8.08880964       5.76987094       0.00464172      -0.00571363      -0.00019538
H       10.27855547       8.19880262       6.15019090       0.00523434       0.00934620      -0.00686272
H        9.65471057       9.13568398       4.97235047      -0.00824524       0.00147083      -0.00543297
N        9.14353072       4.70949429       1.70236742      -0.00934817       0.00217327       0.00294486
H        9.43664715       5.64265901       1.39939659      -0.00916848       0.00255471       0.00369711
H        9.11255452       4.77124358       2.71571980      -0.01154977       0.00177331       0.00300636
H        8.18634242       4.59604726       1.38549003      -0.00842924       0.00148201       0.00099245
N        9.24841519       2.50388746       9.88420438       0.00239515      -0.00028467      -0.00339720
H        9.56972355       2.81096857       8.96666341       0.00590196       0.00761667       0.00054336
H        9.11217846       3.36851487      10.40956112      -0.00819366      -0.00453213       0.00040302
H        8.30271019       2.13421075       9.69350586       0.00607303      -0.00651441      -0.00998346
N       10.54186869       5.65646164       9.90548539       0.01586993      -0.00186568       0.00805819
H        9.57232787       5.64579125      10.23557408       0.01467378      -0.00635542       0.00492575
H       10.47699013       5.96428892       8.93410994       0.01659603       0.00043882       0.00870706
H       11.01174691       6.39345670      10.41975636       0.01135134      -0.00175844       0.01096366
