143
Lattice="11.695534377274967 0.0 0.0 0.0 11.695534377274967 0.0 0.0 0.0 11.695534377274967" Properties=species:S:1:pos:R:3:forces:R:3 energy=-441195.28125 stress="8.041527325985953e-05 0.0013829272356815636 -0.0006106599175836891 0.0013829272356815636 -0.001350489677861333 -2.381166268605739e-05 -0.0006106599175836891 -2.381166268605739e-05 6.33540767012164e-05" pbc="T T T"
Gd      11.88855445      12.42458309       1.03865152      -0.01963001      -0.00490810      -0.00564489
O        8.71434703       7.21566147       8.76457177       0.02705733       0.03282332       0.01876462
O        9.70023747       9.21103894       8.39821735       0.01353049       0.03364980      -0.00914818
C        7.34251390       9.09154936       8.35068779       0.01411903       0.01949865      -0.00104516
C        7.23729844      10.47970343       8.31506305       0.00499716       0.01838663      -0.01724074
C        6.19320881       8.31855055       8.19952004       0.01830979       0.01049891       0.01383953
C        6.00700366      11.09025818       8.12322304      -0.00034906       0.00838947      -0.01659313
C        4.95909615       8.92535347       8.00825046       0.01341790       0.00019519       0.01254352
C        4.86390467      10.31226270       7.97806861       0.00407691      -0.00077572      -0.00203676
C        8.70537764       8.43997204       8.52307617       0.01792002       0.02966720       0.00285695
H        8.14194781      11.06260063       8.43329103       0.00177310       0.02576379      -0.03015159
H        6.28967585       7.23978640       8.22182539       0.02559605       0.01150008       0.02644484
H        5.95714470      12.16911291       8.03327180      -0.00810224       0.00712553      -0.02835957
H        4.07781508       8.31585809       7.86185106       0.01692180      -0.00722104       0.02246403
H        3.90103979      10.77833455       7.80329306       0.00010897      -0.00904247      -0.00285111
O        5.58057182       6.17348535       3.75062213       0.00497448       0.00270104       0.00021940
O        7.48523266       7.15653997       3.05012593       0.00290680       0.00493029      -0.00245345
C        5.81783381       8.51234573       4.02661936      -0.00087011       0.00316477      -0.00457436
C        6.68658300       9.58558997       4.21149528      -0.00427805       0.00604236      -0.00757517
C        4.45758107       8.71376676       4.24504058      -0.00124083      -0.00091925      -0.00285657
C        6.21960156      10.82546385       4.62859505      -0.00749037       0.00509611      -0.00855410
C        3.97677560       9.95447091       4.63729789      -0.00468826      -0.00226637      -0.00310296
C        4.85835228      11.00905236       4.84018474      -0.00772250       0.00076203      -0.00590385
C        6.33954041       7.15544056       3.56728589       0.00127536       0.00335586      -0.00159371
H        7.73971005       9.42524264       4.02349552      -0.00380561       0.00919968      -0.00872544
H        3.78083845       7.89368201       4.05364300       0.00153699      -0.00348260      -0.00122651
H        6.90849094      11.64641752       4.79394139      -0.00984477       0.00728719      -0.01040420
H        2.91262508      10.09717476       4.79203858      -0.00479728      -0.00585801      -0.00063484
H        4.48455558      11.96425161       5.18402805      -0.01035332      -0.00021172      -0.00600986
O        1.76417959      11.10793393       1.38533126      -0.03084511      -0.02191949      -0.01803957
O        3.97622245      11.42954027       1.48850371      -0.03647113       0.00647449      -0.00498652
C        3.17101795       9.20093706       1.23064173      -0.00901158      -0.00273049      -0.00844136
C        4.41019678       8.65431948       0.88833480      -0.00227645       0.01115510      -0.00539867
C        2.08350265       8.35980246       1.46398311      -0.00102973      -0.01341225      -0.01123042
C        4.55528075       7.28073326       0.77571103       0.01183116       0.01290397      -0.00473777
C        2.22926366       6.98641473       1.35167965       0.01298243      -0.01160672      -0.01039625
C        3.46368914       6.44981306       1.00932549       0.02008559       0.00171235      -0.00732754
C        3.02837523      10.66949771       1.38234213      -0.02576745      -0.00453675      -0.01002286
H        5.24668816       9.32060516       0.73058696      -0.00967981       0.02072191      -0.00390346
H        1.13380950       8.78928872       1.75318667      -0.00648914      -0.02297518      -0.01453758
H        5.51582881       6.84258690       0.53799854       0.01711348       0.02271674      -0.00217496
H        1.38062519       6.33592536       1.51167871       0.01866566      -0.02006435      -0.01236112
H        3.57642017       5.38005056       0.92338311       0.03144879       0.00293630      -0.00659461
O        2.38007908       7.51462091       9.53692385       0.01113468      -0.00215453      -0.00030035
O        0.24392008       7.39844960      10.12497674       0.00818110      -0.01576871      -0.01412273
O        1.39474327       5.50547358       9.74655949       0.02420932      -0.00460076       0.00024676
C        1.91110102       8.87205362       9.44774389      -0.00007582      -0.00621188      -0.01049203
C        0.53936119       8.80814200      10.10410971       0.00012586      -0.01352099      -0.01121017
C        1.34149855       6.70514293       9.80321498       0.01549576      -0.01447958      -0.00419525
H        1.85785029       9.14411065       8.39317916      -0.00177680      -0.01475493      -0.01266825
H        2.61648000       9.51195982       9.97434987      -0.00605682       0.00298199      -0.01459906
H        0.59096932       9.16294588      11.13556908      -0.00172771      -0.01574618      -0.01062730
H       -0.26550053       9.28735604       9.54482456      -0.00209981      -0.01677066      -0.01104730
O        1.59757138       0.62131643       8.48537031      -0.02143855      -0.01152408      -0.00703944
O        0.93918169       2.54373852       9.35688618      -0.01261380      -0.01186651       0.00092518
O        0.37280034       0.63156955      10.36226311      -0.02038637      -0.01331015      -0.00613105
C        2.24534545       1.62627016       7.65105465      -0.01065606      -0.01048236       0.00277698
C        1.61996775       2.93342172       8.13416459      -0.01159331      -0.01098174       0.00179347
C        0.93458786       1.22816751       9.45418118      -0.01878857      -0.01221514      -0.00413865
H        2.01834968       1.39131557       6.61628917      -0.00037773      -0.00543747      -0.00059578
H        3.31948015       1.57079798       7.81594365      -0.01255617      -0.01379357       0.01390558
H        2.32055129       3.72010724       8.39533421      -0.01196444      -0.01075569       0.00221610
H        0.86579012       3.32224120       7.45357059      -0.01110739      -0.01129622       0.00087672
O       11.61650077      11.99747664       5.56694244       0.00852704      -0.01285735      -0.01301298
O       10.09776509      10.86036648       4.44329152      -0.00997943       0.00612286      -0.00804985
O       11.41039184      12.29918394       3.35089696      -0.00404001      -0.00060438      -0.00786883
C       10.80903120      11.33213075       6.60378418       0.01532732      -0.01495747      -0.00960624
C       10.03901521      10.30458778       5.80832681      -0.00974226       0.00306684      -0.00958785
C       11.05609769      11.76086575       4.39865032      -0.00145314      -0.00171205      -0.01040582
H       10.17818141      12.09896047       7.04602515       0.03119120      -0.01271066       0.00889449
H       11.48458038      10.89281203       7.32554808       0.02065870      -0.03285305      -0.02586046
H       10.53569536       9.33806478       5.80293030      -0.02695158      -0.00566322      -0.01615166
H        8.99695886      10.21072858       6.08571357      -0.00939897       0.02105853      -0.00227928
O        9.69040556       2.85820907       7.80951959      -0.00018971      -0.00218323       0.01503497
O        9.89408159       4.35020286       6.18198746      -0.00542793      -0.00539386       0.01142515
O        9.42846395       2.21266333       5.66462189       0.00801674      -0.00876576       0.01778728
C        9.77764799       4.14902474       8.48477860      -0.00405608      -0.00094463       0.01256126
C       10.27548403       5.06324416       7.38999487      -0.00938174      -0.00080955       0.00991757
C        9.64171585       3.07022736       6.47706003       0.00062245      -0.00782222       0.01362062
H       10.46195837       4.06007424       9.32211879      -0.00203478       0.00337980       0.01101261
H        8.78720660       4.42994976       8.83522000      -0.00451106      -0.00530295       0.01465277
H        9.79320625       6.03783788       7.42745214      -0.01289731      -0.00260001       0.00697100
H       11.36183411       5.17772619       7.38886869      -0.00989330       0.00442361       0.00995931
O        2.59539029       6.61697277       6.73185515      -0.00350446       0.02198538      -0.01204497
O        1.69748414       6.66665247       4.70320688      -0.00337800       0.00260317      -0.01251878
O        0.96674717       8.09927657       6.27132184      -0.00080019       0.02177387      -0.02720118
C        3.42222010       5.72480013       5.94414838      -0.00747675       0.00815657      -0.00056040
C        2.60695032       5.54128193       4.67325160      -0.00344843       0.00232372      -0.00277907
C        1.69793731       7.20666502       5.93505510      -0.00052857       0.01383895      -0.01869804
H        3.57652979       4.80937110       6.50843366      -0.01752711       0.01195896       0.00862359
H        4.37694259       6.20583434       5.73378511      -0.00279444      -0.00116593      -0.00078233
H        3.22902854       5.62321652       3.78500276      -0.00009665      -0.00225972      -0.00096428
H        2.00803230       4.63109390       4.66155810      -0.00348008       0.00241187      -0.00087520
O       10.52034199       7.29359376       2.19576056       0.00767393      -0.00176874       0.01001094
O       10.57847050       5.48011415       3.47315102      -0.00214324      -0.00385807       0.00902402
O       10.88254163       5.28899204       1.25880569       0.00755115       0.00758433       0.02326721
C       10.38122659       7.78881801       3.53984269       0.00007972      -0.00281739       0.00976386
C       10.16519611       6.53541300       4.36679882      -0.00308923      -0.00428492       0.00824380
C       10.66494408       5.95892548       2.22841949       0.01042426      -0.01654628      -0.00989676
H        9.50692815       8.43042656       3.56674984      -0.00107619      -0.00626375       0.00428246
H       11.29593819       8.32182054       3.80258117      -0.00216821      -0.00319631       0.01341516
H       10.79599269       6.50915067       5.24686590      -0.00500363      -0.00636928       0.00798151
H        9.11701796       6.38067159       4.60527769      -0.00315380      -0.00383003       0.00420440
O        8.19210690       3.65549290       1.96768181       0.00426488      -0.00286733      -0.00686412
O        8.88516707       3.56278179      -0.14173588       0.01113462       0.01585890      -0.00555676
O        6.99811383       4.66863191       0.35499642      -0.01493937       0.02767009      -0.00934806
C        9.31850898       2.77792645       2.02496679       0.00544451      -0.00093289      -0.01154900
C        9.83090994       2.76280460       0.56205719       0.00637530       0.00746910      -0.01013799
C        7.94529159       4.03174212       0.70554825       0.03803509      -0.01187247       0.00702599
H        8.96307704       1.80491653       2.37345372       0.00764498      -0.00463051      -0.01635185
H       10.03366290       3.19133098       2.73337587       0.00604844      -0.00466859      -0.00814930
H       10.81084988       3.24221144       0.45401816       0.01021069       0.00226697      -0.00639741
H        9.76921787       1.77465891       0.09115392       0.00301193       0.00991496      -0.01773884
O        3.20670948       1.28579915      10.96727900      -0.01098302      -0.00310367      -0.01681751
O        3.76514558       3.30166029      11.65880868      -0.01257604      -0.02006620       0.03610766
O        1.84558726       2.38407178      12.37551650      -0.01624686      -0.02982484       0.00049849
C        4.61415612       1.44214735      10.61014677      -0.00661212       0.00437301      -0.00054640
C        4.75352409       2.94592919      10.63289823      -0.00947273       0.00450709       0.03175780
C        2.87804919       2.33056860      11.71475086      -0.01500295      -0.02052699       0.00665621
H        4.76281750       0.97105011       9.64744598       0.00443467       0.02443748      -0.00865048
H        5.19822256       0.93421492      11.37559051      -0.01444106      -0.00877704      -0.00325668
H        5.71318358       3.33563989      10.95489521      -0.01242301       0.00015765       0.04319471
H        4.44174304       3.42071190       9.70075693      -0.01083407       0.02340305       0.04179382
O        9.55114441      11.02208855       0.41825731       0.00878030      -0.00205642       0.01495535
O        7.49335134      10.18601876       0.27120102       0.00988096      -0.00349540       0.00202560
O        7.80801144      12.37541919      -0.09348679       0.01624827      -0.01697129       0.01992291
C        9.67042639       9.63384316       0.86208576       0.00889620      -0.00496477       0.00871211
C        8.32719394       9.01607951       0.50742637       0.00975949      -0.00301015      -0.00138187
C        8.21563575      11.28062421       0.16421827       0.00284639       0.02554813       0.00539657
H        9.86032867       9.66790999       1.93187653       0.00373639      -0.00885880       0.00883210
H       10.49676299       9.17137010       0.33588535       0.01093206      -0.00069575       0.01039001
H        8.35609529       8.43374961      -0.41296914       0.01371725       0.00491926      -0.00498539
H        7.89318703       8.43914372       1.32708255       0.00628684      -0.00435022      -0.00633395
O        3.83696853       2.76705979       4.75497912      -0.00581840       0.00462530       0.00743410
O        6.03100102       2.69121184       4.41373056      -0.00372324       0.00509256       0.02170962
O        5.22591890       2.70825219       6.51908366      -0.01675801      -0.00549112       0.01726127
C        3.98398815       2.61497731       3.32345145       0.00404143       0.00819242       0.00762138
C        5.45692901       2.92091312       3.09843354       0.00516236       0.01114473       0.01846865
C        5.06707423       2.72593965       5.32726987      -0.00970683       0.00070696       0.01408571
H        3.31782479       3.32325729       2.83696761       0.00283574       0.00504345       0.00441787
H        3.71453827       1.59280934       3.05145194       0.00861906       0.00793546       0.00400720
H        5.92847042       2.22939530       2.40424968       0.01051819       0.01413992       0.01948453
H        5.65818536       3.95939306       2.83341697       0.00838891       0.01257330       0.02492826
