136
Lattice="12.867302047813018 0.0 0.0 0.0 12.867302047813018 0.0 0.0 0.0 12.867302047813018" Properties=species:S:1:pos:R:3:forces:R:3 energy=-394353.71875 stress="0.0008902776171453297 0.00013216720981290564 4.775663728651125e-05 0.00013216720981290564 0.0006480096490122378 -0.00034588866401463747 4.775663728651125e-05 -0.00034588866401463747 0.0008707601227797568" pbc="T T T"
Gd      11.00418770      12.44166389      -0.44167906       0.00429498      -0.00311746       0.01857852
O       11.82562888      11.52207241       6.06230041       0.01663446      -0.00747395      -0.02450383
O       12.30388122      10.44026725       4.16471886       0.00766969       0.06315470      -0.06128776
O       10.76653498      12.10498295       4.16192673       0.03389525       0.08357096      -0.00521028
C       11.61885946      11.32812266       4.67622734       0.01931965       0.05256470      -0.02987951
H       11.21105616      12.22761390       6.29127847       0.02805833      -0.00888452       0.00695039
O        0.13867158      12.71189858      -0.24193840       0.00517279       0.00544468      -0.01443367
O        3.93969670      12.97072597      -0.33959187      -0.00255096      -0.04171216      -0.01309401
O        4.89125351      10.95884770       0.32450903       0.01196465      -0.01276875      -0.00210723
C        4.44324387      11.97485074      -0.01789591      -0.02808554       0.04049011      -0.02882575
H        1.05043490      12.90818120      -0.01762222       0.00946259       0.01131836      -0.03597299
O        7.54278619      10.42191029      11.08369186      -0.00763267       0.00251919      -0.00272721
O        9.07776241      11.90336349      11.60696993       0.01032859      -0.01931943       0.00832901
O        6.92079091      12.52023168      11.62698382       0.01810122       0.00713605       0.00696708
C        7.81426066      11.70466651      11.46066860       0.00898239      -0.00240535       0.00478365
H        6.58161114      10.35222765      11.03551573      -0.00820857       0.01649778      -0.00589601
C        8.73391430       8.84185934       0.83760013       0.00457236       0.00145557       0.00326002
C        9.74778370       8.19751705       0.12910832      -0.00017614       0.00799701      -0.00875880
C        9.05104159      10.01450624       1.52855584       0.01100291      -0.00898124       0.01841629
C        7.35802447       8.25138115       0.91897134       0.00093004       0.00965229      -0.00520118
C       11.04577365       8.69501817       0.12116364       0.00171888       0.00436696      -0.00566772
C       10.35277274      10.51116259       1.55852701       0.01246285      -0.01338696       0.02104837
C       11.35976240       9.84390470       0.84645326       0.00824185      -0.00701267       0.00905536
H        9.52484312       7.27036880      -0.38713531      -0.00550629       0.01804680      -0.02366103
H        8.27697283      10.52347099       2.09507563       0.01447603      -0.01354479       0.02699430
H        6.58557729       9.00187348       0.75240994       0.00759652       0.01609403      -0.00658256
H        7.22562196       7.44841335       0.19388516      -0.00078805       0.01430872      -0.00990494
H        7.18263776       7.83000288       1.91325710      -0.00765000       0.00674020      -0.00810325
H       11.82607001       8.14011511      -0.39072426      -0.00215499       0.01058945      -0.01775684
H       10.59581335      11.31867391       2.26497657       0.01794758      -0.01732279       0.02219719
H       12.39309669      10.16344886       0.94644611       0.00953604      -0.01199857       0.01216290
C       10.46585311       3.24258421       2.03611986      -0.01094695       0.00235638       0.00225262
C       11.45418939       4.15912917       2.39809306      -0.00549009      -0.00069705      -0.00391044
C        9.14987285       3.68813191       1.93718420      -0.00995207       0.00703069       0.00945937
C       10.79287208       1.80065272       1.75052849      -0.01715668       0.00117749       0.00002930
C       11.13198257       5.48515349       2.66610519       0.00070892       0.00100748      -0.00427677
C        8.82259125       5.00954536       2.20795097      -0.00359397       0.00872304       0.00945305
C        9.81195246       5.91129776       2.57876451       0.00192328       0.00577232       0.00220262
H       12.48547619       3.83355006       2.48113030      -0.00635749      -0.00493537      -0.00927974
H        8.37717771       2.98906444       1.63537561      -0.01432257       0.00947618       0.01478003
H        9.99005266       1.39615612       1.10848528      -0.02353921       0.00171887       0.00812271
H       11.76684054       1.71205271       1.25217241      -0.02168690       0.00136108      -0.00967235
H       10.82316554       1.18136380       2.65910201      -0.00688669       0.00103760       0.00008079
H       11.90700629       6.19145342       2.94300570       0.00492409      -0.00061020      -0.01085024
H        7.79198189       5.33320990       2.12727057      -0.00274454       0.01258047       0.01420184
H        9.56280421       6.94128198       2.79704618       0.00643376       0.00734136       0.00062613
C        7.79683168       2.73659229       5.85461833       0.00364511      -0.00725537       0.00657462
C        8.06852294       4.10303907       5.82421900       0.00257704      -0.00671256       0.01771869
C        8.87025135       1.84695498       5.80017382       0.00422599      -0.00564262      -0.00618551
C        6.38037629       2.24590515       5.88733208       0.00421458      -0.00959225       0.00774250
C        9.37212280       4.57637036       5.75919076       0.00221296      -0.00538607       0.01552203
C       10.17694622       2.31335722       5.73292605       0.00374408      -0.00450958      -0.00825180
C       10.43213730       3.67960966       5.72302556       0.00273830      -0.00431413       0.00285746
H        7.23828784       4.80015631       5.83292352       0.00237005      -0.00715610       0.02822742
H        8.68858912       0.77784123       5.78390515       0.00568612      -0.00572638      -0.01553818
H        6.28507599       1.32169049       6.45824090       0.00753487      -0.01322891       0.00248793
H        5.71089646       2.98987756       6.32050026       0.00428417      -0.01339948       0.01442186
H        6.01700864       2.04465716       4.87870699       0.00148354      -0.00429874       0.00747910
H        9.55710871       5.64282637       5.71635366       0.00140811      -0.00492053       0.02349811
H       10.98931051       1.60075214       5.65961079       0.00181507      -0.00553434      -0.02105259
H       11.44930474       4.04407190       5.66002999       0.00228788      -0.00310416       0.00114714
C        3.63254473       2.60585771       1.82350956      -0.00038350      -0.01008002      -0.00482443
C        2.25514930       2.48805528       2.01562057      -0.00137120      -0.00825474      -0.00955372
C        4.47151176       1.79190162       2.58506191      -0.00391296      -0.01062701      -0.00125596
C        4.20799677       3.57275503       0.83031661       0.00404413      -0.01003161      -0.00259647
C        1.73154810       1.59763270       2.94792604      -0.00608170      -0.00705749      -0.01076852
C        3.95319121       0.89012456       3.50672806      -0.00830569      -0.00875311      -0.00184679
C        2.57956846       0.79301335       3.69856513      -0.00918916      -0.00692052      -0.00685301
H        1.58390140       3.09643345       1.41881190       0.00173388      -0.00758491      -0.01275688
H        5.54458286       1.86051887       2.43827153      -0.00309511      -0.01220293       0.00266553
H        5.10301794       3.16402491       0.36043754       0.00525624      -0.01027690      -0.00023757
H        3.49056982       3.81023521       0.04529669       0.00699638      -0.00812253      -0.00486352
H        4.48241143       4.51505572       1.31225943       0.00340602      -0.01056442      -0.00090355
H        0.66055568       1.51638392       3.08897608      -0.00658718      -0.00818892      -0.01436976
H        4.62276170       0.25621919       4.07559309      -0.01118360      -0.00901955       0.00164693
H        2.16863095       0.09124931       4.41227987      -0.01249865      -0.00624184      -0.00809418
C        3.61916826       8.87927851       7.98341476      -0.00319988       0.00191191      -0.00152499
C        4.41904302       7.73717774       7.98865889      -0.00651869      -0.00044759       0.00540824
C        2.28343606       8.75475486       7.59490480      -0.00289372       0.00399897      -0.00426032
C        4.19484917      10.21432032       8.35686293      -0.00079222       0.00212777      -0.00576625
C        3.90435586       6.50217645       7.61099248      -0.00927043      -0.00081182       0.00998678
C        1.76495271       7.52138855       7.22243545      -0.00540507       0.00375763      -0.00044352
C        2.57284714       6.38931361       7.23010656      -0.00870429       0.00134239       0.00679254
H        5.45909209       7.82531065       8.27888415      -0.00683674      -0.00216714       0.00778270
H        1.64330843       9.62874028       7.56679081      -0.00024384       0.00588578      -0.00928896
H        3.49457371      10.79966813       8.95403405       0.00269265       0.00286538      -0.00226595
H        5.12405377      10.10061057       8.91620189       0.00246367       0.00217781      -0.01099901
H        4.42929267      10.80181358       7.46566435      -0.00595738       0.00156483      -0.00762817
H        4.54621420       5.62854110       7.61049394      -0.01211549      -0.00290012       0.01627252
H        0.73170446       7.45325951       6.90872230      -0.00490561       0.00504832      -0.00294329
H        2.17187549       5.43103454       6.92394215      -0.01080072       0.00098607       0.01052598
C        8.73173049       2.88385079      10.52468395       0.00232559      -0.00682774       0.00710895
C        9.42580107       1.79186363       9.99411462       0.00134158      -0.01322615       0.01887663
C        9.46947549       3.90246388      11.12725672       0.00255059      -0.00541979       0.00445437
C        7.23449129       2.92744475      10.46918236       0.00293094      -0.00082797      -0.00439948
C       10.81530801       1.71409367      10.08029743       0.00063697      -0.01714058       0.02718689
C       10.85694208       3.84253164      11.20566044       0.00192960      -0.00951710       0.01285943
C       11.53896693       2.74396498      10.69205785       0.00101042      -0.01534352       0.02401667
H        8.86891685       1.00845598       9.49273628       0.00127965      -0.01524128       0.02201530
H        8.94666928       4.75623763      11.54337345       0.00299987      -0.00095943      -0.00403501
H        6.85343386       3.90612873      10.76062528       0.00437567      -0.00133120      -0.00062583
H        6.87224609       2.69974423       9.46471011       0.01048626       0.00840212      -0.00934374
H        6.81254209       2.16966690      11.13372767      -0.00522049      -0.00396019      -0.01348355
H       11.34337707       0.89894048       9.58290902       0.00065336      -0.02261944       0.03639427
H       11.40357789       4.65033346      11.67623513       0.00212068      -0.00868882       0.01145974
H       12.62155118       2.70642284      10.72355724       0.00050713      -0.01997883       0.03145272
C        8.21984790       8.05297793       7.63080288       0.00089925       0.00483862      -0.00139445
C        7.55840211       7.86616919       6.41597231       0.00248158       0.00503552      -0.00250177
C        8.73576322       9.31879437       7.91024855       0.00449108       0.00367895      -0.00224301
C        8.39107874       6.92034288       8.60306614      -0.00451277       0.00582576       0.00086480
C        7.43248215       8.90187054       5.49865430       0.00686993       0.00441128      -0.00405546
C        8.61853968      10.35409450       6.99199747       0.00854827       0.00327276      -0.00339116
C        7.97260393      10.15103542       5.77920824       0.00929968       0.00348797      -0.00416824
H        7.12349138       6.89994929       6.19168679       0.00039152       0.00575910      -0.00238342
H        9.23252141       9.49429127       8.85716570       0.00373939       0.00348192      -0.00155766
H        8.45831537       7.28920335       9.62722424      -0.00946333       0.00729193       0.00080553
H        7.56694651       6.20783112       8.54115230      -0.00452223       0.00608054      -0.00228160
H        9.30586733       6.35837270       8.39662374      -0.00361115       0.00516683       0.00616311
H        6.90868718       8.73158623       4.56551323       0.00792470       0.00467898      -0.00480017
H        9.04252415      11.32343446       7.21927195       0.00981031       0.00274782      -0.00350478
H        7.91224627      10.95420579       5.05632972       0.01016233       0.00373706      -0.00425755
C        2.61944879       8.70772505       3.16562460      -0.00818575       0.00023144       0.00061426
C        2.15261926       8.72456253       1.85063956      -0.01091715       0.00228631       0.00138772
C        2.87239900       7.47066938       3.75881710      -0.00448495      -0.00074337      -0.00273892
C        2.78210904       9.98119288       3.93413878      -0.00818688      -0.00037932       0.00180078
C        1.91278868       7.54481323       1.16021777      -0.00887226       0.00330679      -0.00137290
C        2.62516322       6.28492796       3.07649483      -0.00201841       0.00026152      -0.00563387
C        2.13581067       6.31864676       1.77611462      -0.00373156       0.00219220      -0.00509593
H        1.96643643       9.67920903       1.37174331      -0.01471559       0.00328699       0.00471681
H        3.24972263       7.43973145       4.77388769      -0.00326522      -0.00235444      -0.00303030
H        3.50580867       9.86757424       4.74265285      -0.01206271      -0.00245233       0.00502831
H        3.10570644      10.79414465       3.28327285      -0.00324443      -0.00119825       0.00307642
H        1.81287122      10.26546732       4.36041951      -0.00939295       0.00344143      -0.00354137
H        1.54960333       7.57961472       0.14003346      -0.01107937       0.00509944      -0.00058942
H        2.80966897       5.33270464       3.56150063       0.00136429      -0.00059378      -0.00849091
H        1.93134626       5.39833214       1.24562196      -0.00114309       0.00280865      -0.00743452
