136
Lattice="12.704184726542815 0.0 0.0 0.0 12.704184726542815 0.0 0.0 0.0 12.704184726542815" Properties=species:S:1:pos:R:3:forces:R:3 energy=-386110.09375 stress="0.0008799003553576767 -0.0003096826549153775 0.0004394569405121729 -0.0003096826549153775 0.0004207265446893871 0.00017578357801539823 0.0004394569405121729 0.00017578357801539823 -1.6586180208832957e-05" pbc="T T T"
Gd      10.26884411      13.42779386      -0.85825427      -0.02825420       0.00193465      -0.01333816
O       11.61163482      11.73847348       5.78557423      -0.01403058      -0.00590836       0.01497442
O        9.69744020      12.74718827       5.24931482       0.00697517      -0.00592971      -0.00565696
O       10.38791896      10.94657115       4.06799098       0.00120762       0.02941179       0.03554940
C       10.46435570      11.80872572       4.96689613      -0.01685268      -0.02506255      -0.02974963
H       12.10813127      10.99003556       5.43582836      -0.01604271      -0.01261783       0.01607070
O        1.32585205      11.99464941      -0.46878530      -0.02123520       0.02079546      -0.00816438
O       -0.85686724      11.87037334      -0.07084434      -0.02393678       0.00499845      -0.02833235
O       -0.07793201      13.62534095      -1.17276544      -0.02163440       0.02001333      -0.00293979
C        0.09558179      12.51388595      -0.57531664      -0.02344075       0.01392396      -0.01238132
H        1.93961954      12.59363247      -0.91078341      -0.02533925       0.02982289      -0.00102603
O        7.40881258      10.64481217      11.51488693      -0.00176370      -0.02066189       0.00744247
O        8.20185519      12.51017836      12.43451131      -0.00685471      -0.01855710       0.00233382
O        9.42030389      11.46796107      10.90732842      -0.03096265       0.01001611      -0.03612101
C        8.37934800      11.56035634      11.62091587      -0.01354325      -0.00916162      -0.01003253
H        7.72235724       9.96225863      10.90826938      -0.00654376      -0.00883412      -0.00763071
O        8.44127430       7.95980028       1.24703771       0.00348063      -0.00026171       0.00108314
C        7.27157250       7.54130276       1.91535975       0.00470334      -0.00124493       0.00100708
C        9.44482383       8.39582857       2.16459916       0.00329566       0.00226207       0.00168186
C        6.21004798       7.21413394       0.89258142       0.00348687       0.00183059       0.00100145
C       10.67515324       8.79709941       1.39616930       0.00192544       0.00579247       0.00097340
H        7.49456995       6.65776569       2.53588830       0.00437342      -0.00313061      -0.00107843
H        6.92334527       8.33010083       2.59732057       0.00521195      -0.00298488       0.00342563
H        9.07789512       9.24185139       2.75574761       0.00169763       0.00033003       0.00158983
H        9.67096393       7.57752506       2.86653109       0.00622828       0.00182265       0.00092837
H        5.29118227       6.89591846       1.38843941       0.00351523       0.00122954       0.00059831
H        5.98695848       8.09123143       0.28450070       0.00413949       0.00390731       0.00366767
H        6.54188960       6.41043822       0.23325091       0.00257663       0.00342309      -0.00142445
H       11.40556371       9.21722536       2.08612526       0.00174690       0.00636014       0.00097930
H       11.11128999       7.94393695       0.87358204       0.00319118       0.00788273      -0.00114086
H       10.43828915       9.56616868       0.66087793      -0.00072306       0.00670710       0.00242363
O        9.96214789       1.73115375       1.35522881      -0.00695513      -0.01687635      -0.01530039
C       10.59448469       0.82574118       2.34256395      -0.00475094      -0.00540653      -0.00391506
C        8.67490635       2.26062567       1.76959750      -0.00364879      -0.00645041      -0.01873633
C       12.04397243       1.18722935       2.53288524      -0.00865662       0.00511077       0.00258633
C        8.74490181       3.73825751       2.09043008       0.01189730      -0.01375401       0.00721025
H       10.04013038       0.88642916       3.27793519      -0.01437250       0.00089392      -0.01090544
H       10.48008137      -0.19616645       1.97271521       0.00239308      -0.00771463       0.00388627
H        7.97192503       2.06268423       0.95671047       0.00244084       0.01824926      -0.02992404
H        8.34304692       1.69154118       2.63945326      -0.02025349      -0.01922585      -0.03419396
H       12.53411048       0.37331846       3.06777896      -0.00815547       0.01669261       0.02081077
H       12.56032383       1.32388217       1.58124859      -0.00179229      -0.00350307       0.00569794
H       12.16459694       2.09764996       3.11797087      -0.01763865       0.01223397      -0.00911431
H        7.75484822       4.07758897       2.40406855       0.01558636      -0.00621441       0.00905051
H        9.44364316       3.93792266       2.90378315       0.00891909      -0.03464013       0.01397732
H        9.03729758       4.34171056       1.22960220       0.02345602      -0.00242731       0.01936568
O        8.67611592       2.47983406      10.76789060       0.01361699       0.00547075       0.00302479
C        9.26129611       3.79277733      10.86775400       0.01418245       0.00659019      -0.00238554
C        7.35618598       2.57287360      10.16598201       0.01171950      -0.00394201       0.01042652
C       10.69146840       3.65445155      11.33284743       0.01369062       0.00419419      -0.00042159
C        6.93886234       1.28563322       9.50990021       0.01255082      -0.00868675       0.02024253
H        9.22209812       4.26146442       9.88089645       0.01358863      -0.00255314      -0.00490367
H        8.66625879       4.39803015      11.56205569       0.01254103       0.01186387      -0.00816953
H        6.64807277       2.88289164      10.94333139       0.02098593      -0.00633292       0.01780015
H        7.40224834       3.36330763       9.41359764       0.00533623      -0.00854841       0.00666276
H       11.15200002       4.64070293      11.40315712       0.01604611       0.00379249      -0.00895034
H       10.75994908       3.21066371      12.33469891       0.01332645       0.01136231       0.00200452
H       11.28318510       3.07238055      10.61705870       0.01180082      -0.00441140       0.00526102
H        5.95433226       1.44803997       9.06414632       0.01942986      -0.01214907       0.00737254
H        7.63054462       1.02052345       8.71062028       0.01681761      -0.01918092       0.02762111
H        6.85209897       0.46817711      10.22349847       0.00300064       0.00147663       0.03116208
O        5.92097212      11.69264525       4.38402866      -0.00220770      -0.00030233       0.00535560
C        6.31880925      11.84274921       5.73722496      -0.00109702      -0.00292842       0.00477380
C        7.01493475      11.28537670       3.56878165      -0.00372676      -0.00673383       0.00483686
C        5.08108687      12.08189212       6.56690200       0.00036931       0.00712430       0.00451687
C        6.52005865      11.09279431       2.15892759      -0.00609583      -0.00547114       0.00520080
H        6.83107087      10.93068609       6.06812493      -0.00832123      -0.00641418       0.00574921
H        7.04200270      12.66423601       5.82768952       0.00485224      -0.00786155       0.00461953
H        7.82933494      12.01719056       3.62996329      -0.00065136      -0.01077926       0.00338682
H        7.42446884      10.34909493       3.96755093      -0.00897755      -0.00836396       0.00527763
H        5.34505582      12.18584878       7.62012812       0.00050960       0.00484285       0.00477628
H        4.56426384      12.98741517       6.24742664       0.00782236       0.01119323       0.00429741
H        4.38988441      11.24473161       6.46447075      -0.00625147       0.01263136       0.00403863
H        7.31168197      10.67624215       1.53714416      -0.00762616      -0.00742266       0.00440916
H        5.66908117      10.40840824       2.14261810      -0.00799336      -0.00302523       0.00622317
H        6.20869251      12.03381143       1.70607116      -0.00388579      -0.00439054       0.00582629
O        3.35524954       3.59803312       9.32078831       0.00000530      -0.00198701      -0.00076550
C        2.71353255       2.43238135       8.83141168      -0.00018150      -0.00169886      -0.00114030
C        3.34789441       3.66724707      10.73287550       0.00088540      -0.00293255      -0.00052837
C        2.70778152       2.48229278       7.32392878      -0.00326344       0.00087687      -0.00122213
C        3.96118810       4.98145369      11.15160400       0.00180246      -0.00344440      -0.00009570
H        3.24667790       1.53667960       9.19036472       0.00122684      -0.00191960      -0.00372899
H        1.68884901       2.37922134       9.22827268       0.00045270      -0.00269285       0.00085133
H        2.31621044       3.58181409      11.10605026       0.00086021      -0.00224246      -0.00024411
H        3.91468163       2.81931761      11.15200794       0.00050563      -0.00369108      -0.00137128
H        2.22800021       1.59380864       6.91294444      -0.00368936       0.00122891      -0.00189493
H        2.16463833       3.35977086       6.97342829      -0.00420251       0.00115152       0.00107638
H        3.72634949       2.53612634       6.93864725      -0.00409907       0.00180008      -0.00333394
H        3.98181290       5.06465040      12.23900491       0.00280258      -0.00405444       0.00000729
H        4.98242969       5.06494209      10.77825677       0.00146779      -0.00347861      -0.00106215
H        3.38447704       5.81501659      10.75015371       0.00167865      -0.00289153       0.00099232
O        2.39286975       3.27953818       3.23590085      -0.00217614       0.00306368       0.00100911
C        2.04570519       4.64662370       3.14405190       0.00015259       0.00372937       0.00075692
C        3.64917804       3.01337868       2.63933574      -0.00186193       0.00114971       0.00244244
C        0.69368698       4.85611070       3.78048162      -0.00030470       0.00608304      -0.00093180
C        3.99656298       1.55951695       2.82942110      -0.00474790       0.00032264       0.00178641
H        2.81206570       5.25610769       3.64840076       0.00052735       0.00248110       0.00173563
H        2.02944805       4.95739384       2.08759048       0.00194729       0.00385879       0.00067121
H        3.60752955       3.27107679       1.56852575      -0.00025291       0.00194470       0.00246346
H        4.41518706       3.66046371       3.09601952      -0.00113541      -0.00050884       0.00373888
H        0.42445473       5.91273246       3.76250162       0.00157767       0.00650285      -0.00116427
H       -0.07190511       4.29632886       3.24370190      -0.00063322       0.00746398      -0.00206152
H        0.70274120       4.51553076       4.81612072      -0.00222307       0.00580729      -0.00086764
H        4.95823991       1.33659439       2.36707641      -0.00426029      -0.00086943       0.00325141
H        4.07220006       1.30627880       3.88565158      -0.00703445      -0.00068945       0.00180116
H        3.23949298       0.91761066       2.37851694      -0.00518501       0.00210357      -0.00011926
O        6.58357681       8.31119008       5.61384542       0.00366070      -0.00048172       0.00189555
C        7.78726472       7.59376819       5.82694849       0.00374883      -0.00080213       0.00263529
C        5.50596086       7.47174900       5.25416199       0.00330168       0.00029531       0.00216587
C        8.88663197       8.56627426       6.17441569       0.00388676      -0.00085533       0.00134519
C        4.27289503       8.32366903       5.07568641       0.00417179       0.00137502       0.00086413
H        7.63579690       6.86038883       6.63380345       0.00317162       0.00001746       0.00336686
H        8.04110947       7.02813595       4.91782135       0.00328633      -0.00186053       0.00307381
H        5.74769905       6.93527089       4.32372892       0.00318758      -0.00082567       0.00260830
H        5.34832829       6.70955142       6.03327430       0.00208437       0.00093272       0.00275409
H        9.81278975       8.02280521       6.36653172       0.00371695      -0.00092791       0.00260636
H        9.07446003       9.27327611       5.36530251       0.00457320      -0.00194022       0.00015542
H        8.62887421       9.13064940       7.07133061       0.00401558       0.00094153       0.00054879
H        3.44041582       7.71590692       4.71816534       0.00338556       0.00191884       0.00163581
H        3.98411784       8.78015796       6.02208122       0.00475174       0.00316202       0.00025773
H        4.46424856       9.12464159       4.36113652       0.00511231       0.00023611      -0.00020784
O        9.48784816       2.38188693       7.45839222       0.00767389       0.00571714      -0.00511697
C       10.78333686       1.80970311       7.59387511       0.00710919       0.00262570      -0.01348180
C        9.35763136       3.12939345       6.26340240      -0.00059104       0.00329927      -0.00552571
C       10.68329142       0.66790154       8.57687322       0.00688809       0.00403571      -0.01199000
C        7.90448140       3.49227281       6.07531435      -0.00245297      -0.00005446       0.00251158
H       11.11790362       1.41992593       6.63074863       0.00104593       0.00379109      -0.01668388
H       11.48984518       2.58163041       7.94249436       0.01043314       0.00044927      -0.01760541
H        9.98277260       4.03647574       6.31647071      -0.00188306       0.00450563      -0.01201104
H        9.71152264       2.51374339       5.42839291      -0.00458971       0.00060883      -0.00517443
H       11.66829340       0.28127214       8.84218214       0.00595117       0.00679284      -0.00537780
H       10.16006167       1.03315915       9.47326739       0.00042664       0.00698607      -0.01682439
H       10.09095298      -0.13964656       8.14869517       0.01232468       0.00019872      -0.01160252
H        7.78199338       4.10447706       5.18035920      -0.00984746      -0.00229435       0.00220218
H        7.30329931       2.58897902       5.96486102      -0.00114381      -0.00166970       0.00811479
H        7.52644250       4.06090420       6.92658338       0.00153912       0.00123527       0.00356372
