144
Lattice="12.402591365848892 0.0 0.0 0.0 12.402591365848892 0.0 0.0 0.0 12.402591365848892" Properties=species:S:1:pos:R:3:forces:R:3 energy=-435051.65625 stress="0.00011383280070731416 0.00016927328397287056 -0.0013581872917711735 0.00016927328397287056 0.0003296904906164855 -0.000523650087416172 -0.0013581872917711735 -0.000523650087416172 0.0013942652149125934" pbc="T T T"
Gd      10.02583802      12.59328906       0.52464147       0.00381412      -0.00850803      -0.00074577
O       11.49045234      12.51000520       4.16757733       0.00154364       0.00948507       0.00238414
O       10.67802088      13.62484757       2.43854640       0.00361186       0.00043929      -0.00435598
O       11.63557007      11.66200099       2.06106482       0.00129163      -0.00269270       0.00716579
C       11.28831754      12.58678985       2.84310116       0.00211182       0.00194886       0.00136667
H       11.83561922      11.65063400       4.46657518      -0.00273976       0.01005828       0.01035376
O        6.74564158      11.90479560       2.74590677       0.00136225       0.00663471      -0.00037420
O        7.85644588      13.06022371       1.21240936       0.00495002      -0.00001121      -0.00305757
O        8.69069895      11.12246448       1.88892896      -0.00160393      -0.00161731       0.00018333
C        7.79033043      12.02042856       1.93234430       0.00178587       0.00152303      -0.00151697
H        6.84672789      11.10690673       3.28701230      -0.00094929       0.00682694       0.00044608
O        6.60564297      11.84904535       7.58165772       0.00226168       0.00379562       0.00881511
O        7.56396991       9.90827694       7.10300291       0.00398815       0.00477687       0.00741534
O        5.41514242      10.27259108       6.50156535       0.00281811       0.00315544       0.00946021
C        6.48922776      10.56272568       7.01364326       0.00205424       0.00423634       0.00838393
H        5.72955524      12.27325705       7.51380304       0.00213200       0.00394480       0.00827987
O        8.67176406       5.39746031       7.55844896       0.00059104       0.00326705      -0.00266558
O        8.22953305       5.60902077       5.37163531      -0.00449836       0.00519234      -0.00129044
C        9.39649642       3.66233895       6.13750062      -0.00546941       0.00306582      -0.00567018
C        8.71250601       4.97819788       6.28908834      -0.00352240       0.00422698      -0.00367093
H       10.31262358       3.64169363       6.71766757       0.00120784       0.00605725      -0.01605743
H        8.74397193       2.87423417       6.51481209      -0.00061035       0.00467148       0.00561836
H        9.61946621       3.47407589       5.09263918      -0.01730001      -0.00132623      -0.00726762
H        8.16745909       6.25136203       7.62582355       0.00162898       0.00395142      -0.00148121
O        4.76477628       4.07596467      10.82694586      -0.00365555      -0.00324836       0.00630218
O        3.02675257       5.48045215      10.65255225      -0.00348103      -0.00305200       0.00391531
C        3.83652011       4.39314700       8.67986810      -0.00575933      -0.00884166       0.00619233
C        3.82606606       4.72070950      10.13265266      -0.00397679      -0.00503522       0.00540817
H        4.81853610       4.05262979       8.36056087      -0.00716980      -0.01275045       0.00589829
H        3.13363890       3.57378770       8.51086514      -0.00817741      -0.00748010       0.00949742
H        3.51358419       5.26652759       8.12008566      -0.00433417      -0.00962171       0.00390537
H        4.68191405       4.33039767      11.79611586      -0.00261451      -0.00072660       0.00584002
O        0.53142392       2.32894614       4.88683720       0.00530145       0.00592774       0.00037619
O       -0.09645803       2.61588335       7.00431201       0.00099736      -0.00499213       0.00013798
C        1.53144700       4.11353486       6.02586439      -0.00455278       0.00660086       0.00816726
C        0.57506317       2.97305019       6.04649597       0.00111860       0.00198087       0.00191486
H        2.54489560       3.70678546       5.99996563      -0.00248866       0.01141356       0.01461051
H        1.38540283       4.69594182       5.11818420      -0.00219663       0.00617574       0.00755993
H        1.39519651       4.73201438       6.90584504      -0.01283773       0.00567444       0.00751302
H       -0.10297879       1.58765561       4.92966029       0.00702703       0.00369307      -0.00341636
O       12.02409805      10.58121320       8.60090007       0.00273544       0.00722191      -0.01193112
O       12.06948950      10.76028451       6.36926982       0.00400028       0.01013431      -0.01144671
C       10.23543979      11.73989974       7.57149157       0.00630844       0.01441336      -0.01027781
C       11.52314974      11.00253703       7.42846611       0.00400385       0.01057623      -0.01182592
H        9.41195635      11.01472758       7.60842493       0.00430381       0.01668966      -0.01192041
H       10.21980367      12.33223171       8.48399292       0.00883970       0.01119191      -0.00811808
H       10.07745647      12.37682497       6.70595482       0.00932548       0.01793043      -0.00822401
H       12.84001974      10.03344626       8.44894471       0.00279254       0.00617425      -0.01139018
O        7.67592404       8.94652759       3.81856387      -0.00148982       0.01889402      -0.00651014
O        6.02875678       8.29999632       2.46423806      -0.00116472       0.01767673      -0.00666356
C        5.92824171       7.69186987       4.79253383       0.00144976       0.01419678      -0.00748354
C        6.51903470       8.30915537       3.58576007      -0.00049429       0.01701056      -0.00724560
H        6.66600535       7.03683329       5.25627773       0.00180782       0.01203385      -0.01082644
H        5.68904230       8.48608666       5.51071966       0.00372110       0.01205933      -0.00437914
H        5.03430147       7.13160416       4.53236851       0.00047760       0.01548969      -0.00714744
H        8.05349088       9.25483915       2.97526479      -0.00116502       0.02160069      -0.00585097
O        3.58608538       3.97589508       2.85309682      -0.00200009       0.00111336       0.00484875
O        4.43626645       4.66926738       0.91865251       0.00214975       0.00113297       0.00621945
C        4.78646663       2.38675948       1.58155872      -0.00320956      -0.00030673       0.00507059
C        4.25484217       3.77814210       1.73444137      -0.00073503       0.00051087       0.00555640
H        5.78699599       2.33727864       2.01772470      -0.00279433      -0.00187276       0.00418018
H        4.16493257       1.65851126       2.09659168      -0.00393251       0.00066805       0.00573480
H        4.88581264       2.13755399       0.52769307      -0.00456124      -0.00046916       0.00491910
H        3.32276899       4.93237219       2.92032196       0.00019520       0.00166488       0.00518057
O       10.19474463       7.06996815       3.30929783      -0.00265659       0.00624514       0.00199437
O       11.34061580       5.64093881       4.59479084      -0.00380957       0.00497782       0.00153825
C       10.63103479       7.74480507       5.53119271      -0.00268202       0.00515562       0.00234681
C       10.76446406       6.69610024       4.47920599      -0.00300103       0.00504792       0.00182083
H       11.26404277       8.59553051       5.27145319      -0.00058810       0.00386998       0.00311659
H        9.60577615       8.10843565       5.58093494      -0.00196064       0.00717772       0.00095762
H       10.95731603       7.34294269       6.48642424      -0.00476691       0.00421114       0.00278169
H       10.29680943       6.31805649       2.70913266      -0.00318791       0.00629157       0.00159338
O       11.19097230       3.69650242       9.17286360       0.00774781      -0.00561523      -0.00513545
O       12.25437314       5.58676205       8.59406747      -0.00617212      -0.00064516      -0.01440305
C       10.56377255       5.69532005      10.29951321       0.00823605      -0.00840640      -0.00029397
C       11.43812115       5.03993679       9.28184504       0.00249839      -0.00521430      -0.00771844
H        9.62435634       5.94662561       9.80413483       0.00209969      -0.01580002       0.00825235
H       10.33903573       5.03371290      11.13517153       0.02151710      -0.00868033       0.00278649
H       11.01663058       6.62046580      10.63823088       0.00599645      -0.00482294      -0.00715540
H       11.75876905       3.32521771       8.43448110       0.00344747      -0.00444978      -0.01050591
O        6.98309102       1.39583573       5.77037549      -0.00017750      -0.00113392       0.00257389
O        5.10373998       1.69240473       6.96352419       0.00039166      -0.00043103       0.00354594
C        5.68514860       3.31365510       5.29981714       0.00006743      -0.00053370       0.00339103
C        5.87751798       2.07054751       6.10435358       0.00008225      -0.00091723       0.00306052
H        6.59662819       3.63274397       4.80272765      -0.00099398      -0.00284596      -0.00011758
H        4.91661873       3.11864770       4.55122719      -0.00356644       0.00163906       0.00657187
H        5.30629539       4.11039629       5.93712988       0.00487135       0.00058268       0.00491840
H        7.03075157       0.59924694       6.35616272       0.00083449      -0.00003633       0.00411919
O        1.80718694       9.02423717       8.61426877       0.00226361       0.00840196      -0.00290382
O        3.48613934       7.59614166       8.21744636      -0.01126206      -0.00893903       0.00242400
C        2.39481623       8.62691339       6.34394843       0.00266159      -0.00091700      -0.00120354
C        2.64211421       8.34018653       7.79071747      -0.00320452      -0.00196964      -0.00058377
H        2.23711495       7.68065755       5.82449063       0.01942188      -0.00066076      -0.00588177
H        1.54458324       9.28850015       6.20122685      -0.00371797      -0.01020902      -0.00547771
H        3.29855753       9.09017375       5.94460719      -0.00036845       0.01262005       0.00746228
H        2.03461267       8.82407437       9.56008292      -0.00022377       0.00847487      -0.00222425
O       10.47900770      10.92055755      11.06752609       0.00464481      -0.00836545      -0.00558567
O        9.77771577       8.89929827      10.34990092       0.00278534      -0.01238830      -0.02740315
C        8.12810640      10.44817166      11.15753685       0.00470382      -0.00621716      -0.00699617
C        9.49166603       9.95983032      10.81128823      -0.00838868       0.01137877      -0.00450975
H        8.11741144      11.42761947      11.63798182       0.00412116      -0.00431643      -0.00364078
H        7.55887569      10.50438052      10.22504066      -0.00258109      -0.00271954      -0.00297442
H        7.61442745       9.71846436      11.78180406       0.00431992      -0.00507253      -0.00418948
H       11.25893406      10.67219618      10.52872410       0.00158352      -0.00399324      -0.00397468
O        3.42759354       8.50293960       2.44641721      -0.00393116       0.00437838      -0.00903200
O        2.88085464       6.48292703       3.24238336       0.01097989       0.00547075       0.00319797
C        1.14929436       8.07006623       2.75451809      -0.00080234      -0.00898647      -0.00274257
C        2.56300255       7.59035640       2.83430489       0.00253803       0.00113124      -0.00269276
H        0.99531184       8.84320167       3.51044826      -0.00507785      -0.00706916      -0.00548452
H        0.96209343       8.53199553       1.78573897      -0.00510838      -0.01388422      -0.00429963
H        0.46861902       7.24542440       2.93268419       0.00507566      -0.01284193       0.00167213
H        4.37376440       8.17804283       2.46773212      -0.00186493       0.01042366      -0.00773171
O        8.66143366       2.86325631       9.39434701       0.00959373      -0.00389154      -0.00243905
O        9.31974944       1.62065533      11.11773816       0.00651855      -0.00762853      -0.00375861
C        7.02542795       1.51043724      10.38733577       0.00481999       0.00438626       0.00272521
C        8.42441384       2.00412845      10.34221232       0.00713944      -0.00312911      -0.00115737
H        6.32740782       2.31127938      10.15114788       0.00780453       0.00739715       0.00395229
H        6.91887643       0.74344496       9.61239941      -0.00060082       0.00369367       0.00417757
H        6.80471058       1.07725786      11.35935282       0.00609039       0.00648956       0.00399840
H        9.62047882       3.14742025       9.35782335       0.01047856      -0.00716951      -0.00329736
O        3.97809080       7.58902004      -0.43172274      -0.00067853      -0.00053394      -0.00657145
O        2.32834107       8.88805511      -1.20856600      -0.00204802       0.00085520      -0.00245395
C        4.29122569       9.91637339      -0.29944505       0.00169837      -0.00081718      -0.00776482
C        3.42771730       8.75962161      -0.68495320      -0.00004804       0.00006559      -0.00495222
H        4.83470551       9.71725862       0.62013094       0.01144915      -0.00497399      -0.01447706
H        5.01641165      10.03514255      -1.10809667      -0.00652777       0.00405148      -0.01437587
H        3.68835975      10.81527228      -0.21001077       0.00185472      -0.00185742       0.00276742
H        3.45422827       6.84804776      -0.83567302      -0.00185338      -0.00040925      -0.00517270
O       -0.40131403       1.49854517      11.57346923      -0.00784984      -0.02103478       0.00983697
O        0.93946158       1.86529024       9.80632791       0.00304339      -0.03357969       0.01570880
C        1.97071075       1.26354469      11.88453261      -0.01240522      -0.01718136       0.03012314
C        0.84568090       1.56159046      10.95816333      -0.00409821      -0.02694430       0.01803738
H        2.21609106       2.18967676      12.41051602      -0.02697620      -0.01695195       0.03654690
H        1.71421658       0.50764186      12.62392801      -0.01666779      -0.02075945       0.02516536
H        2.83582689       0.96657279      11.29844229      -0.00336334      -0.01006710       0.04084107
H       -1.02140635       1.89313002      10.92820833      -0.00499925      -0.02640784       0.00359023
O        7.31761925       7.66915856       8.08150673       0.00037107       0.00029683      -0.00462246
O        6.13484316       8.90368025       9.52213263      -0.00132573      -0.00782287      -0.00117484
C        6.79475152       6.70953030      10.19374971      -0.00201890      -0.00922596      -0.00958139
C        6.69218790       7.86224192       9.24059685      -0.00237393      -0.00287127      -0.00407058
H        6.86357982       5.74987015       9.68572823      -0.00608485      -0.00706020      -0.01387876
H        7.71175701       6.85152581      10.77333234      -0.00002323      -0.01449171      -0.01154968
H        5.95804154       6.73244758      10.88521330      -0.00027378      -0.00973008      -0.00738990
H        7.37220280       8.60287016       7.56631244       0.00233775       0.00335108      -0.00005803
