142
Lattice="13.133299867398872 0.0 0.0 0.0 13.133299867398872 0.0 0.0 0.0 13.133299867398872" Properties=species:S:1:pos:R:3:forces:R:3 energy=-461578.25 stress="3.8392041460610926e-05 -2.4370279788854532e-05 -0.0004977110656909645 -2.4370279788854532e-05 -0.0003346092707943171 3.7515068470383994e-05 -0.0004977110656909645 3.7515068470383994e-05 -0.0024116525892168283" pbc="T T T"
Ho       7.70897102      12.83256474       0.94920241       0.00422094       0.00158092      -0.00500442
S        3.27592234      12.80393409       3.27666874       0.00514376       0.00521746      -0.00344834
N        5.69935252      12.75782085       1.90179498       0.00685170       0.00778430      -0.00099746
C        4.66156144      12.77598726       2.49315654       0.00556827       0.00684786      -0.00076810
S        8.08127719      11.07114554      12.07212890      -0.02035476      -0.00967942       0.00045899
N        7.79699772      12.66420132       9.75487426       0.00167998      -0.01397711       0.01655132
C        7.91972523      12.00951187      10.71512528      -0.01096148       0.00838888      -0.01994023
S       12.35722551      13.31227654       1.95153669       0.00560141       0.01196172       0.04723608
N        9.58033963      13.49354020       1.87956847       0.00688881      -0.00348777      -0.00680020
C       10.77510452      13.42910347       1.91143310       0.00661999       0.00254210       0.01746253
C        7.68631292       4.58876898       3.78649215       0.00237858       0.00739591       0.00052726
C        7.82528103       3.20863764       3.69692518       0.00618674       0.00760951       0.00403147
C        6.42232254       5.15317724       3.91056023       0.00086834       0.00415640      -0.00182982
C        6.69763943       2.39793975       3.71905239       0.00859307       0.00464405       0.00583321
C        5.29470750       4.33829923       3.93704104       0.00329010       0.00123408      -0.00040638
C        5.43031092       2.95951296       3.83057917       0.00722681       0.00139511       0.00372528
H        8.56352079       5.22357081       3.78738891       0.00056660       0.00971670      -0.00026372
H        8.80769829       2.76230746       3.60473906       0.00751008       0.01031451       0.00607461
H        6.31961171       6.22803357       4.00529876      -0.00217059       0.00408557      -0.00478791
H        6.79640873       1.31985123       3.65964844       0.01190254       0.00490250       0.00868979
H        4.31138554       4.77712878       4.05071967       0.00198206      -0.00125273      -0.00247434
H        4.55436960       2.32235119       3.84031619       0.00902644      -0.00090595       0.00503974
C        5.95777906       2.54960057      12.99173767      -0.00334537      -0.00244366      -0.00527226
C        6.78036416       1.58572670      12.40593880      -0.00466336      -0.00151426      -0.00800125
C        6.51858827       3.69890095      13.53238953      -0.00192109      -0.00585112       0.00036124
C        8.17006467       1.76682812      12.39685666      -0.00451916      -0.00402075      -0.00538364
C        7.89749543       3.87668674      13.52159893      -0.00174663      -0.00856420       0.00334575
C        8.72544688       2.90702307      12.97508295      -0.00284387      -0.00787243       0.00057480
H        4.88579799       2.40390182      13.01235982      -0.00361754      -0.00030649      -0.00732890
H        6.34247013       0.72123152      11.90956667      -0.00536092       0.00103239      -0.01123236
H        5.88252388       4.45251529      13.97783890      -0.00097543      -0.00679427       0.00292192
H        8.81050760       1.04191647      11.90021603      -0.00546627      -0.00318415      -0.00778519
H        8.32569437       4.77845313      13.93790977      -0.00067677      -0.01162696       0.00839535
H        9.79943194       3.03960804      12.97977981      -0.00266945      -0.01091185       0.00366732
C        7.94949932       5.76574268       7.06699330       0.00110808      -0.00148132       0.00493932
C        8.51789094       4.50185135       6.96255911      -0.00036296      -0.00175059       0.00289100
C        8.75830868       6.89556051       7.06595382       0.00205942      -0.00237127       0.00414668
C        9.89646269       4.37040112       6.84899622      -0.00075530      -0.00293003      -0.00004961
C       10.13866097       6.76506152       6.95839469       0.00153097      -0.00341542       0.00102651
C       10.70639322       5.50135436       6.84510584       0.00013056      -0.00372935      -0.00107404
H        6.87326630       5.86565633       7.14463812       0.00148576      -0.00056069       0.00727411
H        7.88279429       3.62491086       6.95537701      -0.00101849      -0.00115566       0.00366932
H        8.31686502       7.88062441       7.15634166       0.00318274      -0.00211690       0.00600209
H       10.33887198       3.38558297       6.75956671      -0.00191791      -0.00314580      -0.00151935
H       10.76513147       7.64809506       6.96923906       0.00230090      -0.00406370       0.00026687
H       11.78138786       5.39841884       6.75906305      -0.00030841      -0.00465105      -0.00348786
C        1.90894699       9.06800901       3.16835748      -0.01605406      -0.00070778      -0.00147092
C        3.16369942       8.51884392       2.95448943      -0.01488030       0.00224382      -0.00132228
C        0.79393064       8.23981858       3.21295657      -0.01399928      -0.00319516       0.00013540
C        3.30795496       7.14948927       2.77338317      -0.01176581       0.00240103       0.00114288
C        0.93305966       6.86789543       3.04048148      -0.01070875      -0.00303382       0.00216820
C        2.19291439       6.32199063       2.81461983      -0.00953388      -0.00022219       0.00292679
H        1.80969955      10.13877159       3.29335263      -0.01869412      -0.00098594      -0.00255576
H        4.03004977       9.16550700       2.93572435      -0.01661348       0.00431183      -0.00311710
H       -0.18693180       8.66892710       3.37758492      -0.01479928      -0.00543589      -0.00003245
H        4.28972732       6.72590706       2.59749142      -0.01079623       0.00454512       0.00194525
H        0.06231596       6.22457366       3.07276551      -0.00902300      -0.00503031       0.00356861
H        2.30200358       5.25417833       2.66539659      -0.00686029      -0.00022545       0.00517336
C        4.67052144      10.16302320       9.73227621       0.00293678       0.00376482      -0.00895108
C        5.83728875       9.50065581       9.36972376       0.00273299       0.00170067      -0.00577973
C        3.48509054       9.45306234       9.87089932       0.00297782       0.00431404      -0.00587532
C        5.81563479       8.12963415       9.15134084       0.00284944       0.00099854       0.00102793
C        3.46645977       8.08090473       9.65607547       0.00286743       0.00354392       0.00021765
C        4.63171262       7.41751546       9.29851603       0.00278673       0.00179262       0.00378636
H        4.68945504      11.23209654       9.90614087       0.00300962       0.00421831      -0.01401063
H        6.75898485      10.05541044       9.25306772       0.00265810       0.00122359      -0.00838455
H        2.57727709       9.96340787      10.16569311       0.00302790       0.00572526      -0.00838367
H        6.72413293       7.61555285       8.87198586       0.00294107      -0.00041898       0.00408901
H        2.53886839       7.53242695       9.76371427       0.00284207       0.00435592       0.00245903
H        4.61586982       6.35060324       9.10764754       0.00286000       0.00100523       0.00901783
C        1.13364228       8.67975246      -0.31603283      -0.00745183       0.00730485       0.00080179
C        2.44281077       8.21840093      -0.33255399      -0.00784534       0.00657706      -0.00224991
C        0.87321573      10.03077404      -0.10505089      -0.00621299       0.00696916       0.00239192
C        3.49420230       9.10700172      -0.14677954      -0.00702576       0.00588271      -0.00373349
C        1.92523115      10.91692761       0.09412023      -0.00553937       0.00634094       0.00102332
C        3.23657887      10.45348267       0.06836440      -0.00599152       0.00572662      -0.00205999
H        0.31398181       7.98483435      -0.45593458      -0.00800984       0.00778621       0.00213207
H        2.64622708       7.16700516      -0.49107940      -0.00879788       0.00672583      -0.00331384
H       -0.14671593      10.39458107      -0.07675327      -0.00595088       0.00737864       0.00464336
H        4.51739133       8.75140608      -0.18068188      -0.00739151       0.00556251      -0.00627011
H        1.72046155      11.96257629       0.28598222      -0.00463753       0.00614251       0.00239375
H        4.05715808      11.14318989       0.22191678      -0.00532499       0.00506659      -0.00336768
C        2.39142748       9.70347310       6.60884013       0.00159679      -0.00256466      -0.00858777
C        3.44730889      10.57081255       6.35998967       0.00009072      -0.00129271      -0.01056550
C        2.56468964       8.33313333       6.45759044       0.00425407      -0.00236136      -0.00388967
C        4.68229974      10.06401348       5.97139599       0.00114091      -0.00043221      -0.00822815
C        3.79879855       7.82654632       6.07634603       0.00530354      -0.00137267      -0.00169637
C        4.85928738       8.69276569       5.83690468       0.00374314      -0.00017695      -0.00389545
H        1.43566235      10.09397885       6.93480642       0.00046597      -0.00310272      -0.01124842
H        3.31440235      11.63847535       6.48021370      -0.00198898      -0.00145842      -0.01447476
H        1.73661119       7.66047295       6.64455698       0.00545944      -0.00331720      -0.00244478
H        5.50864800      10.73965224       5.78700496      -0.00008428       0.00060172      -0.00995350
H        3.93575375       6.75740946       5.96644842       0.00728271      -0.00134502       0.00179806
H        5.82649166       8.29826897       5.54673057       0.00455911       0.00063471      -0.00199970
C       10.47185016       6.67419544      10.90597910       0.00980079      -0.00275578      -0.00384180
C        9.54263606       7.60364730      11.35848944       0.00973345      -0.00266804      -0.00490420
C       10.04763028       5.43497248      10.43895917       0.01044983      -0.00401339      -0.00061486
C        8.18853699       7.28884072      11.35282750       0.00996484      -0.00372684      -0.00308362
C        8.69418532       5.12313051      10.43070487       0.01089460      -0.00515062       0.00125195
C        7.76657134       6.04779775      10.89297556       0.01054949      -0.00488683      -0.00017327
H       11.52616247       6.92214809      10.90515283       0.00961912      -0.00197272      -0.00554770
H        9.86326250       8.57654593      11.70903293       0.00915101      -0.00184444      -0.00706327
H       10.76887645       4.71791089      10.06871543       0.01066554      -0.00418855       0.00024829
H        7.46484002       8.02111553      11.68779694       0.00981043      -0.00381908      -0.00380073
H        8.36132333       4.16241998      10.06013948       0.01129394      -0.00602962       0.00355534
H        6.71045973       5.80804469      10.88280343       0.01090348      -0.00566727       0.00112327
C        7.52237455       8.43392137       1.67279254      -0.00456625       0.00407568       0.00239769
C        8.87650499       8.13767063       1.55566889      -0.00611939      -0.00074689      -0.00135265
C        7.12126072       9.66178060       2.18761322       0.00137328       0.00597407       0.00263526
C        9.83457586       9.06858408       1.93865633      -0.00178427      -0.00419439      -0.00446489
C        8.08543873      10.58991531       2.59001071       0.00560298       0.00285410      -0.00145258
C        9.44414286      10.29596460       2.46034301       0.00415705      -0.00236117      -0.00451726
H        6.78329478       7.70655077       1.36068791      -0.00803174       0.00668648       0.00523503
H        9.18617476       7.18417070       1.14838169      -0.01074345      -0.00201051      -0.00163972
H        6.06935255       9.90065287       2.28400549       0.00251646       0.00925985       0.00612138
H       10.88795860       8.84023092       1.83353381      -0.00308691      -0.00826279      -0.00692034
H        7.77430884      11.50676804       3.09622087       0.01077302       0.00474749      -0.00218670
H       10.18689656      11.01116542       2.78576042       0.00751136      -0.00507109      -0.00675602
C       12.12547565      10.82303323       5.62118422      -0.00431107       0.00499837      -0.00049821
C       10.95332700      10.09875443       5.44333420      -0.00321133       0.00299650       0.00268181
C       12.11634258      11.96857152       6.41061913      -0.00359572       0.00507833      -0.00105492
C        9.77141510      10.52496099       6.04123916      -0.00148314      -0.00032905       0.00857148
C       10.93774967      12.38711056       7.01703238      -0.00181986       0.00141075       0.00482324
C        9.76100858      11.66772308       6.83210448      -0.00067905      -0.00104791       0.00907598
H       13.04418192      10.49771219       5.14938797      -0.00669886       0.01052978      -0.00879812
H       10.95390841       9.20329689       4.83395063      -0.00390902       0.00451356       0.00087667
H       13.03065171      12.53197378       6.55261766      -0.00478365       0.00789239      -0.00605807
H        8.85780057       9.96476172       5.88211760      -0.00047055      -0.00317240       0.01299766
H       10.92937986      13.27492016       7.63716229      -0.00086324       0.00015604       0.00648119
H        8.85080628      11.99623590       7.31859930       0.00130841      -0.00513349       0.01554103
C        5.47039157       2.47149975       8.96921934       0.00227654      -0.00767944       0.00298165
C        5.49064268       1.59240577       7.89146459      -0.00018069      -0.00852346       0.00371912
C        4.44280272       3.40008645       9.09131823       0.00560921      -0.00420674       0.00167951
C        4.48426791       1.64745321       6.93363164       0.00093113      -0.00547177       0.00318331
C        3.43734724       3.45647826       8.13117042       0.00659624      -0.00119154       0.00126691
C        3.45941760       2.58019898       7.05207747       0.00422120      -0.00185566       0.00170565
H        6.25435205       2.42279824       9.71480557       0.00179853      -0.00978812       0.00323053
H        6.28884044       0.86487804       7.81600550      -0.00272791      -0.01132196       0.00492736
H        4.42313016       4.07581262       9.93799532       0.00748946      -0.00357932       0.00130865
H        4.49708157       0.97009349       6.08815766      -0.00086695      -0.00593047       0.00354040
H        2.63739789       4.18110851       8.22582904       0.00917722       0.00158391       0.00012475
H        2.68069011       2.62337637       6.30023247       0.00510061       0.00063397       0.00120682
