148
Lattice="11.320580428785538 0.0 0.0 0.0 11.320580428785538 0.0 0.0 0.0 11.320580428785538" Properties=species:S:1:pos:R:3:forces:R:3 energy=-497632.78125 stress="0.004071376286447048 -0.0011850025039166212 5.652999607264064e-05 -0.0011850025039166212 0.003549295011907816 -0.0005109539488330483 5.652999607264064e-05 -0.0005109539488330483 0.001943316776305437" pbc="T T T"
Ho      11.29055331      11.97119990       1.75614301       0.00076121       0.00416823      -0.00537258
Cl       8.71638589       9.45765748       4.61327861       0.01561975      -0.00733493      -0.00654733
O        9.31889070       8.58086301       3.44899347       0.00149027      -0.01012111      -0.01110065
O        9.88308891      10.25241542       5.31588100       0.02883685      -0.01337275      -0.01992160
Cl       5.04784466      12.51353419       8.53511906       0.01651341       0.00200558       0.00456154
O        5.66696189      11.09192797       8.34752946       0.01865232       0.00269520       0.00561851
O        4.97062670      12.85836877      10.07727901       0.00147424      -0.00245678       0.00516415
Cl       1.45511935      10.32721044       8.92051253       0.01922628       0.00926447      -0.00488353
O        0.41002894      11.46519151       8.67620956       0.00425327      -0.00454235      -0.00653824
O        2.22597493      10.05042078       7.56714876       0.00510222      -0.00072455      -0.01120436
O        2.89699815       5.87395605       3.31940564      -0.00297066       0.00527786       0.00271834
H        3.77373307       6.16184140       3.64490922      -0.00256284       0.00812395      -0.00205839
H        2.42341309       5.60779171       4.12930874       0.00119851       0.00380890       0.00536898
O        1.25130546       2.12668347       3.13965191      -0.00329430       0.00626469      -0.00412968
H        0.74146375       2.85539461       3.51973562      -0.00582808       0.00756286      -0.00463033
H        2.13361279       2.49896631       2.88215202      -0.00342138       0.00621295      -0.00149691
O        8.34884454       1.50391715       6.76330757       0.00366636      -0.00556248      -0.00792609
H        8.07084428       0.69196218       6.32090970       0.00853546       0.00655772      -0.00383044
H        9.28993297       1.64701630       6.56260568       0.01443443       0.00104111      -0.00883492
O        6.68307972      10.10901683       1.14883001       0.00495485      -0.00112357      -0.00189191
H        5.79056860      10.23736526       0.76844144       0.00441986      -0.00281854      -0.00148565
H        6.51283568       9.63661930       1.98990048       0.00529592       0.00134441       0.00029258
O        3.49703957       4.08803126       7.81452879      -0.00379401       0.00407559       0.01196122
H        3.14992827       4.74250509       8.47797998      -0.00822271       0.00215332       0.01053037
H        4.45725742       4.14269810       7.94854554      -0.00361293       0.00745537       0.01729760
O        7.80871252       9.94163072       9.82194053       0.00877283      -0.00652042       0.00263625
H        7.52060820       9.87875042      10.75185026       0.00785562      -0.00229942      -0.00293629
H        7.33936413      10.71399404       9.46426304       0.00269056      -0.00731719      -0.00603847
O        9.06589907       5.24904911       7.38487133       0.00086438       0.00213748       0.00373474
H        9.11470530       6.03708225       7.94639187       0.00286547       0.00180642       0.00375867
H        9.40410064       5.57584888       6.53743829       0.00126388       0.00090602       0.00267643
O       10.06739200       5.35037170       1.17656103       0.00015889      -0.00164922       0.00529894
H       10.39777085       5.66440644       0.31498675       0.00272119      -0.00120462       0.00777005
H        9.18149473       5.72810105       1.28657858      -0.00201505      -0.00095250       0.00273499
O        9.50400464       3.39701067       9.80698807       0.00419667      -0.00135946       0.00281747
H        8.68194452       3.18110824      10.29937334       0.00466731      -0.00134258       0.00320371
H        9.22191766       3.58121453       8.90051622       0.00337823      -0.00100436       0.00168643
O       11.17214082       5.80513967       9.97457066      -0.00295474       0.00063386       0.01197384
H       10.68298833       4.98584508       9.77901668      -0.00087243      -0.00074128       0.00913753
H       10.70295832       6.51608276       9.49199884      -0.00674128       0.00026321       0.01360020
O       10.02624765       0.99311667       3.72552395      -0.00474313       0.00487339      -0.00509471
H        9.98177541       0.27048627       4.40484722       0.00339705       0.00299236      -0.00763782
H        9.09909374       1.23749419       3.51373147      -0.00689331      -0.00077291      -0.00313168
O       10.14848517       2.75390597       1.76277372      -0.00570118      -0.00004974      -0.00577215
H       10.12876609       3.10308126       2.67510521      -0.00496528      -0.00326734      -0.00431081
H       10.14129342       3.60107802       1.25489672      -0.00497856       0.00296540      -0.00163762
O        2.62429543       5.81398527       9.65799602      -0.01011741       0.00032619       0.01470095
H        1.65049120       5.84955710       9.77256613      -0.00262822       0.00303903       0.01470545
H        2.94743003       6.72443060       9.57633024      -0.00506386       0.00833588       0.00800476
O        3.44032137       7.15872752       6.46175946      -0.00041141      -0.00277461      -0.00359210
H        2.68990640       6.54876540       6.39373000       0.00210160      -0.00159315      -0.00069405
H        3.53053798       7.38716014       7.40062456       0.00212978      -0.00137186      -0.00018129
O       -0.48308143       1.22787563      10.91284280       0.00498350       0.00015585      -0.00723554
H       -0.98705148       1.98103643      10.53283178       0.00828236       0.00183498      -0.00888504
H       -0.17785261       0.71144316      10.13342270       0.00162223      -0.00394502      -0.00628992
O        2.12577188       0.90577785       5.78149913      -0.00616498       0.00102136      -0.00959425
H        2.19528554       0.15887989       6.41212697      -0.00572011      -0.00336078      -0.01280436
H        1.90988619       0.50566042       4.92385200      -0.01076378       0.00718720      -0.00984579
O        9.39281009      10.50703904       1.55202324       0.00318807      -0.00196227      -0.00647708
H        9.33243655       9.76366409       2.20089453       0.00641768      -0.00586771      -0.01019955
H        8.46731522      10.70480867       1.31401430       0.00285934      -0.00350895      -0.00264173
O        2.55197697       8.43025737       2.01327043      -0.01931481       0.00712658       0.00676377
H        3.43801771       8.30252240       1.61079860      -0.01463187       0.01503897       0.01470979
H        2.42415701       7.57317499       2.46196070      -0.01586179       0.00363808       0.00457684
O        7.52116380       2.19552128      11.26684459       0.00139050       0.00723974       0.00155184
H        6.62974091       1.98136526      10.94435768       0.00295089       0.00087155       0.00465673
H        7.49444031       2.13162953      12.23314740       0.00516799       0.00398658       0.00304666
O       10.41264181       6.53774974       5.01407270       0.00308503      -0.00275221      -0.00063146
H       10.02719958       7.14832364       4.35408304       0.00806023      -0.00359930      -0.00397550
H       11.03549939       7.09529905       5.51835989      -0.00128684      -0.00271668       0.00692295
O        1.91874858       4.88990851       5.76700532       0.00122172      -0.00364125       0.00364865
H        1.08800546       4.42671208       5.92001027       0.00489289      -0.00401574       0.00055812
H        2.56487149       4.48956334       6.39310632       0.00201388      -0.00113076       0.00803982
O        4.64268535       4.64946302       0.30301794      -0.00360537       0.01312138       0.00021457
H        3.79601386       4.65415642      -0.17085202      -0.00217991       0.02566380      -0.00769638
H        4.47907326       4.04548470       1.04653844      -0.01461756       0.01178853      -0.00648395
O        9.90997023       7.81977719       8.53315312      -0.01355901       0.00085792       0.02378125
H        9.50928924       8.59138700       8.95296284      -0.01085748      -0.00819477       0.01565607
H       10.54252331       8.15607054       7.85873922      -0.00421546      -0.00323711       0.02010095
O        1.10425960      10.47606570       3.47029433      -0.03451701      -0.00357765      -0.00642563
H        1.75398969       9.85571817       3.07725386      -0.03208962      -0.01463130       0.00317945
H        0.52370982       9.92962518       4.01862395      -0.04570386       0.01391640      -0.01192336
O        3.65846297       3.27618959       2.70293678      -0.00340314       0.00659081      -0.00200407
H        4.11975135       2.91944860       3.48506150      -0.00050637       0.00410149      -0.00444259
H        3.41233029       4.20196775       2.92273123      -0.00182621       0.00640950       0.00129724
O        6.50137501       3.37308463       6.47089642       0.00315578      -0.00562778      -0.00635862
H        6.46079161       3.77661310       7.36309600      -0.00200363      -0.00734814      -0.00525611
H        7.20658782       2.67941801       6.57491250       0.00660663      -0.00173890      -0.00596388
O        7.57374275       6.53561020       2.19864879      -0.00121732      -0.00177489      -0.00953513
H        7.43219856       5.85571425       2.87881454      -0.00314190      -0.00013811      -0.01049538
H        8.01588889       7.26576802       2.66238690       0.00256714      -0.00192650      -0.00854417
O        1.26241161       2.66246749       8.55107166      -0.00050613      -0.00303484       0.00646196
H        2.12957569       2.83090035       8.14104413       0.00043682       0.00002259       0.00928284
H        1.11629752       1.68319385       8.57042695      -0.00109401      -0.00361247      -0.00005487
O        6.23223156      10.97979602       5.63558379       0.00752043       0.00216381       0.00051909
H        6.01119531      10.88570993       6.58472496       0.00812650       0.00074757       0.00066402
H        5.68746677      11.74229084       5.35313359       0.00218986      -0.00121373      -0.00032498
O        0.25419895       8.55863274       6.48414115      -0.00529820      -0.01474338       0.02409736
H        1.07599133       9.01915340       6.77612544      -0.00062862      -0.01736012       0.01374542
H       -0.34194612       9.25822782       6.12747195       0.00233000      -0.01443578       0.01224908
O        6.55511999       8.10970363       8.44473372       0.00717194      -0.00928416      -0.00360447
H        6.92260237       8.02928789       7.56037595       0.00530788      -0.01459202       0.01556838
H        7.03754440       8.85767670       8.89761465       0.00811471      -0.00750922       0.00438667
O       10.29505162       3.96926362       4.25947651       0.00069732      -0.00040232      -0.00394110
H       10.51565047       4.90990783       4.44343587       0.00154049      -0.00090143      -0.00316547
H       10.47773314       3.45632873       5.07840309       0.00102851      -0.00010847      -0.00300339
O        2.15787080       0.65562322       1.04312912       0.00821632      -0.00041234       0.01389152
H        2.36082507       1.48812105       0.51870718       0.00859170      -0.00083700       0.01148517
H        2.72924844      -0.04009645       0.66228430       0.00403484      -0.00201113       0.01191982
O        4.96793518       7.33839768       0.99525324      -0.01318040       0.01234654       0.01325180
H        5.77221712       7.28374502       1.53279766      -0.00699152       0.01528926       0.00193805
H        4.78620675       6.40208901       0.76795453      -0.00957017       0.01121220       0.01024783
O        4.18103113      10.44922008      -0.08488474       0.00418720      -0.00305323       0.00250372
H        4.45648622      11.24760878      -0.58422059       0.00122428      -0.00300202       0.00225442
H        4.11161830       9.72994872      -0.73662254       0.00450752      -0.00414802       0.00126213
O        7.45934865       1.89992408       2.96802550      -0.00141090       0.00365164      -0.00369079
H        6.67463250       1.42808547       3.26544220      -0.01008980      -0.00001941      -0.00455786
H        7.38075307       2.79929847       3.35471178      -0.00311472      -0.00127044      -0.00478886
O        6.16477903       9.01748243       3.63588709      -0.00161142       0.00657412      -0.00226249
H        5.78501176       8.17059765       3.93566336       0.00473982       0.00528905       0.00118534
H        6.02165189       9.65386166       4.36134220       0.00618150       0.00394933       0.00204625
O        4.68402520       1.93765525       5.02689539       0.00145845      -0.00224020      -0.00485206
H        3.81857897       1.69043524       5.41113951       0.00020878       0.00059745      -0.00604728
H        5.15374484       2.51898237       5.66574453       0.00285948      -0.00285664      -0.00460283
O        6.09665741       4.32464175       9.02348232      -0.00639089      -0.00810613      -0.00460403
H        5.70690357       3.92677720       9.81617794      -0.00055793      -0.01352852      -0.00441012
H        6.66459085       5.03550262       9.40297492      -0.00652292      -0.00786194      -0.00335563
O        0.52681349       9.77342911       0.70957195       0.02559268       0.01882225      -0.02367926
H       -0.25878115       9.22057823       0.64955366      -0.01398997       0.01224157      -0.03562181
H        1.24874370       9.19829550       1.05320721      -0.01131152       0.01387444      -0.01736597
O        7.56667730       6.28009940      10.24295238      -0.00292926      -0.01906003       0.00290889
H        7.20858313       6.97389957       9.65659085      -0.00165275      -0.00942523       0.00626603
H        7.14444579       6.42747684      11.09825114       0.00723431      -0.02268966       0.00255436
O        3.91868541       8.40761959       9.00809013       0.00382644       0.00015660      -0.00499871
H        3.60028397       9.10903770       8.40885543       0.00812260      -0.00294076      -0.00779770
H        4.87997559       8.32541924       8.81884286       0.00548141      -0.00351075      -0.00200569
O        2.63665984       2.76437451      -0.39491724      -0.00040263      -0.00249895       0.00808139
H        3.46523522       2.43920547      -0.80147260      -0.00016794       0.00123969       0.00585270
H        1.99764840       2.81497807      -1.13409237      -0.00247393      -0.00704046       0.00918484
O       11.04169857       2.42977212       6.33824323       0.00774691       0.00447564      -0.00134234
H       11.74434857       1.82144672       6.03516985       0.00907111       0.00544216      -0.00011550
H       11.37985039       2.70407566       7.21701522       0.00309358       0.00232772       0.00100718
O        7.51612794       4.41343111       4.21670755      -0.00033794       0.00059330      -0.00620861
H        8.49050122       4.32608610       4.28674766      -0.00008268       0.00111855      -0.00591609
H        7.17745819       4.13805022       5.10611858      -0.00034998      -0.00077124      -0.00617810
O        5.24913556       6.58665856       4.62580022       0.00270647       0.00683841      -0.00246996
H        5.92597670       5.91925806       4.78665044       0.00327491       0.00254573      -0.00452214
H        4.72096535       6.71994450       5.45167005       0.00285726       0.00309252      -0.00339834
