147
Lattice="12.682287482477662 0.0 0.0 0.0 12.682287482477662 0.0 0.0 0.0 12.682287482477662" Properties=species:S:1:pos:R:3:forces:R:3 energy=-429584.40625 stress="-0.00010459529585205019 0.00027125868655275553 -0.00011629920845734887 0.00027125868655275553 -0.0003743313136510551 -6.350539115373977e-05 -0.00011629920845734887 -6.350539115373977e-05 -0.00039240787737071514" pbc="T T T"
Ho      14.53063639      12.42990867       2.28779568       0.01660162       0.01915255      -0.01442721
F        2.34594902      14.35066253       2.72890726      -0.00035708       0.02622300      -0.03265883
F        0.78847656      12.24429468       0.57047666       0.03877878      -0.01955014      -0.02217180
F        0.92654810      11.45035712       3.79829677       0.02176936       0.03111786      -0.00159946
O        3.92049478      11.84326907       8.92014671       0.01083813       0.00216907      -0.00505653
C        5.01352990       9.88826568       9.71664249       0.00334960      -0.00149250      -0.00569930
C        3.50026817       9.72007917       9.85039423       0.00268024       0.00493717      -0.00190890
C        5.14320670      11.39410400       9.52282212       0.00731713      -0.00164878      -0.00231797
C        2.99268166      10.75296049       8.85373852       0.00431878       0.00696570      -0.00215942
H        5.56465431       9.54759707      10.59029260       0.00332664      -0.00332611      -0.00465497
H        5.38874651       9.35817633       8.83852586      -0.00081817      -0.00280894      -0.00406235
H        3.15099943       8.71115355       9.62477182      -0.00161787       0.00597785      -0.00123253
H        3.18332167       9.97584426      10.86500243       0.00519638       0.00605868      -0.00190446
H        5.26393826      11.90622793      10.48402951       0.01076730      -0.00267583      -0.00600040
H        5.98196484      11.66563660       8.87992619       0.01067272      -0.00486235      -0.00631657
H        2.98206421      10.34954800       7.83346554       0.00256318       0.00447163      -0.00344151
H        1.99820428      11.13861326       9.08829413       0.00786865       0.01048182      -0.00611058
O        3.84419448       4.32284905      11.37538039       0.00299984      -0.00030589      -0.00515749
C        5.90932867       5.46289993      11.60486035       0.00073057       0.00473991      -0.00081354
C        4.82914964       6.44936553      11.16557473      -0.00162180       0.00091028      -0.00203389
C        5.25911950       4.12813975      11.25561385       0.00295556       0.00203645      -0.00073199
C        3.57233270       5.70935057      11.59551216      -0.00330049      -0.00050730      -0.00507466
H        6.86574763       5.60962157      11.10458497      -0.00090480       0.00619242       0.00035825
H        6.07922581       5.54391829      12.68109904      -0.00105023       0.00515162      -0.00033090
H        4.92089679       7.43367771      11.62274648      -0.00487959       0.00246346      -0.00090501
H        4.84849679       6.57393709      10.07924097      -0.00164105       0.00186176      -0.00098246
H        5.48473433       3.84288906      10.22038083       0.00673684       0.00105031       0.00121039
H        5.56297582       3.30668797      11.91030366       0.00282348       0.00425136       0.00204349
H        3.36930835       5.88025584      12.66202320      -0.00097884      -0.00337644      -0.00180125
H        2.67848239       5.97933387      11.02947250       0.00143513      -0.00238471      -0.00221163
O       10.59016024       8.90779637      10.01844983       0.00193268      -0.00587180      -0.01137489
C       11.33495760      11.05547432      10.69273517      -0.00751293      -0.00686699       0.00625004
C       11.89831962      10.00100797      11.64249479      -0.01364806      -0.01333764      -0.00427639
C       10.19886747      10.29186423      10.01952139       0.00574702      -0.00667500      -0.01839769
C       11.78386940       8.75059965      10.78885109       0.00675374      -0.00926638      -0.01338896
H       11.00079809      11.95793746      11.20256468      -0.00093450      -0.01387002      -0.00088705
H       12.09725919      11.34317414       9.96376499      -0.00065228      -0.00543041      -0.00606638
H       12.91018336      10.22284601      11.97203235       0.00618476      -0.00930592      -0.00328577
H       11.26794160       9.92081731      12.53129597       0.00235182      -0.01546748      -0.01143426
H        9.26565899      10.39303014      10.58606871      -0.00615513      -0.01450724       0.00640914
H       10.00053360      10.60565548       8.99334846      -0.00672830      -0.00512607       0.00760585
H       12.64860994       8.66341941      10.11398041       0.00073937      -0.00560764      -0.00848699
H       11.70329834       7.82461681      11.36259621       0.00163753      -0.01106954      -0.01380283
O        7.49451559       7.87809420       6.48522262      -0.00577965       0.00093064       0.00019702
C        9.42933824       6.68464345       5.84536047      -0.00278181       0.00510651       0.00192651
C        8.32367376       5.68504091       6.17640918       0.00023267       0.00317371       0.00397377
C        8.93122539       7.92711187       6.56856053      -0.00561047       0.00658190      -0.00209033
C        7.08572525       6.56245623       6.09593431      -0.00204790       0.00010079       0.00017865
H       10.41582461       6.37379792       6.19043713      -0.00169116       0.00862456       0.00277011
H        9.48440580       6.86985589       4.77021285      -0.00239480       0.00349326       0.00169811
H        8.26342532       4.83901020       5.49394192       0.00274144       0.00153336       0.00449330
H        8.44721700       5.29483586       7.18934042       0.00047453       0.00539387       0.00377482
H        9.23125086       7.92185306       7.62322137      -0.00513534       0.00920302      -0.00073719
H        9.27128805       8.85879003       6.11304857      -0.00890179       0.00447482      -0.00367355
H        6.70450705       6.59405403       5.06594737      -0.00065729      -0.00235666       0.00070632
H        6.27724587       6.22426919       6.74806352      -0.00234857      -0.00140803       0.00039250
O        5.03751607      10.47075453       0.35830212      -0.01032020       0.00165144       0.00298809
C        4.59968283      11.90949741       2.15979821       0.02656695      -0.01835436       0.00484121
C        4.00275905      10.52535014       2.47473048       0.00066742      -0.00163636       0.02497119
C        4.70951595      11.83365051       0.64128559      -0.02652937      -0.00579949       0.01419598
C        4.86907503       9.68303343       1.54701372      -0.02416554      -0.00953057      -0.00769621
H        4.10143796      12.81925359       2.51687827       0.01023187       0.00311926       0.02698714
H        5.59202987      11.95509183       2.61443595       0.00447294      -0.01756619      -0.00071879
H        4.03213313      10.22399491       3.52222090       0.00147841      -0.00251902      -0.00329933
H        2.96136144      10.39484710       2.12337819      -0.00987612       0.00974426       0.01383692
H        3.74455801      12.08194978       0.16118920      -0.00318688       0.00356406       0.02058042
H        5.47069279      12.49083260       0.21985770       0.00046945       0.00508541      -0.00079460
H        5.84637610       9.49096595       2.00488629      -0.00824896      -0.00687660       0.00253157
H        4.41622412       8.73002137       1.27168790      -0.01354674       0.00438648       0.00085730
O        3.21231598       9.18863047       5.52082469      -0.00506780       0.00485855      -0.00687282
C        3.03738747       6.93204037       6.19069058      -0.00144251       0.00461113      -0.00748400
C        1.66392249       7.59080307       6.31882078      -0.00282329       0.00261232      -0.00479287
C        3.94467593       8.15284899       6.18946113      -0.00343062       0.00439441      -0.00952567
C        1.82532070       8.81282162       5.42531203      -0.00473438       0.00389299      -0.00373325
H        3.26882119       6.24075149       7.00059171       0.00133072       0.00523013      -0.00628307
H        3.11544142       6.38944174       5.24519590      -0.00551564       0.00298642      -0.00574240
H        0.83771988       6.95256841       6.00679769      -0.00150138       0.00419529       0.00217818
H        1.48698232       7.89119928       7.35538775       0.00215778       0.00710571      -0.00198281
H        4.16058110       8.46805774       7.21797264       0.00515793       0.00406219      -0.01428670
H        4.89609560       8.01585821       5.67750131      -0.00341803       0.00290813      -0.01818466
H        1.59619644       8.56881223       4.38081740      -0.00517090      -0.00085589      -0.00584060
H        1.21255558       9.66887657       5.70622160      -0.00475726       0.00154632      -0.00720707
O        8.71440257       0.21243734       8.43011121      -0.00399397       0.00656402       0.00319262
C        9.73957834       2.28891758       8.87166639       0.00115854       0.00196427       0.00833255
C        8.31461337       2.53964028       8.38479966       0.00224911       0.00725758       0.01046613
C        9.97932043       0.88066133       8.34891819      -0.00329752       0.00524104       0.00485961
C        7.67363721       1.18207447       8.62315601       0.00060684       0.01001257       0.00610574
H       10.46978807       3.00655257       8.49780966       0.00390212       0.00228329       0.01061390
H        9.77891065       2.30137500       9.96404544       0.00123715       0.00056457       0.00918642
H        7.79648529       3.34520514       8.90348829       0.00470778       0.00805086       0.01067226
H        8.30265819       2.77493810       7.31928745       0.00345198       0.01046148       0.00872523
H       10.30622880       0.90450351       7.30207527      -0.00088735       0.00503556       0.00655180
H       10.71460204       0.31678133       8.92272105      -0.00329322      -0.00060546       0.00598997
H        7.29296426       1.09589863       9.64913906      -0.00124460       0.00761472       0.00591546
H        6.85501645       0.96400317       7.93433322      -0.00264537       0.01281711       0.00508332
O        9.25958405       5.95321510       1.17161503      -0.00606105      -0.00614509       0.00270827
C       10.12017027       3.75612101       1.21690353       0.00600477      -0.00039345      -0.02350110
C       11.22585227       4.71114216       0.77237907      -0.03179342       0.01204813      -0.01375157
C        8.88332050       4.59381870       0.93376285       0.00883797      -0.00507295      -0.00141213
C       10.68922087       6.03339638       1.29948657      -0.00243944      -0.00606626      -0.00744161
H       10.11675773       2.79881892       0.69801709       0.00480616       0.00276409      -0.01388861
H       10.21076167       3.54760829       2.28304224       0.00482053      -0.01062298      -0.00312638
H       12.20737697       4.46340902       1.17237693       0.01748560       0.00082358       0.00011201
H       11.29448760       4.72771448      -0.31870992      -0.00064573       0.00830656      -0.00312579
H        8.57191578       4.48360365      -0.11354598      -0.00175449      -0.00193810      -0.00683683
H        8.02913571       4.34961402       1.57134968      -0.00110799      -0.01396007      -0.00296819
H       10.94414170       6.17398533       2.35559484      -0.00295638      -0.00090494       0.00329971
H       11.03441681       6.91184769       0.75207405      -0.01091452       0.00291455       0.00110501
O       10.84152215       1.55641376       3.68440168      -0.01425190      -0.00045004      -0.00184405
C       10.64121205       3.30920532       5.24414121       0.00638330       0.00023311      -0.00332056
C       12.06749363       2.76917951       5.31154616       0.00151750      -0.01185463      -0.00101036
C        9.90860124       2.14760562       4.58742732      -0.00749631       0.00475049       0.00483477
C       12.17045145       2.00471307       3.99584374      -0.00851846      -0.01937611      -0.00106969
H       10.22755556       3.57621531       6.21463839       0.00923110       0.00508192       0.00266057
H       10.59831661       4.19625096       4.60615191       0.01078000      -0.00334215      -0.00139612
H       12.82558468       3.54645465       5.40270289       0.00670409      -0.02033702      -0.00630883
H       12.17550471       2.08855245       6.15994623      -0.00301197      -0.01100889       0.00000724
H        9.59648748       1.40336768       5.33234118      -0.00698599       0.00563505       0.00667840
H        9.02279147       2.44906322       4.02113311      -0.00672290       0.00930957       0.00902787
H       12.53273406       2.64979967       3.18823455       0.00062782      -0.02720696      -0.00144771
H       12.82432318       1.13295402       4.06936300      -0.02321935      -0.02845871       0.00240491
O        5.83746995       3.33848861       6.42786255      -0.00300355       0.00132710       0.00761740
C        3.97811201       1.86049613       6.43679060       0.00310647      -0.00367510       0.00610201
C        4.54079675       1.96032071       5.02033714       0.00444406      -0.00833093       0.00580472
C        4.58937164       3.08784484       7.09863406      -0.00537530      -0.00190273       0.00253250
C        5.94435551       2.47757010       5.28881993      -0.00146243       0.00095731       0.00943184
H        2.88945780       1.87311249       6.46864191      -0.00030074      -0.00825937       0.00436374
H        4.31213664       0.94492533       6.92939793       0.00286661      -0.00293863       0.00660174
H        4.54312762       1.00607657       4.49733091       0.00839515      -0.00392090       0.00941785
H        3.96605022       2.66480265       4.41838595      -0.00001006      -0.00716719       0.00215882
H        3.94899963       3.96830477       6.97574110      -0.00589076      -0.00451341       0.00437163
H        4.78194089       2.95058036       8.16500726      -0.00493047      -0.00132390       0.00762028
H        6.63033163       1.64961468       5.51986570       0.00388938       0.00490230       0.00757955
H        6.36680980       3.05304100       4.46100733      -0.00066164       0.00475147       0.00666505
O        9.96530749       8.59467172       3.01582037      -0.00048673       0.00994930       0.02715258
C       10.09308574      10.91635136       2.52648125       0.00505598       0.00171250      -0.00415584
C        8.88573165      10.30355251       1.81361957       0.01047488      -0.00703040       0.00171995
C       10.90327254       9.68032243       2.90373089      -0.00372989       0.00784826       0.01289558
C        8.66163532       9.04102490       2.63362401       0.00168626       0.00724673       0.01145771
H       10.66463263      11.61402073       1.91566674      -0.00106034       0.00097051       0.00567636
H        9.77365969      11.45290625       3.42217985      -0.00429088       0.00619387       0.00631043
H        8.01463163      10.95943290       1.79903559       0.00136742      -0.00078849      -0.00799229
H        9.12891825      10.04691081       0.77956590       0.01177558      -0.00789592       0.00631270
H       11.63228833       9.42769913       2.12454715      -0.00483644      -0.00368826       0.00003383
H       11.44550946       9.79398423       3.84338700       0.01032588       0.01113612       0.00088984
H        8.07165456       9.26020609       3.53658318      -0.00763142       0.00743832       0.00047261
H        8.17999925       8.22951500       2.08525305       0.00783934      -0.00352731       0.00903231
