144
Lattice="12.632490173367486 0.0 0.0 0.0 12.632490173367486 0.0 0.0 0.0 12.632490173367486" Properties=species:S:1:pos:R:3:forces:R:3 energy=-696599.9375 stress="-0.0016466815723106265 -0.0006095589196775109 0.00075021997326985 -0.0006095589196775109 -0.0007308729691430926 7.18604278517887e-05 0.00075021997326985 7.18604278517887e-05 -0.0017907822038978338" pbc="T T T"
Ho      12.02051932      12.32542098       0.25440555       0.00979960      -0.02703077      -0.00574903
Br       9.06069277      11.84870783       7.76084497       0.00093305       0.00291061      -0.00070769
Br      11.52600491      10.90398981      -1.83111089       0.02984745      -0.02165651      -0.01231128
Br       4.08845420      13.97443449       2.88137551       0.00239110       0.01043528      -0.01567768
O       10.74943959       6.63428591       1.05779343       0.00796548      -0.00447381       0.01523842
O       12.71692289       7.65352151       1.21448669       0.00158566       0.00939518       0.00153335
O       12.64026713       5.42209958       0.94363862       0.01467329       0.01019508       0.00904346
C       10.42222492       8.03731242       1.10825069      -0.00171196      -0.00703288       0.01391321
C       11.75135723       8.69667207       1.46723775      -0.00353739       0.00384721       0.00140899
C       12.08322547       6.47361383       1.06280419       0.01028180       0.00239778       0.00826139
H        9.64916307       8.17441604       1.85625657       0.00360692      -0.01023721       0.01979584
H       10.04445469       8.34204689       0.13339859      -0.01146527      -0.01334521       0.01608503
H       11.99248528       9.52526743       0.79708365      -0.01360967       0.00066066      -0.00642759
H       11.83968536       9.00284476       2.50727996       0.00068500       0.01096641      -0.00122327
O        9.69273964       1.96768615       4.05553811       0.01978764       0.00698209      -0.00278534
O       11.43632289       3.35025332       4.02227129       0.01640472       0.01031359      -0.02088150
O       10.94257907       2.24731029       5.92099678       0.03092930       0.01784119      -0.01276243
C        9.85991213       2.37486670       2.68317543       0.00936124      -0.00053152      -0.00594418
C       10.69691213       3.62197691       2.80761799       0.01060513      -0.00008893      -0.01946358
C       10.70794032       2.48793672       4.77832227       0.02351043       0.01250599      -0.01258731
H        8.89106157       2.52878290       2.22345174       0.00538546      -0.00182562       0.00198859
H       10.38604404       1.57465866       2.15859963       0.00320992      -0.00402331      -0.00633694
H       11.39916305       3.78641423       1.99695617       0.00669888      -0.00492903      -0.02319908
H       10.08502461       4.51415334       2.96039278       0.01226860       0.00138187      -0.02440450
O        8.42780802      10.49681931       1.40980328      -0.01164198       0.00168723      -0.00471286
O        8.15674512      12.64926172       1.81907797      -0.00320698       0.00386822      -0.01108014
O       10.18573289      11.85704587       1.34242029      -0.00992593      -0.00198381      -0.02540561
C        6.98472826      10.66718869       1.54609278      -0.00959277       0.00500816       0.00763808
C        6.84916063      12.06308965       2.13142693      -0.00283349       0.00932930      -0.00116730
C        8.98381608      11.68578702       1.52563043      -0.00723018       0.00139444      -0.01484247
H        6.62062049       9.86632156       2.18360106      -0.00625203       0.01015687       0.01589340
H        6.56716212      10.59451566       0.54580049      -0.01844247      -0.00103489       0.01221958
H        6.07421279      12.68093628       1.68376027      -0.00292423       0.00817347      -0.00251839
H        6.73361574      12.09678493       3.21100748       0.00170541       0.01831047      -0.00114012
O        7.42113772       5.30080128       3.21916102      -0.00849864      -0.00922453      -0.01013565
O        5.26855786       5.52438242       3.69678577       0.00147764       0.00236604       0.02624719
O        6.39466960       7.25650646       2.81161800      -0.00275438      -0.00016654       0.01347148
C        6.97866363       3.97108953       3.60598962      -0.00708678      -0.00706550      -0.00231589
C        5.62526460       4.22378902       4.23519161      -0.00088817      -0.00429334       0.01049209
C        6.36060479       6.11880226       3.21190547      -0.00310231      -0.00544226       0.01150855
H        7.71133958       3.55490217       4.29125622      -0.00117776      -0.00592248      -0.00789168
H        6.89703180       3.36803292       2.70129833      -0.01605171      -0.01011258       0.00076288
H        4.87679199       3.49048305       3.92085122      -0.00665653       0.00258121       0.00879166
H        5.67457863       4.31811457       5.31924932       0.00727354      -0.01535235       0.01089168
O       11.07624117       2.33304337       9.96035609       0.01148409       0.00794517      -0.00949434
O        9.19961898       1.78109232      10.97714736       0.02785766      -0.03341407      -0.00324637
O       11.15269475       1.53156912      12.03916086       0.03847613      -0.01838645      -0.02017104
C       10.05804363       2.39953346       8.90226006       0.00196623       0.00310111      -0.00094783
C        8.76557215       2.33686316       9.69112750       0.01028436      -0.01961493       0.00934458
C       10.50358255       1.86719556      11.04018561       0.02706768      -0.01540285      -0.01153359
H       10.19310186       1.52985011       8.25698194       0.00647852       0.00981718      -0.00873986
H       10.20897705       3.32569340       8.35900038      -0.01497800       0.00884783       0.00477348
H        8.32270204       3.31132141       9.89443006       0.00400370      -0.02695110       0.02847300
H        8.06010183       1.63131384       9.25808906       0.01302841      -0.01945156       0.00489506
O        9.57612727       4.91911623       5.99493477       0.00327352       0.00106016      -0.00062769
O        9.35642525       6.88542999       7.00600147       0.00307208       0.00150156      -0.00200673
O        7.52115656       5.71283457       6.44519628       0.00194204       0.00517713      -0.00978931
C       10.93100367       5.36518493       6.19620654       0.00324029      -0.00088131       0.00418347
C       10.77102946       6.76527324       6.78628666       0.00235569       0.00251561      -0.00381517
C        8.71143264       5.82169798       6.48620539       0.00498897       0.00279151      -0.00488203
H       11.42877014       5.35595839       5.23343706       0.00770651      -0.00751641       0.00667068
H       11.42537468       4.65189344       6.85266713      -0.00132340       0.00182843       0.01012921
H       11.27273815       6.87891294       7.74290781       0.00419591       0.00813341      -0.00538659
H       11.07843400       7.56218911       6.11255701       0.00090396      -0.00108740      -0.00860173
O        3.22612382       7.43935254       3.72354921      -0.01782684       0.00357682      -0.02391987
O        1.18817782       8.30246878       3.94982943      -0.01683044      -0.00398557       0.01373080
O        2.92830213       9.64627970       3.45393369      -0.03845459      -0.00784433      -0.02178915
C        2.35631056       6.29507143       3.81690082      -0.01111832       0.00032550      -0.00388576
C        1.04394845       6.91301082       4.28276730      -0.00581694      -0.00464011       0.01261088
C        2.48382112       8.56505083       3.69995539      -0.02020469       0.00955868      -0.01444963
H        2.77747856       5.58965992       4.52735762       0.00358376       0.00644472      -0.00898230
H        2.28876869       5.83085379       2.83276243      -0.02363702      -0.00492872       0.00067991
H        0.17805658       6.52005487       3.75322536      -0.00986871      -0.00473446       0.02218547
H        0.90555144       6.83945683       5.36174141       0.00722710      -0.00615961       0.01293284
O        4.85596110      10.64415611       9.11470656       0.00489265      -0.02006899       0.00656235
O        5.79233304      11.18942054      11.05425764       0.00741002       0.00332873      -0.00174105
O        3.59214442      11.54738409      10.73910629       0.00328135      -0.01411334       0.00222331
C        6.22146494      10.16850902       9.00512773       0.00996194      -0.00382671       0.00134835
C        6.90638964      10.78532859      10.20858954       0.00785798       0.00353389      -0.00064161
C        4.64830287      11.16038863      10.32385658       0.00723833      -0.01121953       0.00196186
H        6.64941099      10.52925680       8.07413265       0.00185283       0.00220357       0.00019580
H        6.20191289       9.07865293       9.03028538       0.02369472      -0.00372404       0.00012517
H        7.53180966      10.08779648      10.76179286       0.01043834       0.00776431       0.00171591
H        7.49685772      11.65817919       9.93264358       0.00510898       0.00403407      -0.00406426
O        3.52529489      10.89285391       0.93879027       0.01507527       0.00140116      -0.00451507
O        1.78020371       9.73533804       0.24461106       0.00089252       0.01154022       0.01536520
O        1.53173713      11.89382130       0.67427381       0.01794675       0.01197387       0.01241507
C        4.04406285       9.55467956       0.73452548       0.00350732      -0.00307351      -0.00362808
C        2.81907717       8.73133252       0.34386429      -0.00095928       0.00794721      -0.01251101
C        2.26240887      10.90512446       0.62400917       0.01146404       0.00957468       0.00916059
H        4.48421756       9.23232260       1.67334057      -0.00456953      -0.00855962      -0.00203127
H        4.77991818       9.62340343      -0.06136966       0.00832561      -0.00879286       0.00067717
H        2.90076099       8.23524937      -0.62022329      -0.00794966       0.02956405      -0.02363017
H        2.51461484       8.01312949       1.09804417       0.00362569      -0.00785238      -0.02648607
O        3.94995805       3.03224531      12.13251667      -0.01863295       0.01896772      -0.00062847
O        3.88489933       4.02522552      10.14375125       0.00236131      -0.00192810      -0.01021600
O        3.05130890       5.08832613      11.94594308      -0.00211239       0.02179956      -0.02892065
C        4.75124494       2.19892019      11.27474767      -0.01640517       0.00538006       0.01485133
C        4.37682596       2.69718846       9.88407665      -0.00248298      -0.00653854       0.00690174
C        3.57515902       4.12924132      11.46308207      -0.00679231       0.01562923      -0.01381758
H        4.48998852       1.15989555      11.45813262      -0.02358310       0.00900757       0.02268708
H        5.80166495       2.37577685      11.51794674      -0.01831841       0.00118843       0.02452128
H        5.21715240       2.77516392       9.19758976       0.00252700      -0.01768806       0.01226108
H        3.57924777       2.10927155       9.42827981      -0.00205350      -0.00696430       0.00652793
O        3.23586015       7.96590845       6.81274217      -0.00013298      -0.01515353      -0.00655190
O        4.82653652       9.46838986       6.37385993      -0.00887275      -0.00598167      -0.00662095
O        2.69029882      10.15255551       6.67120421      -0.01760209      -0.01373267      -0.00756361
C        4.46701010       7.23052636       6.86200158       0.00417769      -0.00745776      -0.00586900
C        5.46562873       8.18883027       6.22889470      -0.00241733      -0.00255162      -0.00713447
C        3.50680255       9.29543898       6.62594797      -0.00178397      -0.01998097      -0.00698832
H        4.34942621       6.30967121       6.29671440       0.00976096      -0.00808918      -0.00633234
H        4.69943999       6.99585998       7.90187332       0.00604410      -0.00528359      -0.00577283
H        6.42167381       8.20578255       6.74699599      -0.00161418       0.00278066      -0.00851095
H        5.60866916       7.99103321       5.16624742      -0.00221599      -0.00230337      -0.00713980
O        9.69151527       5.67708168       9.77325549       0.00119302      -0.01086050       0.00142542
O        9.92793904       7.83999095      10.23893687      -0.01668246      -0.01058058       0.00735064
O        7.92596314       7.06415094       9.56954282      -0.01038492      -0.02505767       0.00412929
C       10.99260145       5.78479007      10.39389857      -0.00158198      -0.00209367       0.00527810
C       11.24956461       7.28807966      10.38679429      -0.01239353      -0.00090939       0.00573492
C        9.07492194       6.88015333       9.83670921      -0.00753301      -0.01646576       0.00426222
H       11.70575744       5.21461077       9.80192039       0.00408968       0.00260371       0.00819591
H       10.92472987       5.37014053      11.39906091      -0.00219230      -0.00231141       0.00514776
H       11.68908538       7.66688350      11.30514973      -0.01424158       0.00210378       0.00509745
H       11.86291867       7.62970745       9.55231562      -0.01600966       0.00402696       0.00531670
O        9.04333735      10.96852169       4.26980485      -0.01351205       0.02222582      -0.00037225
O       10.09278469       9.02039162       4.49571806      -0.01223260       0.02342442       0.00058860
O       11.27274210      10.86051926       3.94064062      -0.02045512       0.01765519      -0.02112570
C        8.07659843      10.05580044       4.84645388      -0.00956067       0.02597368       0.01244050
C        8.67672523       8.71710704       4.49448573      -0.01236641       0.02424145       0.01494296
C       10.23375743      10.34600370       4.22872185      -0.01083654       0.02302656      -0.00903259
H        7.10349227      10.23739599       4.39933598      -0.01279807       0.02408297       0.01923788
H        8.05679479      10.25476834       5.92098410      -0.00079687       0.03226088       0.01133651
H        8.48040377       7.94419695       5.22597751      -0.00556318       0.02819803       0.02039352
H        8.39262720       8.36395243       3.50334408      -0.02006336       0.02029005       0.01865000
O        8.14400550       6.51724543      12.47505860       0.00687525      -0.01245001       0.00689450
O        6.49870722       5.03927627      12.69119703       0.00128174      -0.00919108      -0.01875810
O        8.63449998       4.35712811      12.88544871      -0.00252807      -0.01810801      -0.02433012
C        6.93853823       7.30206241      12.38242522       0.01099098      -0.00619262       0.01324986
C        5.84872275       6.24911945      12.24263675       0.00505328       0.00077114       0.00386146
C        7.83158189       5.22609994      12.70556925       0.00258917      -0.01541775      -0.01269430
H        7.02534633       7.93706799      11.50513182       0.01408701       0.00079617       0.01864988
H        6.84427625       7.87770971      13.29922058       0.01394967      -0.01324548       0.01763922
H        4.98008059       6.41503018      12.87289772       0.01029670      -0.00408161       0.01211321
H        5.53441532       6.09977706      11.21012205      -0.00249467       0.01798859       0.00433689
