148
Lattice="11.676355385652963 0.0 0.0 0.0 11.676355385652963 0.0 0.0 0.0 11.676355385652963" Properties=species:S:1:pos:R:3:forces:R:3 energy=-76461.0078125 stress="0.0007078996277414262 9.937199820342357e-06 8.373684249818325e-05 9.937199820342357e-06 5.0373022531857714e-05 -0.00027240189956501126 8.373684249818325e-05 -0.00027240189956501126 0.0006109110545367002" pbc="T T T"
K       12.07440612      10.64872466      -0.88492556       0.02733466      -0.01398992      -0.00360029
O       10.30335512       8.49463265      -0.12277730       0.00735196       0.01067543       0.00634891
N       11.03193033       9.31311914       2.01860456       0.00977173       0.01058334       0.03527659
C       10.66364146       8.88140966       0.97441209      -0.01358786      -0.01397856      -0.04219240
N        8.15667596       2.72016338       1.64359074      -0.00137050       0.00002133       0.00738999
H        8.88030031       2.31499249       1.06111195      -0.00353861       0.00017614       0.00468080
H        8.10061875       3.70869180       1.40067687      -0.00306545      -0.00009228       0.00702687
H        7.28324189       2.30614631       1.33890853      -0.00238506      -0.00079842       0.01131919
N        8.12012619       5.82048915      12.19879182      -0.00162818       0.00101385       0.00482261
H        7.75852743       6.76740780      12.15554638       0.00254297       0.00256705       0.00095832
H        7.90744902       5.37486959      11.30738401       0.00201454       0.00126511       0.00382495
H        9.13223899       5.91717597      12.18920338      -0.00111493      -0.00294894       0.01075430
N        3.01505002       5.97099670       1.80639308      -0.00072671       0.01134777      -0.00167688
H        3.74512412       6.01813336       1.09192658      -0.00445780       0.00620397      -0.00582810
H        3.39241117       6.41772823       2.63724528       0.01387065      -0.00560068       0.00057111
H        2.27736417       6.58591589       1.47824114       0.00793804       0.02805313       0.01069045
N        6.28418118       3.44135781       7.75257260      -0.00123966       0.00480302      -0.00777172
H        5.38666143       3.19537095       7.34059632      -0.00730057      -0.00280683       0.00969567
H        6.50997488       4.40405094       7.52262666      -0.00445610       0.00010063      -0.03093567
H        6.17161706       3.39270432       8.75780732       0.01350142       0.02698525      -0.00512405
N        2.92373716       8.78627535      -0.45984814      -0.00352535       0.00222441      -0.01289316
H        2.90574003       9.25187464       0.45887333       0.00270472       0.00296775      -0.01352523
H        3.65609474       9.23086108      -1.00365352      -0.01286490       0.00676750      -0.02173682
H        3.26576068       7.84302947      -0.29924074       0.00372044       0.00431834      -0.01561115
N        2.79376237       3.73369272      11.05606184      -0.00896326       0.00815907      -0.00347782
H        1.85781571       3.63715609      10.67729453      -0.00620703       0.02578563      -0.01478248
H        3.19007807       4.54675628      10.59721644       0.01072801       0.00266592       0.00398433
H        2.71948203       3.98003233      12.03836289      -0.01544404       0.00611119      -0.00352570
N        6.88752260       6.65616515       6.28931676      -0.01086465       0.00161523      -0.00160695
H        5.91120873       6.44140034       6.11655387      -0.01699881       0.02492956       0.00508794
H        7.24729645       7.01487025       5.40203677      -0.00917789       0.00293041      -0.00032397
H        6.88450103       7.43081004       6.94429241       0.01255317      -0.00597718       0.00732649
N        2.60793868       0.65025671      10.62225393       0.01838332       0.00297221       0.00229762
H        2.51225159       0.56579362       9.61030602       0.02618086      -0.01112513       0.00295475
H        3.37287534       0.04689434      10.90209638       0.03230976       0.02614529       0.01348432
H        2.91673819       1.60562185      10.80344444      -0.00655658       0.01274618      -0.00636671
N        0.76704374       9.95927123       5.12926616      -0.00450805       0.00582346      -0.01368400
H        0.40549753       9.68425979       4.22108021      -0.00062494       0.00991805      -0.01625176
H        0.56599482       9.17773978       5.74260738      -0.00536177       0.00225378      -0.01822867
H        1.77923438      10.02781356       5.05124380      -0.00439640       0.00791727      -0.00944623
N        5.03380049       6.22125501      10.94325369       0.00212502       0.00451028      -0.00818628
H        4.54554099       6.18632050      10.04187857       0.00472403       0.00072314      -0.00949793
H        5.59884941       5.38074784      11.00037386       0.00367299       0.00581463      -0.00341426
H        5.68689827       6.99457637      10.88104201       0.00118412       0.00540091      -0.00899125
N        0.24294298       4.50030640       8.86329347      -0.00646865       0.00306609       0.00512304
H        0.19641809       5.41120498       8.41840030      -0.00540794       0.00626424       0.01119263
H       -0.19940436       4.62373508       9.76993338      -0.00642072      -0.00140343       0.00585482
H       -0.35495432       3.88094914       8.32061764      -0.00762123       0.00718518       0.00166374
N        8.04811579      10.59167258       1.47566835      -0.00010738       0.00698450       0.01150151
H        8.21160690      10.78925993       0.49485079      -0.00833675       0.01262899       0.01104645
H        8.96205238      10.40091096       1.87980788       0.00224455       0.00262146       0.00267412
H        7.71086840      11.44955757       1.89595585       0.00501189       0.00519884       0.01952035
N        2.44344895      10.09352722       2.22838863      -0.00075200      -0.00649468      -0.00853351
H        2.62577257      11.06368141       2.47861005      -0.00080154      -0.00918576       0.00256318
H        2.78793103       9.54728160       3.01136502       0.00417110      -0.01665951      -0.01757721
H        1.43209097       9.96869692       2.23362079      -0.00004670      -0.00737009      -0.00511713
N        9.24236568       2.91846825       6.87260084       0.00540818      -0.00088575       0.00908309
H        8.25282575       2.76956799       7.08318003       0.00320316       0.00381871       0.00199051
H        9.61375753       2.04596186       6.49273161       0.00344359      -0.00269301       0.01124911
H        9.24101644       3.55885597       6.08647761       0.01444323      -0.00137033       0.00861398
N        1.80650097      -0.43520489       7.70316286       0.01300642      -0.02227172      -0.00170878
H        1.46428268      -1.30828370       8.11110494       0.00068219      -0.01946361      -0.00601293
H        2.74380030      -0.64798787       7.37046790      -0.00044122      -0.04216474      -0.02651279
H        1.26808762      -0.35427093       6.83992466      -0.00332662       0.00232398       0.01130033
N        0.60956730       6.91607667       3.70211719      -0.00274211      -0.00312579       0.00287303
H        0.21724125       7.62942882       3.08990182      -0.00458175      -0.00311364       0.00535784
H       -0.14352927       6.57200135       4.29065565      -0.00170146      -0.00754020       0.00201112
H        0.92236185       6.13603836       3.13903128       0.00102381      -0.00034718       0.00064607
N        2.09279919       4.21973944       4.74087469       0.00203303      -0.00876680      -0.00507037
H        2.41425765       4.55097422       3.83443083      -0.00231227       0.00048962      -0.00319755
H        2.09736427       5.03945686       5.34091682       0.00750428      -0.01533181       0.00395542
H        1.11697289       3.96077991       4.60372653       0.00064939      -0.00512996      -0.00239046
N        8.41023259       7.25839052       3.50831312      -0.00039878       0.00110386       0.00399154
H        8.63673961       8.10100542       2.98927666       0.00978353       0.00031109       0.00755907
H        8.26384028       6.53066748       2.81419004      -0.00986715       0.00569627       0.00098104
H        9.25417155       7.00179404       4.01086068      -0.00357635      -0.01217229       0.00242426
N        3.43625513       5.71551218       8.30225180       0.00053839       0.00010964      -0.00686219
H        4.08872764       4.99053401       8.01800047      -0.00592828      -0.00494957      -0.00894272
H        3.34874754       6.33844778       7.49598440       0.00053480      -0.00018328      -0.00708776
H        2.53653577       5.25524330       8.41564348      -0.00187996       0.00648865      -0.00083526
N        4.02903541      10.73717512       5.06804715       0.00078987       0.00940119      -0.00029107
H        3.67122675      11.52956009       4.53959178      -0.01189987      -0.00057221      -0.00665694
H        4.65519955      10.22876278       4.43439475      -0.00631026       0.00369922      -0.00250123
H        4.60669766      11.12831308       5.80343862       0.01080217       0.02320539      -0.01545373
N       10.07777503       5.89115102       5.89532668      -0.00699528       0.00294169       0.00024307
H        9.08749459       5.82444563       6.12989656      -0.00618664      -0.00468420       0.00075467
H       10.32930907       6.84763031       6.14851923      -0.01447215       0.00660639      -0.00480576
H       10.55503247       5.26220206       6.53051638      -0.00107612       0.01114798       0.00402942
N        5.52417957       0.13160548       8.47126931       0.00690755      -0.01059239       0.00643182
H        5.17295052       0.99014044       8.05396421       0.01986480       0.00225946       0.02283462
H        4.70877079      -0.37973192       8.78785337      -0.00237457      -0.01203805      -0.01994605
H        5.93094764      -0.41497948       7.72079109       0.01272964       0.00593373      -0.00219287
N        5.52208381       5.43395447       3.56383801      -0.00219858      -0.00245243       0.00036301
H        4.92513330       4.61751876       3.49458529       0.00197805      -0.00594196       0.00429666
H        6.34945877       5.14964375       4.07611935      -0.00802027       0.00783990       0.01542563
H        5.84069927       5.63918760       2.62215961       0.00873911      -0.01392512       0.00158101
N        2.73334017       1.59678601       3.04085956       0.00056432      -0.00759101      -0.00219737
H        2.51244368       2.15210355       3.86402562       0.02306618       0.01446160      -0.01107613
H        1.94249340       1.70093967       2.41498809      -0.00723282      -0.00829088       0.00776385
H        3.50903953       2.07104679       2.59263931       0.00253028      -0.03402131      -0.02582054
N       10.53565254       0.47460705       8.84841537       0.01194419      -0.00849336       0.00833881
H       11.41371498       0.64775635       8.36258189       0.00953813       0.00122175       0.00809167
H       10.08808792       1.38500921       8.91019094       0.00525092      -0.01212661       0.01455767
H        9.97123975      -0.03348284       8.17377591       0.01484567      -0.00922358       0.00636099
N        5.59371648       8.98146903       2.96522470      -0.00340401      -0.00222689      -0.00579345
H        4.84592899       8.78675919       2.30972650       0.00599868      -0.00829524      -0.01463082
H        5.93232492       8.09315946       3.31824437      -0.00015532      -0.00004231      -0.00330954
H        6.35517769       9.39992206       2.43470908      -0.00054302       0.00362829       0.00274143
N        3.27561703       2.46998538       7.18610462      -0.00334796      -0.00163566       0.01367134
H        2.98382120       3.00280819       6.36534054      -0.00692680      -0.01679006       0.00563396
H        2.91480565       2.97496510       7.98900520      -0.02524624      -0.00349838       0.00483637
H        2.74225015       1.60600233       7.17180474       0.02244514      -0.01733878       0.01572030
N        7.47429653       9.50375704       9.71070006      -0.00043264      -0.00150067       0.01411650
H        7.11895783      10.43219320       9.49681590      -0.01492263      -0.00811887       0.00942564
H        8.48254312       9.53003932       9.60473873       0.00012153       0.01524800       0.02190266
H        7.31138885       9.35289241      10.70017802      -0.00463509      -0.00173347       0.01348922
N        9.71668816       8.94219904       6.31605242       0.00632635      -0.00056571       0.00384425
H        9.55669483       8.69870206       7.28883993       0.01038986       0.00933586       0.00708872
H        8.81854657       8.97304671       5.84862673       0.00460904      -0.00877018       0.00671989
H       10.11308038       9.87354970       6.26911667       0.00351385      -0.00011898      -0.00802623
N       11.53264414       5.66754202       0.27021186      -0.00046822       0.00387773       0.00341332
H       11.31055333       6.03498282       1.19138526       0.00601226      -0.00411934       0.00817263
H       11.67089545       6.49114627      -0.30805070      -0.02186604       0.00961220       0.00592514
H       12.43574742       5.21256924       0.35797316       0.00792214       0.01883677      -0.01005149
N        8.56474796       3.62336590       9.95338274      -0.00033480      -0.00268674       0.00472096
H        9.38783335       3.70795769      10.53895341      -0.00205909      -0.00410831       0.00744869
H        8.87610740       3.54973471       8.98469205       0.00283688      -0.00654854       0.00594047
H        8.13080181       2.73588171      10.18080831      -0.00469824      -0.00022081       0.00598682
N        9.43672089       7.07893990       9.02206828      -0.00363371       0.00100234       0.00580654
H        9.55005977       7.17502673      10.02660926      -0.00122558       0.00530789       0.00562979
H        9.54094618       6.09440669       8.80508188      -0.01982531      -0.00177964       0.01159810
H        8.46278305       7.29959233       8.83805987      -0.00020839       0.01730890       0.00720925
N       10.52865146       0.71796196       5.03082772      -0.00163704       0.00316266       0.00278579
H       10.93219204       1.56835043       4.64640707      -0.00288979       0.00399888       0.00303539
H        9.84928897       0.40896384       4.34446065      -0.00552697       0.00593950       0.00534026
H       11.25986489       0.00461345       5.04678051      -0.00200935       0.00261206      -0.00291516
N       10.65705297       3.71396494       3.53848890       0.00021970       0.00102250       0.00032064
H       10.97831832       4.10092222       2.65770226       0.00115076      -0.00069499      -0.00013534
H       10.42925869       4.51066637       4.13327960      -0.00131135       0.00183290      -0.00141228
H        9.77647846       3.25182236       3.31948204       0.00055709       0.00016277       0.00018471
N        0.77417128       8.46578413       8.87918033      -0.00982785      -0.01730067      -0.01390977
H       -0.14023769       8.02681867       8.97365271      -0.01277307      -0.01231776      -0.01453104
H        1.35697709       8.23725719       9.68428571      -0.01122540      -0.02367793      -0.01525074
H        1.22748682       8.04970302       8.07325551      -0.01295596      -0.01630602      -0.01601441
N        3.27854580       7.37969329       5.46953259      -0.00205549       0.00103723      -0.00517513
H        3.55538871       8.35823005       5.49834296      -0.00480195       0.00185208      -0.00424074
H        2.41714416       7.34491909       4.91858915      -0.00428862      -0.00123499      -0.00150244
H        3.99018851       6.90049114       4.92134262      -0.00286198       0.00424080      -0.00908541
