150
Lattice="12.795233999154823 0.0 0.0 0.0 12.795233999154823 0.0 0.0 0.0 12.795233999154823" Properties=species:S:1:pos:R:3:forces:R:3 energy=-171900.8125 stress="-0.003058493370190263 0.0002994282986037433 -0.00021337295038392767 0.0002994282986037433 -0.001111516379751265 0.0007209409086499363 -0.00021337295038392767 0.0007209409086499363 -0.0026656591799110174" pbc="T T T"
K       12.54317543      12.03560390       0.23471384      -0.01243140       0.00806852       0.01150679
Br      11.31245857       9.61125241       2.08594283      -0.01775996       0.01574353       0.01910915
O       12.57411186       9.52743466       1.04537128      -0.01985210       0.03017291       0.01954925
O       10.19741534       8.52346796       1.66552412       0.01205307      -0.00139195      -0.00509202
O       11.78505113       9.37537855       3.60897959      -0.01427686       0.02871649       0.01958007
O       10.71975432      11.13494931       1.93213044      -0.04326105       0.00194001       0.00915089
C        2.49923675       9.46032483       6.45354583      -0.01653006       0.01111630       0.01127183
C        1.81287193      10.63732517       6.72967495       0.01026079      -0.02270969      -0.00990511
C        3.74193969       9.50970363       5.83374176       0.01892978      -0.01116490       0.00505388
C        2.37473791      11.86471141       6.39167842      -0.02061581       0.00331439       0.00435759
C        4.30370021      10.73364827       5.49623305      -0.01208188       0.01485705       0.01855678
C        3.62138676      11.91229992       5.77825880       0.01493438      -0.01724459      -0.00210721
H        2.06313596       8.50202920       6.70843702       0.00420716      -0.00692013       0.00289468
H        0.83644048      10.59711870       7.19732823      -0.01150250      -0.00864922      -0.00870973
H        4.26263034       8.58881767       5.60153980       0.00653826       0.00483659       0.01940529
H        1.84566326      12.78568207       6.60699937      -0.00729269      -0.01218773      -0.00819787
H        5.27180856      10.77464458       5.01229746       0.00931272       0.00122177       0.01626232
H        4.06496045      12.86534537       5.52193958      -0.00578495      -0.00082994       0.00684050
C        7.05589418      10.04007072       8.74335237       0.00901642      -0.00586489       0.00421880
C        6.89463449      11.40695893       8.93852443       0.02517487       0.00597858      -0.01352921
C        5.94026657       9.21235017       8.72678338       0.00785279       0.01307587       0.02297211
C        5.62567803      11.94301220       9.11465668       0.02781982       0.01090424      -0.01311455
C        4.67271111       9.74544461       8.92955358       0.00992961       0.01715853       0.02221309
C        4.51356441      11.10959514       9.12479403       0.02650933       0.02989991       0.00532529
H        8.04623316       9.62724372       8.59900603       0.00677665      -0.01102050       0.00520599
H        7.76105857      12.05587707       8.94637132       0.02810097      -0.00685198      -0.02891636
H        6.05308631       8.15144825       8.53913969      -0.00364394       0.00535880       0.03669440
H        5.50583302      13.01254139       9.22481936       0.03912938       0.01756911      -0.02514124
H        3.80701523       9.10034496       8.89529826       0.00733745       0.03002738       0.03704548
H        3.51861233      11.51884144       9.25046282       0.02904809       0.03457855       0.00564750
C       12.00143230       9.91969531      10.14474618       0.02340591      -0.01005156      -0.00533799
C       11.52442314       8.68483401      10.56936607      -0.01263811       0.03357220       0.01222057
C       11.23467569      11.06505302      10.34693085      -0.01942800       0.02884591       0.00306705
C       10.29374799       8.59526506      11.20520709       0.03868988      -0.00501089      -0.00740953
C       10.00501180      10.97470691      11.00072394       0.02633508      -0.00483436      -0.01592778
C        9.53811098       9.73807490      11.43201381      -0.01091883       0.03376495       0.00524603
H       12.95508185       9.98295696       9.63220608       0.00364076       0.01494088       0.00269353
H       12.10715718       7.78949816      10.39868294       0.01734003       0.00723792       0.00649994
H       11.58061564      12.02356983       9.96972483       0.00385452       0.00830938      -0.00930042
H        9.92869485       7.63445935      11.54195542       0.01298644       0.01863071       0.00694415
H        9.40127219      11.86011813      11.16075455      -0.00256810       0.01614299      -0.01116046
H        8.58975791       9.66342819      11.94792629       0.01560919       0.01186161      -0.00513426
C       11.39568956       6.60004461       6.82245586      -0.00308798       0.00160618      -0.02630853
C       11.78502878       7.88021190       7.19846966      -0.01563002       0.00450537      -0.02135634
C       10.15552800       6.39357235       6.23138500      -0.00218870       0.01029414      -0.02232159
C       10.93132189       8.95398120       6.98382827      -0.01264134       0.00041643      -0.00991903
C        9.30183039       7.46874438       6.01785054      -0.00777616      -0.00250788      -0.01561587
C        9.69089520       8.74825282       6.39510930      -0.01768187       0.00912510      -0.01472861
H       12.05451249       5.75936418       6.99546748      -0.00093248       0.00537572      -0.02774413
H       12.74842501       8.03539449       7.66958794      -0.01159284       0.00331037      -0.02501645
H        9.85104441       5.39147400       5.95663500       0.00284550       0.00599685      -0.03017800
H       11.22638168       9.95143831       7.28268440      -0.01183921       0.00038557      -0.00826916
H        8.33385320       7.31139715       5.55737258      -0.01706833      -0.00871287       0.01040220
H        9.02669240       9.58734574       6.23417159      -0.01240198       0.00228271      -0.02335062
C        1.74140667       7.93763798       3.35275199      -0.01449728      -0.01599972      -0.02128819
C        2.05778624       6.96289767       2.41674844      -0.01157986       0.03304867      -0.02714622
C        2.12222721       9.25453352       3.13283439       0.01835508       0.03101712      -0.02550878
C        2.75218803       7.30337587       1.25982788      -0.02130461      -0.02211195      -0.01172394
C        2.83762306       9.59072602       1.99261065       0.00886667      -0.02476694      -0.01126110
C        3.15063140       8.61692191       1.05046650       0.01369108       0.02329349      -0.01552947
H        1.17854951       7.68099303       4.24129979      -0.01078071       0.01956051      -0.02759288
H        1.75697177       5.93700640       2.58952488      -0.03524002       0.00624782      -0.02541279
H        1.84614973      10.01616202       3.84852352       0.01740697       0.00225885      -0.01885700
H        3.00510784       6.54033773       0.53387173      -0.02032623       0.00513532      -0.01974496
H        3.14958319      10.61736037       1.84110085       0.03296673       0.00111119      -0.01298450
H        3.70911150       8.88049848       0.16040310       0.01359130      -0.01194409      -0.00820760
C       11.87093133       2.63300437       0.37324490      -0.01389600      -0.01065920      -0.01483059
C       12.00489731       3.84293690       1.04570102       0.00125667       0.00911280      -0.00680342
C       10.69590815       1.89822184       0.49090781      -0.00711201       0.01238852       0.00047799
C       10.97853918       4.30248719       1.86066388       0.00252407      -0.00665912      -0.01019545
C        9.67228330       2.35134447       1.31306220      -0.00471942      -0.00230462      -0.00083957
C        9.82230939       3.54589050       2.00624973       0.01025055       0.01771766       0.00756337
H       12.69170395       2.28467936      -0.23955025      -0.01549164      -0.00227295      -0.01592177
H       12.91220950       4.42228771       0.93807367      -0.00100216      -0.00641839      -0.01797303
H       10.54685188       0.97878248      -0.06803452      -0.01869136       0.00375789      -0.00440638
H       11.07139069       5.25215285       2.37464295       0.01179739       0.00626440      -0.00746886
H        8.75912667       1.77915569       1.40929107      -0.00126575       0.01173262       0.01208541
H        9.01746734       3.90519210       2.63100619       0.01236020       0.00687353       0.00930135
C        7.85857395       1.88680696       4.09199305       0.00301684      -0.00192635       0.00504035
C        6.99699422       2.93541905       4.39157871       0.00334137      -0.01589313      -0.00060011
C        7.36495520       0.71786781       3.52266033       0.00756873      -0.02018054       0.01027680
C        5.63217828       2.79965799       4.16877299       0.00269602      -0.00522235       0.01088455
C        6.00210039       0.58822117       3.28625476       0.00162145      -0.00783770       0.01598043
C        5.13540052       1.62066720       3.62859942       0.00796208      -0.01699242       0.01280255
H        8.92078394       1.99091591       4.27104369       0.00298931      -0.00727862       0.00581223
H        7.39129552       3.86327985       4.78787787       0.00205496      -0.00797747      -0.00089218
H        8.04679209      -0.07751722       3.24691494       0.00234655      -0.02108257       0.03307264
H        4.95769573       3.61434862       4.40345460       0.00419032      -0.00757025      -0.00033354
H        5.61006785      -0.31503792       2.83416207       0.00061274      -0.01598658       0.02442383
H        4.07498143       1.51169191       3.45897918       0.00522330      -0.01379545       0.02192688
C        2.26152084       4.01710577      11.43323520       0.00471678      -0.00721672      -0.00687195
C        1.64115199       2.89481915      10.89802330       0.01013398      -0.01092369      -0.01291447
C        3.63382051       4.01964340      11.64608172       0.00952176      -0.01749296      -0.00056741
C        2.38060702       1.74432579      10.65162079       0.00153904      -0.00515884      -0.01007336
C        4.38129999       2.88081165      11.36732940       0.00131582      -0.01169294       0.00280101
C        3.74885360       1.73283840      10.90269973       0.00650915      -0.01547605      -0.00431942
H        1.67730583       4.90005527      11.65496128       0.00961162      -0.00978391      -0.00947826
H        0.58364501       2.92708603      10.66848701       0.00821100      -0.00313056      -0.01856646
H        4.12749799       4.90747216      12.02143677       0.00632197      -0.01608641       0.00462284
H        1.89960098       0.86236450      10.24203094       0.00516091      -0.00632337      -0.01562680
H        5.45485818       2.88969369      11.51268644       0.00356162      -0.01923737       0.00798771
H        4.32026926       0.83137459      10.73491801       0.00241946      -0.01171637      -0.00351389
C        2.29724657       3.12724894       2.32760459      -0.01033031       0.00879797       0.01192801
C        2.54346066       2.00948523       1.54255686      -0.00547174      -0.03459733      -0.00378567
C        1.42834928       3.04184146       3.40921301      -0.00370371      -0.02976079      -0.00402472
C        1.93090157       0.79982942       1.84949923       0.00183334       0.00495759       0.01754648
C        0.79085382       1.83912562       3.69585688       0.00498448       0.01216082       0.01876791
C        1.04478126       0.71184200       2.92132378       0.00892180      -0.03033000       0.00519826
H        2.79534798       4.06009511       2.09255980      -0.01575720      -0.01305133      -0.00463610
H        3.23022607       2.07590198       0.71114481      -0.01077567      -0.01091129       0.00360286
H        1.23210167       3.91557318       4.01935555      -0.00602859      -0.00298257       0.00427009
H        2.18510874      -0.08012204       1.26482635       0.00347456      -0.01951207       0.01238775
H        0.09372796       1.77899389       4.52149780       0.00888640      -0.01188826       0.01225265
H        0.55888593      -0.22769008       3.16561704       0.01494534      -0.01011424       0.02088006
C        6.26299939       4.87027449       1.17681783      -0.00476205      -0.00558025       0.01213244
C        7.51357689       5.18777858       0.66261372      -0.02212314       0.00515508       0.01227553
C        5.61661658       5.76544425       2.01968568      -0.01587038      -0.00103711       0.02271455
C        8.12635617       6.38590544       1.00789311      -0.01674873       0.00325290      -0.00192798
C        6.21703668       6.97517931       2.34695783      -0.01079644      -0.00276107       0.00780351
C        7.47720220       7.28289627       1.84816659      -0.02664617       0.00685407       0.01003068
H        5.80062409       3.92098615       0.93629273      -0.00638541      -0.00585695       0.02369282
H        8.02846291       4.48297047       0.02492822      -0.01585823       0.00381768       0.00515921
H        4.64097773       5.52871807       2.42141685      -0.00535780      -0.00930976       0.02475880
H        9.12402268       6.61278926       0.65502731      -0.02688655       0.01120866      -0.00407388
H        5.69828503       7.67787333       2.98739090      -0.01858547      -0.00049803       0.01247556
H        7.96999221       8.20657507       2.11575734      -0.02368015       0.00643702       0.00182010
C        7.62175128       3.35020592       7.80407206      -0.00627133      -0.01006195       0.00789538
C        8.03267642       2.78270835       9.00491868      -0.00222105      -0.00511126       0.01584991
C        7.52583532       4.73163330       7.69001926       0.00367393      -0.00871861       0.00755562
C        8.33244949       3.59303147      10.09327826       0.00554930      -0.00360853       0.00256534
C        7.83360664       5.54461826       8.77502534       0.01192092      -0.00718112      -0.00553880
C        8.22736032       4.97557751       9.97865670       0.01621253      -0.00285017       0.00228287
H        7.38399783       2.71753986       6.95908032      -0.01253452      -0.01138794       0.01633745
H        8.11879117       1.70630559       9.08712883      -0.00949525      -0.00564554       0.01743974
H        7.21384025       5.18120179       6.75448951       0.00088998      -0.01293908       0.00321084
H        8.65480022       3.14805916      11.02753378       0.00784124      -0.00003403       0.00733015
H        7.77899637       6.62221990       8.68061489       0.01924286      -0.00699423      -0.00736118
H        8.44609807       5.61118554      10.82637383       0.02329673      -0.00105146      -0.00613455
C        4.09082040       5.76833051       8.51320108       0.00324664      -0.00031105       0.01177655
C        3.21831685       5.00979771       7.74255208      -0.00834651      -0.00700109      -0.00164834
C        3.59354353       6.62173433       9.49030842      -0.00826550      -0.00448520      -0.00425638
C        1.84817237       5.09907922       7.95770631       0.00320603       0.00912017      -0.00233280
C        2.22273650       6.73210250       9.68922138       0.00394499       0.01029117      -0.00470518
C        1.35121782       5.96020419       8.92961944      -0.00807229       0.00399362      -0.01694095
H        5.15874910       5.67484797       8.36929281      -0.00350592      -0.01230809       0.01313214
H        3.60832383       4.33886208       6.98664112      -0.00087592      -0.00545887       0.00817540
H        4.27786461       7.19157699      10.10562122      -0.00265020      -0.00101855       0.00455632
H        1.17097076       4.48390376       7.37795283      -0.00276509       0.00665168      -0.01067372
H        1.83956304       7.38888657      10.46271800      -0.00312877       0.00936160      -0.01517318
H        0.28466667       6.00905934       9.11090086      -0.00218837       0.01670662      -0.01834043
