149
Lattice="11.288834649078037 0.0 0.0 0.0 11.288834649078037 0.0 0.0 0.0 11.288834649078037" Properties=species:S:1:pos:R:3:forces:R:3 energy=-131868.71875 stress="0.0022439174354076385 0.00012409008195390925 0.0007716708059888333 0.00012409008195390925 0.00181384920142591 0.0005877805524505675 0.0007716708059888333 0.0005877805524505675 0.0015646792016923428" pbc="T T T"
K       10.92170164      10.06803424       0.49012493       0.00260206       0.00933759       0.00252088
P        8.97931161       0.62577533       2.68653015       0.01884326       0.00900364      -0.02766148
O       10.56805180       0.37993337       2.71886281       0.02238023       0.01788701       0.02124169
O        8.45155623      -0.36946045       3.79736549       0.00659710       0.00080125       0.02758721
O        8.67614383       2.05261979       3.03627292       0.00074959       0.01531357       0.00502570
O        8.52728209       0.11355639       1.34426125       0.00801314       0.00393528       0.00631076
H       10.93304473       0.48596916       3.62985301       0.00089382       0.00647271      -0.02512716
H        7.93711256      -0.09575844       4.63540022       0.01672537       0.00965057      -0.01292666
O        4.29264172       9.84849081       5.26090028       0.00330667      -0.00160909       0.01284158
H        3.38084405       9.56841041       5.53836294       0.00298150      -0.00436617       0.00852902
H        4.12528010      10.59402643       4.66895298       0.00297339       0.00123889       0.01353803
O        9.53627029       5.05307954       7.36940915       0.01255738       0.00619966       0.00497998
H       10.03462641       4.57219026       6.69054393       0.01438648       0.00125284      -0.00552141
H        9.16509488       5.85590229       6.93690829       0.01203062      -0.00012885       0.00442252
O        3.56976034       6.91934443       3.70722370      -0.00694486       0.00350323      -0.00425372
H        3.36234678       5.96921456       3.77793357      -0.00568940       0.00262702      -0.00890022
H        3.92201706       7.11526698       4.60985614      -0.01186590       0.00025396      -0.00078182
O        1.74847764       2.73707136       2.38900328       0.00071946      -0.01480538       0.00049615
H        1.97869706       1.79712106       2.36613706      -0.00510748      -0.01312720       0.00451618
H        2.18361690       3.12014633       3.16611284       0.01039754      -0.01217777      -0.00172266
O        9.75787541       1.57357333       7.51117460       0.00532004       0.00393023      -0.00326662
H       10.15405994       1.01642227       6.82495182      -0.00593576       0.00429855       0.01249845
H       10.48607638       2.10029591       7.87417438       0.00126653       0.00359738       0.00051668
O        6.55332045       9.50749333       1.86231215       0.00360654      -0.02536115       0.00124095
H        7.12979612      10.28757139       1.71158961       0.02672743       0.00661623       0.00382206
H        7.00270409       8.80570285       1.34097760       0.00449974      -0.00082113       0.00414337
O        3.19325433       4.76135374       7.26385944       0.01539460      -0.00758927      -0.00255609
H        2.39543209       4.49243119       7.73074651       0.00804621      -0.01135678      -0.00633378
H        3.95487534       4.42738519       7.81479572       0.00874147      -0.00648782       0.00361486
O        7.22143080       9.42173681       9.51042092       0.00424477       0.01116034      -0.00468522
H        7.15050214      10.29972111       9.90297910       0.00652426       0.02095219       0.00407418
H        6.47311176       9.37426398       8.86983070       0.00939076       0.01394982       0.00437463
O        8.58389536       7.45888621       6.56888534       0.00696899       0.00289766       0.00411060
H        7.70638955       7.54984906       6.18082632      -0.00486801      -0.00160308       0.00568798
H        9.15645107       8.02182609       6.00657749      -0.00506146      -0.00020718       0.00395200
O       12.09510575       5.33119824       0.34548922       0.01334240       0.00375625       0.00571303
H       11.45283294       5.52222896      -0.37556024       0.00727195       0.00366409       0.00683008
H       11.55351466       4.93123442       1.04387836       0.01393814       0.01322121       0.01057630
O        8.10647257       4.02828427       9.79802659      -0.01258197       0.01264851      -0.00397447
H        8.77646767       4.63178340      10.14655624      -0.00647042       0.00559015      -0.00949135
H        8.25754026       4.05145874       8.84028075      -0.01464904      -0.00368337       0.00152199
O       10.33088369       6.01749354       9.72103884       0.00091471      -0.00415614       0.00847543
H        9.99868318       6.92439117       9.75405601      -0.00719915      -0.01042093       0.01112795
H       10.14315849       5.68072259       8.80698407       0.00671881      -0.00264411       0.00544027
O       11.41298103       0.41356746       5.32145649      -0.01362139       0.00133249       0.00027628
H       12.30766381       0.66093560       5.63655484       0.00405882       0.00767406      -0.00054543
H       11.33026345      -0.54640743       5.47304327      -0.00715749       0.00896564       0.00005835
O       10.61139089       3.75795939       2.46416614       0.03771218       0.01258117       0.01128510
H       11.44915047       3.23730228       2.40492982      -0.00359917       0.01593960       0.01158434
H        9.86186388       3.11104276       2.54058155       0.00041968       0.00687006       0.00544861
O        0.49480958       7.72987014       7.65837837      -0.00309882       0.00078174       0.00634950
H        0.75763664       7.21394123       8.42717322       0.00232555      -0.00012408       0.01590993
H        0.48386325       7.08617215       6.89904758       0.00118619      -0.00230940       0.01263429
O        4.52559016       7.04095322       6.25700208      -0.01454753      -0.01244063      -0.00656879
H        4.00333573       6.38112163       6.73999430      -0.01281734      -0.00407183      -0.00901824
H        4.68613792       7.76726753       6.88848037      -0.00549440      -0.00912635      -0.00189932
O        0.52742109      -0.07926487       9.30431504       0.00993219      -0.00596633      -0.01378539
H       -0.28141326      -0.55379578       9.03642090       0.00578383      -0.01512209      -0.00251484
H        0.53552201       0.81575727       8.90424272      -0.00147057      -0.01014691      -0.01554608
O        2.40024852       1.71664288       6.18443644       0.00285771       0.00268412      -0.00719777
H        2.30884508       2.51559820       5.64235255       0.00102516       0.00340618      -0.01176649
H        3.37372855       1.56668823       6.24485128       0.00056891       0.00244232      -0.01164634
O       10.13574481       9.12696546       4.98775755      -0.00653305       0.01284125       0.00575444
H       10.64573471       8.66542330       4.30898711       0.03757666      -0.00026040       0.02068833
H        9.50014252       9.67413016       4.48124927       0.02863701      -0.01324722      -0.00007451
O        1.27907636       8.47461797       3.32020898      -0.02840561      -0.00689498       0.00311477
H        1.95845682       7.77977890       3.45381549      -0.01370862      -0.00301926       0.00128951
H        0.69336718       8.16474295       2.61490894      -0.00416516       0.00053512      -0.01089948
O        6.98940084       1.76489785      11.02446243      -0.00546527       0.00803678      -0.01988615
H        7.53430270       2.44234723      10.58152298      -0.01033302      -0.00834794       0.00085665
H        7.58727546       1.26833686      11.61925967       0.01332311      -0.00822976       0.00893080
O       10.12558987       7.97146690       1.92363165      -0.00975302      -0.00039422      -0.02827769
H        9.35652117       7.83133077       1.34429178      -0.01285516      -0.01200746      -0.03363407
H       10.07835751       7.22347645       2.56602697      -0.01512588       0.01587830      -0.01929300
O        0.73769088       6.23380728       5.49981740      -0.01160712      -0.00151640       0.00834772
H       -0.05648741       6.19977753       4.91996313      -0.00611318       0.01098882       0.00766153
H        0.95244476       5.30224849       5.63057830      -0.02832725      -0.00999279       0.01205231
O        5.17181978       3.23598669       0.93200958      -0.00950575      -0.00191420      -0.01646762
H        4.37373685       3.23492283       0.37694784      -0.00147518      -0.00167726      -0.01602494
H        5.84951224       2.65326383       0.47131318      -0.00624271      -0.00150898      -0.01093175
O        9.97062598       9.13328948       9.18779633       0.00466315       0.01441702      -0.00455330
H        9.01371969       9.19747058       9.00542909       0.00020418       0.01739658       0.00082468
H       10.38062455       8.66022434       8.43829688      -0.00495671       0.00626649       0.00121202
O        2.85399114      11.27236460       3.12042027       0.00373009      -0.00906581       0.01142116
H        2.06065403      10.97185539       3.57821690       0.00324005      -0.00921626       0.01370662
H        3.14543306      10.48352058       2.60274357       0.00106243      -0.00741519       0.00917023
O        3.15153401       4.17402747       4.54736678       0.01011565       0.00210259      -0.01161829
H        3.88537756       3.57428211       4.30140217       0.00708357       0.00016716      -0.01327049
H        3.25653915       4.38576432       5.49976455       0.01046345      -0.00089322      -0.01001332
O        7.23683566       2.74475758       7.21167218       0.00032708       0.00497507       0.00818345
H        8.05119398       2.23688524       7.38991027      -0.00676335       0.00342687       0.00714455
H        7.35755851       3.14407658       6.30801057      -0.00405647       0.00112811       0.00502691
O        7.33463083       6.08492438       3.72273893      -0.01175866      -0.00174455       0.00601629
H        6.94640924       6.91546797       4.07883734      -0.00926309      -0.00962725       0.00264507
H        6.91552768       5.94976230       2.84814130      -0.01286130      -0.00659762       0.00068593
O        1.05932354       2.48132620       8.45638061       0.00801145       0.00021605      -0.00859942
H        1.67208135       2.24603269       7.72772670       0.00664543       0.00223399      -0.00667716
H        1.60488541       2.79563449       9.21375373       0.00859402      -0.00564390      -0.00165549
O        7.21016595      10.96074740       5.95758179       0.01628788       0.00050673       0.00012094
H        6.93924036      10.05512340       5.72816797       0.00446459      -0.00151049      -0.00847681
H        6.38117874      11.48081336       6.02204445      -0.00250398       0.00711805      -0.00930476
O        1.78194362       9.37805593       5.89732710       0.00374502      -0.00128277       0.01223972
H        1.42204871       8.90718395       5.12762754       0.00039138      -0.00350644       0.01224734
H        1.49959575       8.84796004       6.66852153      -0.00178492      -0.00019486       0.01198710
O        5.01530053       9.29583617       7.89263233       0.00981116      -0.01552863       0.00143228
H        4.20094677       9.42541430       8.43387474       0.00779552      -0.01296297       0.00560882
H        4.88609641       9.83734570       7.09555469       0.00912436      -0.01561134       0.00550188
O       10.01000112       6.01068069       3.71991627      -0.00893666       0.02621713       0.00097933
H       10.23096751       5.17942599       3.23636427      -0.00088485       0.02373035       0.00486478
H        9.02788266       6.01497026       3.82357617      -0.00885849       0.01273423       0.00149977
O        2.11168472       0.59871267       0.21270798      -0.00966522      -0.01914161      -0.00292781
H        1.67461037       0.34529664      -0.61793435      -0.01710825       0.00006473       0.00201222
H        2.93136897       0.09306901       0.20386793      -0.01523484      -0.01571521      -0.01925369
O        5.99162451       5.78201066       1.31975826      -0.01564768      -0.00070368      -0.00008328
H        5.72675315       4.84036816       1.14868851      -0.01399802      -0.00336187      -0.00300825
H        5.18410776       6.22243870       1.60790777      -0.01598632      -0.00453130       0.00380292
O        3.87371106       9.06686942       1.83078727       0.00720231      -0.00877206       0.00511451
H        3.83806277       8.38384114       2.52533194       0.00810864      -0.01158807       0.00194526
H        4.83213264       9.27567181       1.72699914       0.00510961      -0.00362550       0.00528305
O        4.64621573       2.13491055       3.47158408       0.00784451       0.00064965      -0.01878580
H        4.92882740       2.48399785       2.60106642      -0.00448542      -0.00089851      -0.02117218
H        4.01368581       1.42082793       3.28781224       0.00425216      -0.00269015      -0.01020496
O        6.53991951       8.55965697       4.50637747       0.00485440       0.00158080       0.00335891
H        6.69727980       8.99230707       3.63913037       0.00368027      -0.00515545       0.00029049
H        5.61330391       8.79271837       4.72533212       0.00229768       0.00409483       0.00310314
O        5.13087644       1.47050041       6.08001465       0.00252815       0.00604525      -0.01103668
H        5.78719198       1.94939696       6.63754177       0.00086333       0.00582276      -0.00801503
H        5.25703399       1.83700608       5.18218335       0.00713877       0.01064969      -0.01207074
O        5.27348096       3.91371891       8.62581377      -0.01183344      -0.02254355       0.03536829
H        6.05699139       3.53665887       8.17186800      -0.01327837      -0.02775437       0.02183476
H        5.61521171       4.25786508       9.45547108       0.01441789       0.03420449      -0.01223843
O        1.74459204       8.06231971       0.16013238      -0.00217131       0.00157234       0.00520603
H        1.50167104       7.13369645       0.33755181       0.00502004       0.01221520       0.00230519
H        2.49927114       8.28127491       0.73482874       0.01138198       0.00517698       0.00897785
O        7.81185783       7.66752002      11.57728266      -0.01699083      -0.00817746      -0.01828516
H        7.21760030       6.90376609      11.68433717      -0.02228224      -0.00555904      -0.01786383
H        7.55506890       8.14041104      10.75857662      -0.01502662      -0.00140259      -0.01524166
O        2.80567807       9.59633808       9.39364507       0.00690694       0.00262379      -0.00360896
H        2.02672920      10.10603637       9.11351470       0.01676932      -0.00215118      -0.00197359
H        2.45588228       8.89795408       9.97586079       0.00127898      -0.00018448       0.00968624
O        2.51028412       3.29353850      -0.60602879      -0.00198797      -0.01365185       0.00838923
H        1.95875642       3.98236259      -0.17985797       0.00228414      -0.00669845       0.00565198
H        2.33737369       2.47544483      -0.10636662      -0.00567935      -0.00738937       0.01111881
O       11.17752287       3.47410450       5.38656314      -0.01991762       0.00231153      -0.00219744
H       10.89728700       2.57960596       5.61553406      -0.02964980       0.01349045       0.00260304
H       10.91126004       3.57518967       4.45672461      -0.01034681       0.00510078      -0.00198495
O        7.13360032       3.53422436       4.74012353      -0.01253304       0.00441712       0.00885986
H        7.65935374       3.01131461       4.10209989       0.00294068      -0.00672494      -0.00677138
H        7.18182482       4.46533464       4.45504140      -0.01087438      -0.00928873       0.00467031
