141
Lattice="12.402619281973985 0.0 0.0 0.0 12.402619281973985 0.0 0.0 0.0 12.402619281973985" Properties=species:S:1:pos:R:3:forces:R:3 energy=-150131.1875 stress="-0.0007765914779156446 0.0005471303884405643 -0.0006114506395533681 0.0005471303884405643 -0.0007882251520641148 2.4547210159653332e-05 -0.0006114506395533681 2.4547210159653332e-05 -0.002095411764457822" pbc="T T T"
K       10.87546949       8.82760326      -0.90898022      -0.00414316      -0.03880521      -0.02252345
O       10.69431274       5.27329205       1.54278446       0.02973676      -0.01898742       0.02802023
O       10.90093221       7.89787771       1.52278451       0.00258362      -0.02018106      -0.00839144
O       11.84212348       6.51994721      -0.45991161       0.00111708      -0.03687754       0.00179601
O       13.01713688       6.42465305       1.87702765       0.02400410       0.00878685      -0.01048058
Mn      11.61516070       6.50284796       1.13906729       0.01524365      -0.01651093       0.00344944
O        3.24434673       2.39427084       6.18741245       0.00274469      -0.00410706       0.00043603
O        1.88269080       3.92041955       6.88603247       0.00238180      -0.00559969      -0.00058972
O        3.89622583       4.56286422       6.08028739       0.00491279      -0.00154126      -0.00035283
C        4.48991032       1.99308851       5.55200521       0.00269546      -0.00479847       0.00044161
C        4.82330233       0.60060125       6.00583417       0.00453588      -0.00342250       0.00244129
C        3.08884705       3.70731830       6.35203773      -0.00164181      -0.01013005       0.00140950
C        1.62139442       5.30886832       7.17097659       0.00081269      -0.00656620      -0.00128471
H        4.34446097       2.05064301       4.47298065       0.00248334      -0.00637559       0.00068957
H        5.25743579       2.71701540       5.81766754       0.00207350      -0.00350657      -0.00065896
H        5.77303460       0.31373161       5.55255681       0.00442122      -0.00268750       0.00224482
H        4.91529926       0.54875333       7.09031286       0.00516892      -0.00168819       0.00229555
H        4.07921872      -0.12284000       5.68335219       0.00515646      -0.00464992       0.00371768
H        2.46575648       5.75773083       7.67960073      -0.00160745      -0.00675911       0.00347289
H        0.74484900       5.30992846       7.81227758      -0.00228122      -0.00629406      -0.00604418
H        1.42784368       5.85071730       6.24720835       0.00582670      -0.00565092      -0.00182876
O        5.05692567       2.55139464       8.92372625       0.00688446      -0.00300885       0.00089043
O        3.08883494       2.11976891       9.72126761       0.00779340      -0.00628569      -0.00022451
O        3.65609317       4.27674857       9.33916572       0.00372696      -0.00298905       0.00174155
C        6.05167340       3.50587166       8.47930126       0.00566861      -0.00242317       0.00132616
C        7.27994019       2.71475150       8.11530789       0.00625396      -0.00054726       0.00005728
C        3.91360116       3.09789973       9.32863446       0.00698763      -0.00920212       0.00087414
C        1.78407557       2.58415783      10.10066640       0.00699924      -0.00906456      -0.00050549
H        5.64555720       4.06496562       7.63527296       0.00487560      -0.00181887       0.00200248
H        6.24310316       4.21389927       9.28592986       0.00570399      -0.00260916       0.00168684
H        8.07981080       3.39438332       7.82000143       0.00536535       0.00033230       0.00045439
H        7.61836347       2.12579890       8.96703295       0.00711225      -0.00105734      -0.00070275
H        7.07652221       2.04011667       7.28348298       0.00645004       0.00006491      -0.00033285
H        1.85070089       3.33517723      10.88646636       0.00483813      -0.00826135      -0.00101408
H        1.25808205       1.70379153      10.45845010       0.00938746      -0.01015763      -0.00042158
H        1.27670546       3.00872803       9.23572061       0.00640720      -0.00983544      -0.00056857
O        2.85971626      10.21580588       6.09156464      -0.00672041      -0.00235295      -0.00107049
O        4.61453866       9.03849629       6.51458863      -0.00906551      -0.00569087      -0.00196491
O        2.58443437       8.14791191       6.96822982      -0.01023912       0.00107777       0.00159025
C        1.42394911      10.36593993       6.06771161      -0.00687966       0.00143218       0.00061429
C        1.12808853      11.80805472       5.74926039      -0.00298519       0.00006032      -0.00773075
C        3.29083130       9.03959220       6.56258447      -0.01171422      -0.00255895       0.00086051
C        5.23739049       7.76354987       6.74398690      -0.01274668      -0.00591863      -0.00037399
H        1.01809636       9.68833878       5.31268554      -0.00961566      -0.00207844       0.00544110
H        1.01407389      10.05942941       7.02782681      -0.00503808       0.00889833       0.00347716
H        0.04754439      11.94936356       5.70977561      -0.00252450       0.00332127      -0.00705198
H        1.53693197      12.47634414       6.50763826      -0.00001983       0.00334270      -0.01249003
H        1.55739715      12.09266531       4.78837029      -0.00365897      -0.00742705      -0.00987239
H        4.94216059       7.36139012       7.71233154      -0.00817646      -0.00173555       0.00246787
H        6.30450340       7.96627669       6.71485533      -0.01246753      -0.00970373      -0.00753922
H        4.96918135       7.07369312       5.94763779      -0.01920615      -0.00856480       0.00394455
O        5.94353719       9.85762199       9.21777741      -0.01419252       0.00174418      -0.00230469
O        3.96738361      10.71455491       8.97523531      -0.01257870      -0.00099218      -0.00629116
O        4.45059018       9.64498354      10.90813890      -0.01524127      -0.00246489      -0.00351107
C        6.88339420       9.15792990      10.06131043      -0.01713461      -0.00952252      -0.00898999
C        8.14831875       8.91332910       9.28314810      -0.01607162      -0.00623718      -0.00866675
C        4.75822187      10.03588571       9.80778259      -0.01565000      -0.00064093      -0.00438344
C        2.64452098      10.93173210       9.47997318      -0.01132167       0.01741096      -0.01250038
H        7.06004678       9.76419634      10.94472742      -0.01476394      -0.02114117      -0.00171164
H        6.44026105       8.21788457      10.38729466      -0.02056414      -0.01179567      -0.01994580
H        8.77108206       8.22322895       9.85568499      -0.02043423      -0.01573587      -0.01547980
H        7.92989972       8.44059446       8.32804661      -0.01434801       0.00558765      -0.01489119
H        8.70065312       9.83617206       9.09216674      -0.00982628      -0.00762823       0.00418113
H        2.14104508       9.97562441       9.63661213      -0.02023420       0.02175811      -0.02647392
H        2.13789238      11.50740846       8.71283742       0.00629203       0.04611060      -0.00419554
H        2.68368225      11.49022989      10.41384972      -0.01439636      -0.00989021       0.00289536
O        9.69024600       7.79910452       6.30681923       0.00746962       0.00554108      -0.00796908
O        8.86856233       9.78663538       6.18847151       0.00922024       0.00700015      -0.00141983
O       10.95515129       9.54285965       7.03115257      -0.01224184      -0.00119305       0.03942838
C       10.76361467       6.85335492       6.56144016       0.00270224       0.00093839      -0.00446265
C       10.16247918       5.62573236       7.19947258      -0.00513425       0.00714099      -0.00044078
C        9.94696709       9.08077054       6.54653201       0.00073951       0.00309363       0.01344198
C        8.97510370      11.19977987       6.41013229       0.00474091       0.00594699       0.01032772
H       11.21436752       6.62649419       5.59370447      -0.00310078      -0.00453365      -0.00574544
H       11.51107759       7.33098534       7.19236775       0.00789994      -0.00286990      -0.00731361
H       10.93169055       4.86052566       7.31086761      -0.00871603       0.00442287       0.00150460
H        9.75285081       5.85125662       8.18491964      -0.00374119       0.01240478      -0.00124030
H        9.36932495       5.21495047       6.57666841      -0.00740851       0.00889127       0.00146630
H        9.40979398      11.40945747       7.38487666      -0.00860865       0.00598913       0.01679921
H        7.96254486      11.58388109       6.34997960       0.00268072      -0.00306112       0.00058812
H        9.59931965      11.65188795       5.63954355       0.00767395       0.01465191       0.01751195
O        3.25793716      10.25926790       2.73372528      -0.00230595      -0.00078788       0.00136255
O        5.19430407      10.66468271       3.60242408      -0.00715163      -0.00292173       0.00337671
O        4.40308698       8.53726097       3.64299923      -0.00154772      -0.02230120       0.00121149
C        2.22997867       9.30959040       2.38279627      -0.00296074       0.00456312      -0.00364807
C        1.09038501      10.09253299       1.78787093      -0.00401080       0.00213918      -0.00342704
C        4.30353187       9.70486612       3.36322327      -0.00654159       0.03181970      -0.00798419
C        6.37139330      10.24812008       4.31428837      -0.00735305       0.00259067       0.00423822
H        2.63747155       8.58322051       1.67829417      -0.00240721       0.00443226      -0.00467867
H        1.92545485       8.76159886       3.27554796      -0.00407803       0.00121573      -0.00452769
H        0.26395299       9.40601418       1.59649841      -0.00313869       0.00259677      -0.00505856
H        0.74569643      10.85767186       2.48574057      -0.00429946       0.00161380      -0.00272909
H        1.40112548      10.58090710       0.86217428      -0.00425940       0.00382827      -0.00280724
H        6.18025907      10.31704669       5.38141088      -0.00652443       0.00455425       0.00449559
H        7.15423977      10.93388976       4.00594352      -0.00465734      -0.00140998       0.00330171
H        6.64034380       9.22962300       4.04931908      -0.00790501      -0.00001338       0.00740355
O        8.34146370      10.45542593       1.78911403       0.01178890       0.00664596       0.00835937
O        6.79792257       8.97814317       1.57297308       0.01264884       0.00667635       0.00696531
O        8.52541865       8.95583706       0.11135783       0.00344676       0.02154216      -0.00201267
C        9.61453901      11.00196684       1.41034437       0.00976834       0.01087609       0.00552985
C        9.90669725      12.14386597       2.34580650       0.00630170       0.01118612       0.00595990
C        7.93121938       9.40459381       1.07355447       0.01239225       0.01213497       0.00037110
C        6.18323790       7.82060047       0.95805076       0.01033232       0.01188067       0.00268744
H       10.36332665      10.21120179       1.49991512       0.01149756       0.01262155       0.00300293
H        9.55666599      11.34052572       0.36970483       0.00651623       0.01019369       0.00612113
H       10.85707800      12.60662660       2.08027197       0.00454007       0.01454085       0.00615688
H        9.12266079      12.89904286       2.29526992       0.00352795       0.00797696       0.00555984
H        9.97695720      11.77787559       3.36943778       0.00680985       0.01115189       0.00578627
H        5.55338638       8.15719206       0.13605044       0.00856519       0.01633570       0.00584316
H        5.59135681       7.38762938       1.75770006       0.01107745       0.00917475       0.00178480
H        6.94238671       7.12766175       0.60611897       0.00775492       0.01183574      -0.00245193
O        4.93937917       4.26386575       3.12983147      -0.00055295       0.00002196      -0.00118086
O        7.04651386       4.02646847       3.56148045      -0.00438195       0.00037439      -0.00470495
O        6.13691485       6.09590773       3.71125068      -0.00143112       0.02084363       0.00447071
C        3.72810710       5.06540312       3.08553984      -0.00291249      -0.00682187      -0.00090604
C        2.58702170       4.10557157       2.88224762      -0.00387844      -0.00535238      -0.00029245
C        6.04184262       4.91592460       3.49126589      -0.00669852      -0.03711367      -0.00861032
C        8.33125016       4.62352915       3.80815488      -0.00352706      -0.00587268      -0.00523376
H        3.65054309       5.62906516       4.01171134      -0.00332775      -0.00637147       0.00045854
H        3.80841115       5.77957175       2.26534446      -0.00542554      -0.00415319      -0.00018981
H        1.66569895       4.66444453       2.72478517      -0.00480121      -0.00714186       0.00449374
H        2.76373128       3.47953883       2.00613331      -0.00479300      -0.00290306      -0.00247073
H        2.46407237       3.45007237       3.74464174       0.00155589      -0.00898901      -0.00221640
H        8.71032368       5.09985910       2.90480874      -0.00460255       0.00077464      -0.00280690
H        8.98547009       3.80378910       4.09356089      -0.00144072      -0.00507462      -0.01045939
H        8.25700724       5.36321219       4.60312462      -0.00156671      -0.00875831      -0.00028238
O        7.66340235       3.00181097      11.65455009       0.00890271       0.00766944       0.00185089
O        5.64906304       3.73835313      11.94587364       0.00919391       0.00512064       0.00292012
O        7.30625213       5.23427864      11.56929590       0.00831342       0.01062441       0.00328732
C        9.07137693       3.25551195      11.42473935       0.00879800       0.00733644       0.00279800
C        9.74561038       1.90985325      11.36614699       0.00997469       0.00809762       0.00641805
C        6.91229014       4.10115309      11.71594270       0.00639260       0.00091243       0.00348247
C        4.75530443       4.84857148      12.13561550       0.00718585       0.00262475       0.00265250
H        9.17730364       3.80939687      10.48990038       0.00888587       0.00499654       0.00122797
H        9.45767682       3.87714240      12.23394540       0.00828005       0.00952357       0.00145254
H       10.81631696       2.04238321      11.21040084       0.00928780       0.00806107       0.00372521
H        9.59734821       1.37204173      12.30194828       0.01211567       0.01197263       0.00883481
H        9.34540546       1.30533252      10.55072829       0.00909139       0.00515990       0.00919512
H        5.07294375       5.42233843      13.00178066       0.00816119       0.00607324       0.00030419
H        3.77889718       4.40908077      12.31121327       0.00871715       0.00141534       0.00651889
H        4.72814356       5.47698250      11.24924485       0.00332512       0.00044394       0.00103784
