144
Lattice="13.348349908062145 0.0 0.0 0.0 13.348349908062145 0.0 0.0 0.0 13.348349908062145" Properties=species:S:1:pos:R:3:forces:R:3 energy=-288545.625 stress="0.0003233986208215356 7.84510193625465e-05 -0.00017215731350006536 7.84510193625465e-05 0.0006046625785529613 0.00016413943376392126 -0.00017215731350006536 0.00016413943376392126 -4.530161095317453e-05" pbc="T T T"
La      13.01180002      13.86421955       0.10046840      -0.00000000      -0.00000000      -0.00000000
F        3.02818113      13.47064578       5.88716643       0.03908457      -0.00400790       0.00000875
F        4.57011229      14.02546405       5.23588757       0.03041590       0.00990558      -0.01785151
F       14.95557840      12.93845209       6.51488722       0.03633758      -0.01790547       0.01881494
C        1.56341275       7.13699709       8.47848567      -0.00302732       0.00080106       0.00009480
C        2.64165275       7.86426486       7.68408531      -0.00267708       0.00125086       0.00106649
C        1.95277954       5.72920116       8.91466676      -0.00180292       0.00135791       0.00119431
C        2.25088490       9.28805744       7.30209819      -0.00283304       0.00120065       0.00000981
C        0.86263917       5.04036136       9.72433868      -0.00166291       0.00048299       0.00068462
C        3.33240687      10.03705268       6.53912690      -0.00219670       0.00037995      -0.00038296
H        1.31159253       7.73070134       9.36551986      -0.00523454       0.00106892      -0.00057480
H        0.64465262       7.08913436       7.88114326      -0.00231373      -0.00096316      -0.00113893
H        2.87646664       7.29145365       6.77837446      -0.00104940       0.00098358       0.00184396
H        3.56807489       7.88853357       8.27046356      -0.00356308       0.00250629       0.00240792
H        2.19124092       5.12615475       8.03343006       0.00032376       0.00146405       0.00227594
H        2.87482010       5.77602906       9.50313560      -0.00238255       0.00333812       0.00272763
H        1.33154942       9.26350477       6.70696881      -0.00244406       0.00013264      -0.00172603
H        1.99953718       9.84478859       8.20980714      -0.00409430       0.00163786      -0.00163794
H        0.64670736       5.59650648      10.63956757      -0.00344419       0.00039993       0.00004587
H        1.14773937       4.02629398      10.00521482      -0.00056917       0.00075087       0.00131848
H       -0.06637166       4.97705053       9.15310880      -0.00104256      -0.00117215      -0.00052489
H        4.25108848      10.09261835       7.12711978      -0.00278501       0.00145138       0.00126711
H        3.57600012       9.52772000       5.60254406      -0.00104436      -0.00045565       0.00071198
H        3.02151130      11.05638695       6.30803327      -0.00299244       0.00073886       0.00001384
C        9.76657229       8.54050482      12.69755796      -0.00019068       0.00072071       0.00529653
C        8.45417463       9.31108377      12.62268945       0.00009483       0.00041220      -0.00024716
C        9.58405415       7.02701656      12.67467394       0.00070828       0.00075823       0.00244684
C        8.63536163      10.82485017      12.60381332      -0.00105897       0.00034791       0.00421301
C       10.90487911       6.27031007      12.65020172       0.00048539       0.00076866       0.00663275
C        7.32845265      11.57632454      12.39005359      -0.00052342       0.00029036      -0.00106113
H       10.40402698       8.83720056      11.85598509       0.00213106       0.00124294       0.00504336
H       10.31207175       8.82817535      13.60438963      -0.00243759       0.00063070       0.00489932
H        7.81283985       9.03249209      13.46709626      -0.00264902      -0.00092117      -0.00041759
H        7.91114936       9.00560764      11.72041110       0.00256971       0.00088070      -0.00041327
H        8.99632707       6.72049558      13.54598572      -0.00164491       0.00029184       0.00229472
H        8.98918330       6.75258315      11.79721844       0.00250541       0.00070601       0.00208870
H        9.09877349      11.14373700      13.54319648      -0.00415120      -0.00019030       0.00420818
H        9.34366659      11.09041305      11.81182706       0.00168347       0.00164206       0.00472733
H       11.49016711       6.53592317      11.76702816       0.00263259       0.00129999       0.00697806
H       10.75290118       5.19002226      12.63173888       0.00105723       0.00105089       0.00573093
H       11.51089015       6.50938314      13.52658000      -0.00126614       0.00106362       0.00724846
H        6.88516104      11.31974667      11.42561245       0.00239965       0.00055281      -0.00192374
H        6.59930712      11.32657453      13.16305305      -0.00317395      -0.00130746      -0.00258915
H        7.47541464      12.65683309      12.40982168      -0.00143281      -0.00011876       0.00114946
C        6.87040733       2.72720246       8.72720849       0.00013886      -0.00753343      -0.00257811
C        5.55403103       2.05385938       9.09680948      -0.00030971      -0.00567657      -0.00100058
C        8.06175639       2.23770605       9.54274095      -0.00084248      -0.00393251       0.00128534
C        4.38062188       2.51610655       8.23970899       0.00018180      -0.00722241      -0.00289592
C        9.36587992       2.93228663       9.17122453      -0.00081384      -0.00325134       0.00217132
C        3.06094977       1.87039794       8.63652822      -0.00070250      -0.00295848      -0.00064109
H        7.06907370       2.56004943       7.66371737       0.00124661      -0.01147091      -0.00150010
H        6.76975145       3.81291470       8.85057640      -0.00011622      -0.00683638      -0.00653667
H        5.33563129       2.24235280      10.15559176      -0.00089686      -0.00271706      -0.00183040
H        5.66504055       0.96920402       8.99470186      -0.00117363      -0.00620225       0.00195953
H        7.85742586       2.38447405      10.60891951      -0.00336621      -0.00144179       0.00050697
H        8.16846494       1.15749655       9.40125039       0.00042811      -0.00428194       0.00424224
H        4.30084472       3.60755933       8.31047113       0.00240515      -0.00663602      -0.00674530
H        4.58416884       2.27451292       7.19289469       0.00047752      -0.01033139      -0.00209552
H        9.58236304       2.81058908       8.10785781       0.00137357      -0.00621840       0.00242704
H       10.21431781       2.53398835       9.72994289      -0.00162931      -0.00118835       0.00476353
H        9.31140959       4.00476942       9.37269164      -0.00265650      -0.00323665      -0.00084787
H        3.07442473       0.79960461       8.43603857      -0.00337017      -0.00409588       0.00352471
H        2.84666707       2.02173319       9.69843300      -0.00035454       0.00183015      -0.00117545
H        2.22931320       2.27459601       8.05880148       0.00011651      -0.00382996      -0.00200759
C        8.45519743      10.68579370       5.59566301      -0.00243253       0.00188607      -0.00220105
C        8.76864148       9.26138023       5.15286140      -0.00026256       0.00247931      -0.00153780
C        7.19811220      10.78739811       6.45279101      -0.00171763      -0.00013873      -0.00087225
C       10.04921022       9.13674793       4.33570740      -0.00107098       0.00233656      -0.00160600
C        6.86470120      12.20721654       6.88566853      -0.00264736       0.00020522       0.00040857
C       10.37156150       7.69685480       3.95758777      -0.00053822       0.00366750      -0.00386969
H        9.30967592      11.08613052       6.15467298      -0.00138929       0.00238045      -0.00107186
H        8.34644106      11.32750509       4.71491493      -0.00206838       0.00188249      -0.00044319
H        7.92624752       8.86703093       4.57134142      -0.00051150       0.00310714      -0.00260603
H        8.84879485       8.61701231       6.03634661      -0.00082538       0.00155582      -0.00226450
H        6.35216588      10.37013374       5.89883200      -0.00171512      -0.00009990      -0.00134194
H        7.31898891      10.14938237       7.33551605      -0.00096463      -0.00030753      -0.00154734
H        9.96064956       9.74718714       3.43109597       0.00003802       0.00428697      -0.00107664
H       10.88090280       9.56160309       4.90724983      -0.00061709       0.00203602      -0.00100937
H        7.70455455      12.65759593       7.42203224      -0.00327197       0.00025677      -0.00079739
H        5.99476161      12.22427412       7.54207297      -0.00265402      -0.00254032       0.00218906
H        6.60992644      12.84253224       6.03689344      -0.00478438       0.00018321       0.00148392
H       10.50496620       7.08125471       4.84997596      -0.00208357       0.00162756      -0.00415210
H        9.56194152       7.25328039       3.37405681      -0.00091726       0.00441196      -0.00502978
H       11.28640608       7.62431029       3.36730151      -0.00072576       0.00349678      -0.00274311
C        4.25931985       3.93216504       4.60459113       0.00002040      -0.00412706       0.00092369
C        3.18418730       4.77910705       3.93776257      -0.00064323      -0.00308964       0.00141758
C        5.57457963       3.90969758       3.83460867      -0.00070393      -0.00285354      -0.00082952
C        1.84797469       4.73411709       4.66958282      -0.00053814      -0.00470650       0.00251442
C        6.63706506       3.07477875       4.53806595       0.00191763      -0.00040689      -0.00203800
C        0.79474376       5.63541613       4.04027228      -0.00166771      -0.00460282       0.00379418
H        4.44142956       4.31889429       5.61430320       0.00227225      -0.00004292       0.00071207
H        3.91229370       2.90194699       4.73578742       0.00156714      -0.00147152       0.00369825
H        3.03785194       4.44112890       2.90462365      -0.00229011      -0.00699311       0.00188056
H        3.52308016       5.82085125       3.86765862      -0.00229644      -0.00488481      -0.00125974
H        5.39259732       3.50152749       2.83500239      -0.00303264      -0.00775823       0.00029615
H        5.93589208       4.93466320       3.68579946      -0.00315993      -0.00514743      -0.00613340
H        1.49703472       3.69826211       4.70383597      -0.00015917      -0.00161943       0.00218708
H        2.00249437       5.03087525       5.71176043       0.00076337      -0.00343029       0.00310004
H        6.89970482       3.51931975       5.50052835       0.00378352       0.00243570      -0.00278398
H        7.55080482       2.99718108       3.94567740       0.00037879      -0.00056113      -0.00337507
H        6.25284150       2.07191310       4.73430810       0.00426489       0.00014654       0.00143831
H        1.11681727       6.67968685       4.05259793      -0.00304800      -0.00514551       0.00317974
H        0.61583580       5.36382741       2.99728127      -0.00273862      -0.00613435       0.00402063
H       -0.15947791       5.57859764       4.56694419      -0.00129694      -0.00652530       0.00484945
C        2.70632869       9.67853247       1.90956758      -0.00051373       0.00792196      -0.01399454
C        4.15925615       9.99456042       2.24181378      -0.00603935       0.00208291       0.01315753
C        2.49371156       8.26991266       1.36710548      -0.00361580      -0.00140008       0.00983454
C        4.36785495      11.40885337       2.77088341      -0.00364089       0.00898480      -0.01617698
C        1.04407610       7.98638308       0.99632202       0.00201523       0.00179722      -0.00953965
C        5.82462998      11.72300321       3.07362780      -0.00700083       0.01110391       0.00627249
H        2.09330449       9.82188982       2.80614540      -0.00585534       0.00219955       0.00377676
H        2.34006392      10.40690442       1.17661637      -0.00337277      -0.00011942       0.00235265
H        4.77456217       9.83967397       1.34636231      -0.00046004       0.00778752      -0.00778735
H        4.52615068       9.27289580       2.98274277      -0.00308511       0.00854103      -0.00678411
H        3.13163732       8.12278829       0.48934583       0.00192487       0.00439872      -0.00632247
H        2.83264459       7.54012274       2.10956462      -0.00001338       0.00631407      -0.00537091
H        3.98282368      12.12788888       2.04050555      -0.00578134       0.00224674       0.00593928
H        3.77661341      11.56272212       3.67641826      -0.00863194       0.00326499       0.00770554
H        0.38781156       8.10981386       1.86041902      -0.00223003      -0.00038844       0.00335959
H        0.91228389       6.96919052       0.62405421       0.00137980       0.00119922      -0.00082394
H        0.69712949       8.67253783       0.22023453      -0.00167759      -0.00182399       0.00167240
H        6.24109375      10.97990036       3.75572665      -0.00289880       0.00859430      -0.00416833
H        6.43867330      11.71473797       2.16915397      -0.00616066       0.01107594      -0.00528772
H        5.90853751      12.69679919       3.55566369      -0.00775302       0.00479186      -0.00089246
C       11.37260342       9.79816764       8.85060072       0.00102842       0.00161499       0.00071696
C        9.93626938       9.29084095       8.88058352       0.00195926      -0.00033411      -0.00019555
C       11.46617268      11.32040540       8.89317083       0.00506946       0.00161502       0.00425299
C        9.80774951       7.77317449       8.82656470       0.00345135      -0.00040460       0.00000776
C       12.89404678      11.84640166       8.84454295      -0.00098073       0.00126578      -0.00131340
C        8.36017324       7.29746005       8.83548169       0.00361782       0.00001390      -0.00174549
H       11.93127255       9.37497029       9.69446219       0.00332859       0.00042719      -0.00108594
H       11.87157751       9.42904596       7.94708541       0.00132166       0.00434010      -0.00089806
H        9.38877446       9.72746927       8.04013998       0.00252417       0.00051928       0.00200379
H        9.43771005       9.66243320       9.78395334       0.00234248      -0.00141444       0.00196916
H       10.88970338      11.73194326       8.05783027       0.02005176       0.01299515      -0.00389662
H       10.96786497      11.67889883       9.80107449       0.00381465      -0.00271228       0.00923505
H       10.31175880       7.40113544       7.92779565       0.00359093       0.00188009      -0.00249082
H       10.34500908       7.33416652       9.67427985       0.00447886      -0.00098048      -0.00250331
H       13.48873724      11.43150641       9.66195211       0.00061345       0.00623461      -0.00742126
H       12.92873036      12.93238184       8.93076928      -0.00412567       0.00242639      -0.00970927
H       13.39524197      11.59352296       7.90952101      -0.00893697      -0.00126773      -0.00682911
H        7.83888165       7.64656577       9.72929188       0.00431430      -0.00105612       0.00015195
H        7.81352088       7.68152297       7.97208123       0.00352303       0.00208223       0.00036854
H        8.28958145       6.20912210       8.81382606       0.00331302       0.00015008      -0.00302442
