150
Lattice="11.309846420511024 0.0 0.0 0.0 11.309846420511024 0.0 0.0 0.0 11.309846420511024" Properties=species:S:1:pos:R:3:forces:R:3 energy=-352712.46875 stress="0.0021071098744869232 0.0016769322683103383 -0.0005018296069465578 0.0016769322683103383 0.004304558038711548 -0.0003916721179848537 -0.0005018296069465578 -0.0003916721179848537 0.0038036343175917864" pbc="T T T"
La      11.55144573      11.68734449       1.10298999      -0.00451361       0.00327238      -0.00236608
P       10.43959385       8.78442290       1.07096041      -0.00601039       0.00134226      -0.00856968
O       11.76651254       9.29798821       1.71539799      -0.00352883       0.00013527      -0.01217413
O       10.67748017       7.46223902       0.32824296      -0.00891375       0.00343204      -0.01336616
O        9.36917158       8.58678344       2.18244859      -0.00234568      -0.00023080      -0.00492007
O       10.03537018       9.95498869       0.13747146      -0.00955528       0.00349742      -0.00581634
O        6.02001617       0.40130455       8.30540606      -0.00122507       0.01049790       0.00477374
H        6.66953021      -0.17285007       7.87195395       0.00084680       0.01344468       0.00492045
H        5.16125978      -0.04612012       8.20383431       0.00117418       0.00419873       0.00574079
O       -0.20194563       9.57290156       8.78825329      -0.00776356      -0.00177668       0.00814290
H       -0.94985684       9.58052270       9.41051092       0.00413232       0.00435491       0.02369593
H        0.41838004       8.91220094       9.20633718      -0.00120225       0.00043540       0.00078265
O        3.51843731       6.28085626       2.81285078       0.00363126      -0.01098862       0.01675799
H        3.27802879       5.56034648       2.19981822       0.00705300      -0.01036917       0.01491006
H        2.70763911       6.82657002       3.00576573       0.00373899      -0.00621150       0.00605983
O        1.11531155       1.63679305       3.06737169      -0.00886281      -0.00783689       0.00493407
H        0.55664255       2.12806466       3.70437970      -0.00234065      -0.00272828       0.00715247
H        1.99491042       2.09050566       3.16109165      -0.00455906      -0.01305195       0.00156596
O        9.82464926       2.37483914       8.43498563      -0.00352088      -0.00426793       0.00773171
H       10.70183622       2.56116340       8.06369858      -0.00232589      -0.01914461       0.00737697
H        9.77869618       1.41314530       8.46091610      -0.02088431      -0.00601745       0.01023344
O        6.88110226       9.73385015       1.52976491      -0.00925212      -0.00236690       0.00683342
H        6.35964594       8.97237384       1.22275942      -0.00781856      -0.00373237       0.00578844
H        7.79024419       9.39585624       1.67340228      -0.00813496      -0.00000472       0.00476303
O        3.66375264       3.83532540       7.50769182       0.00043003      -0.00999115       0.00395291
H        4.17894872       4.11343228       8.29733409      -0.00274245      -0.00739382       0.00472649
H        4.24310054       3.26681007       6.95726114       0.00441232      -0.00526298       0.00334818
O        6.49891389       8.97654074      10.03735900      -0.00585574       0.01041397       0.00410068
H        6.53804307       8.96363375       9.04600723       0.00461500       0.00300168       0.00381912
H        7.18195167       9.57525088      10.36047697      -0.00243156       0.00333237       0.00726872
O        8.65658116       7.29761071       6.76983504       0.00051938       0.00369798      -0.00003995
H        8.26562969       6.43322747       6.51514449       0.00328591       0.00429253      -0.00778749
H        9.04749934       7.14322840       7.66358084      -0.00866815      -0.00135521       0.00390685
O       11.25638166       4.94467615       1.45116780      -0.00763127       0.00466259      -0.01300927
H       10.57607595       4.71179387       2.09439879      -0.00548971       0.00253739      -0.00976029
H       11.01330277       5.81995491       1.07659626      -0.01265906       0.00198535      -0.01468278
O        8.18155181       3.48351963      11.00867828       0.01382400      -0.00257900      -0.02151904
H        7.58741767       2.70572962      10.88630576       0.01380166      -0.00377956      -0.01362063
H        8.55370177       3.66133774      10.13899828       0.03175410      -0.02536281      -0.01913989
O        9.36488294       6.66015383       9.31766512      -0.00843475      -0.02061988      -0.00493153
H        8.49710679       6.42590434       9.68536661      -0.00454949      -0.02774256       0.00115429
H        9.86326234       6.99229241      10.09492495      -0.00808010      -0.01074002      -0.00949179
O       10.55988307       0.43927394       5.71127595       0.00412717       0.00048515      -0.01154418
H       11.30604179      -0.19113838       5.83515779       0.00231910      -0.00001644      -0.00391155
H       10.89168969       1.35283204       5.66065115       0.00539073       0.00027350      -0.01027977
O        9.66842507       1.96185452       1.26976651      -0.00162105       0.00947362       0.00287239
H        8.89982784       1.70813169       1.83230086      -0.00158793       0.00798825       0.00014963
H        9.28059060       2.60395255       0.62388424       0.00080335       0.01277998       0.00237197
O        2.56614106       5.75882886       9.18871426       0.00519085       0.00464627      -0.01509697
H        2.07537806       5.39376243       8.44697241      -0.00569263       0.00801601      -0.00828581
H        2.00080190       6.47368103       9.56043917       0.01139713       0.00541785      -0.00494134
O        3.72938659       7.76179119       7.63342465       0.01281717      -0.00398131      -0.02185755
H        3.38458794       7.33852297       6.81991246       0.00361236       0.00040624      -0.01984951
H        3.48102994       7.09823733       8.31433909       0.00981895      -0.00208047      -0.02056370
O        1.10070430       0.26558938       9.94098396      -0.00726093       0.00233158      -0.00139195
H        0.58806906      -0.41840366       9.42854244      -0.00519735      -0.00000407      -0.00046654
H        1.27485751       1.00978694       9.32420837      -0.00644319       0.00020801      -0.00416121
O        2.58837586       0.58805771       6.05325095       0.00228623      -0.00242224       0.00540703
H        2.84050118      -0.03895927       6.76595006       0.01065468      -0.00126048       0.00397186
H        2.56521661       0.03263497       5.24477574       0.00314597      -0.00134897       0.00403706
O        9.95250796      11.18773318       3.08247673      -0.00820629      -0.00113285      -0.00700730
H       10.13775903      11.35869086       4.02988502      -0.00439470      -0.00027582      -0.00765550
H        9.63235296      10.26770421       2.99992043      -0.00784841      -0.00163433      -0.00546877
O        1.57270114       7.88056763       3.54165222       0.00467852       0.00213766      -0.01286122
H        0.84119848       7.44699096       4.00785828       0.00428668       0.01453059      -0.00177633
H        1.12420155       8.39834694       2.79676110       0.00360861      -0.00033331      -0.01352129
O        6.59733712       1.29311123      10.88744263       0.00800544      -0.00038335       0.00811571
H        6.39574001       0.80757432      10.06728415       0.00485419      -0.00194640       0.01122880
H        6.68876584       0.65808845      11.60935616       0.01654311       0.00097035       0.01064027
O       10.25644741       7.33858708       4.46903024       0.00538529       0.02107343       0.00924437
H        9.70235806       7.47134426       5.26623678      -0.00159381       0.01646372       0.00577393
H        9.87384163       7.86051388       3.72223349       0.00062722       0.00843870       0.00264597
O        2.80011844       5.88971101       5.80844834      -0.00871141      -0.01783617      -0.01067752
H        3.05759901       5.73893968       4.88883152      -0.00096296      -0.01999914      -0.01002561
H        3.19266612       5.15507565       6.32193769      -0.00687344      -0.01190016      -0.00582454
O        3.48583572       4.17775677       0.94078071       0.01111664      -0.01441295      -0.00328201
H        2.66766461       3.76033186       0.62642773       0.01033206      -0.01124932      -0.00429020
H        4.07141013       4.18149475       0.16103037       0.01359762      -0.01637374      -0.00304234
O        8.45569017      10.72953804       7.06306745       0.00303304       0.02486134      -0.00214345
H        9.27304615      11.07940429       6.64360323       0.00133872       0.02469074      -0.00785821
H        8.48229789       9.77198155       6.94966177       0.00889990       0.02425392       0.00661563
O        3.07907719      10.21480807       3.88654072      -0.00804172       0.00470826      -0.00129611
H        2.55732877       9.39136975       3.94684751      -0.00952470       0.00434323      -0.00423289
H        4.02268944       9.93610748       3.94048358      -0.00856125       0.00220368      -0.00495891
O        3.21863357       3.17133476       3.55244985       0.00077339      -0.02354762      -0.01901612
H        3.91350973       2.85411321       4.16498564       0.00464920      -0.01796548      -0.02109969
H        3.63151774       3.43167570       2.71353176      -0.00664236      -0.03053583      -0.02645724
O        7.10214149       3.01145324       7.77900271       0.00274918       0.00969505      -0.01413673
H        8.04556022       2.80255679       7.89597906       0.00100635       0.00640861      -0.00222417
H        6.64486050       2.15135481       7.78928748      -0.00145545       0.01252892      -0.01141514
O        7.85552118       6.37613216       1.92782172      -0.00405857       0.00146779       0.01011318
H        8.38633318       5.62768879       2.23520645      -0.00309190       0.00747646       0.02450592
H        8.45730170       7.16565611       1.99213690      -0.00418477       0.00268713      -0.00094002
O        1.45019018       2.23755192       7.99396553      -0.00457454      -0.00401256      -0.00699365
H        2.22357264       2.84913149       7.96567883      -0.00339958      -0.00478127      -0.00355670
H        1.62383470       1.66422481       7.22126623       0.00098769      -0.00610340      -0.00490595
O        6.78377663      11.75348519       5.02064842      -0.00827464       0.00139242      -0.00156198
H        6.37674935      10.90575764       4.72674096      -0.00433765      -0.00144740       0.00053359
H        7.40478473      11.47807497       5.72003022      -0.00627768       0.00739019       0.00160079
O        0.69584318       9.55117766       6.18109959      -0.00745212      -0.00640422       0.00596936
H        0.25654375       9.35650199       7.02872281      -0.00739584       0.00448552       0.00667381
H        0.48113289       8.82607299       5.58357973      -0.03553053      -0.00219513       0.00663793
O        6.30536453       8.70260311       7.41324061       0.00890548       0.00935462       0.00034371
H        6.99483385       8.07948213       7.11807966       0.00871602       0.01090371      -0.00455026
H        5.44800097       8.22805144       7.40487040       0.00877731       0.00912949      -0.00723197
O        9.46201414       4.77930411       3.90530347       0.01817508       0.01405530      -0.00121443
H        8.69156385       4.68156800       4.50697779       0.01282703       0.01344126      -0.00750848
H        9.79422770       5.68617404       4.10987950       0.02317525       0.00978087       0.00914665
O        2.69974240      -0.01018494       1.38788785      -0.00335044       0.00852637       0.00053399
H        2.88426930      -0.38347658       2.28234411      -0.00331424       0.01057710       0.00172540
H        3.09929733      -0.63935871       0.74594248       0.00478773       0.01160129       0.00221650
O        4.98617072       7.66070875       1.05730124      -0.00593858      -0.00475079       0.00774268
H        4.45185994       7.16970463       1.72797886      -0.00267152      -0.00440447       0.01045935
H        5.38156378       6.99702555       0.46860755      -0.01152645      -0.00556721       0.00432735
O        3.63018881       9.40515177      -0.35052264       0.00487533       0.00506519       0.00913230
H        4.30662401       9.65756241      -0.99423567       0.01249652      -0.00037160       0.01438931
H        4.10680857       8.72882948       0.20319754      -0.00363293       0.00055398       0.01127995
O        7.31306509       1.56107042       2.52219128       0.00227535      -0.02153954       0.02104712
H        6.75797524       2.34359075       2.48816146      -0.01499470      -0.00374182       0.01169570
H        7.22491196       1.19774179       3.42704048       0.00087706      -0.00992244      -0.00895732
O        5.71716945       9.52126410       3.93161968      -0.01021632      -0.00035134       0.00346749
H        5.87850150       8.58866111       4.16456272      -0.01088670      -0.00146236       0.00407295
H        6.14849731       9.64394636       3.04378572      -0.00930282      -0.00233869       0.00357200
O        4.72390038       2.17569647       5.61861236      -0.00028728       0.00289275      -0.00902748
H        3.98758792       1.53866137       5.78524247      -0.00159081       0.00502438      -0.00497355
H        5.51822618       1.61230209       5.49828762      -0.00263833      -0.00006398      -0.00868175
O        5.18493838       4.26021077       9.81264938      -0.00396115       0.00055793       0.01918128
H        5.87000252       3.61615256       9.58724240      -0.00578412      -0.00790693       0.04114631
H        5.70184253       5.06753693       9.99955799      -0.00111312       0.00134789       0.01152211
O        1.40200676       7.95181936      -1.20464401       0.00893244       0.00125310       0.00385019
H        2.13421860       8.47009993      -0.81461367       0.00478725       0.00401616       0.00839788
H        0.72480359       7.74494934      -0.49447986       0.00403999       0.00230029      -0.00120044
O        6.81705099       6.38139993      10.63509050      -0.00486321       0.00777589       0.00800408
H        6.79027641       7.35383673      10.45250739      -0.00262300       0.00744494       0.00624168
H        7.27736081       6.25936925      11.49262352      -0.00472825       0.00793448       0.00821296
O        3.42846096      10.42633326       8.20372706       0.00593993      -0.00930023      -0.00135592
H        2.80418011      10.59790201       8.92325616       0.00386584      -0.01856428      -0.00123778
H        3.39951136       9.45697149       8.02104067       0.01097114      -0.00838391      -0.00925221
O        0.92160862       2.84664520       0.14030241       0.00010523       0.00266480       0.00591525
H        0.78878001       2.99624648      -0.80221612       0.00988682       0.00744578       0.00568786
H        0.48092791       3.62041955       0.59257160       0.00206123       0.00629045       0.00410961
O       11.22548323       3.08728347       5.04986433       0.00754952       0.00063139       0.00200485
H       11.97183533       3.63565029       5.31503593       0.00791228      -0.00242254       0.00897457
H       10.56545715       3.70826841       4.64824327       0.01242655       0.00379211      -0.00056845
O        7.45624829       4.98975942       5.79182401       0.00359952       0.00241826      -0.01054292
H        7.12059907       4.29509898       6.39275554       0.01236276      -0.00314878      -0.01147658
H        6.71711783       5.39886595       5.29954679      -0.00334653       0.00293593      -0.00061170
O        6.03372290       6.61252563       4.05362225       0.00017364       0.00964432       0.01187482
H        6.62968853       6.54305842       3.27600849       0.00134036       0.00552814       0.01264229
H        5.14530555       6.42463980       3.69927159       0.00216928      -0.00427672       0.01369758
