146
Lattice="12.372996525055838 0.0 0.0 0.0 12.372996525055838 0.0 0.0 0.0 12.372996525055838" Properties=species:S:1:pos:R:3:forces:R:3 energy=-912908.625 stress="0.0005795518518425524 0.00024198749451898038 -0.0003033757384400815 0.00024198749451898038 0.001078704372048378 4.15137274103472e-05 -0.0003033757384400815 4.15137274103472e-05 -0.000541393761523068" pbc="T T T"
La      11.16241634      10.98773786       0.35834784       0.00202072      -0.00280315      -0.00672477
I        3.34153855       8.64929541       0.27156171       0.01085651      -0.01207972       0.00181258
O        0.66473339      10.91056312       0.36008412       0.00127983      -0.01077089       0.01025244
O        4.29459931       7.54444643      -0.80728172       0.01262116       0.00948989      -0.01713932
O        4.39967809       8.87748545       1.72965334       0.00833786      -0.03425140       0.00603282
O        1.98551018       7.57820529       0.85627312       0.01577079      -0.02558959      -0.00962490
I        1.14691818      11.10758407       6.70863499      -0.00129816      -0.00506745      -0.00713467
O        2.86181421      11.30853417       7.17287242       0.00777483       0.00722320       0.00713187
O        0.82826843      11.70608545       5.05057672      -0.00186504       0.01089522       0.02119696
O        0.65056173       9.38519365       6.79960472       0.00483257       0.01466334       0.00640533
O        0.12641054      12.02445701       7.85423597       0.00045639       0.00861400       0.02520692
I        8.25681822      12.05917469      10.09202605      -0.02341104       0.00923867       0.04036893
O        8.64906028      11.89408109       8.36848012       0.00640351      -0.00384356      -0.03834981
O        9.78744693      12.28452937      11.03223586       0.01220293      -0.00479674      -0.01723032
O        7.25181946      13.49995456      10.39710266       0.02438799      -0.00330472      -0.00491576
O        7.50513851      10.57088588      10.71972297       0.00868660       0.02548039      -0.01109910
O        7.98423562       5.50689866      12.38016050       0.01469406      -0.00595358       0.00390238
C        6.73059240       4.95637774      10.44269960      -0.00142866       0.00237140       0.01114604
C        8.17336528       4.48674659      10.26646231      -0.00552036      -0.00849860       0.00243288
C        6.85067549       5.94735986      11.59469597       0.01065291      -0.00073650       0.01233113
C        8.62065147       4.41449812      11.71697294       0.00476654      -0.00952569      -0.00063926
H        6.29887327       5.41463726       9.55401286      -0.00622287       0.00148514       0.01679310
H        6.10626949       4.10596119      10.72356252      -0.00379431       0.00261503       0.01801722
H        8.26322065       3.52613933       9.76208695      -0.01300033      -0.00488561       0.00166450
H        8.75874396       5.23354417       9.72407950      -0.00490879      -0.00710881      -0.00053364
H        7.04938285       6.95941515      11.22924365       0.01456884      -0.00079936       0.00936495
H        5.96051735       6.01125415      12.21873565       0.01708323       0.00447615       0.01720849
H        8.30032243       3.46325303      12.16343401       0.00018433      -0.00851971       0.00083193
H        9.70292320       4.51529008      11.84619907       0.00497150      -0.01678721      -0.00700013
O       11.27278468       9.23880547      10.87384316       0.00005905      -0.01148263      -0.00302354
C       12.29007687       7.72586064       9.34644070       0.01039615      -0.00905985       0.00017965
C       10.82062950       7.36879029       9.56528862       0.00865932      -0.00767064      -0.01279821
C       12.58485607       8.70910416      10.46988475       0.00312912      -0.00538763      -0.00178668
C       10.25765573       8.70325415      10.00771649       0.00410312      -0.01179749      -0.00701132
H       12.96467998       6.87156319       9.37271048       0.00952700      -0.00482988       0.00005084
H       12.41113095       8.21522318       8.37853817       0.01362148      -0.00452057      -0.00285232
H       10.34523144       6.99621471       8.65997513       0.01419380      -0.00749290      -0.01202533
H       10.69862639       6.63108880      10.36492378       0.00594119      -0.01141636      -0.01123083
H       13.01822135       8.24580804      11.35893938       0.00300692      -0.00612441       0.00077778
H       13.20223230       9.55308026      10.16238828       0.00016877      -0.00448143       0.00201914
H       10.11967185       9.38209820       9.15990331       0.00982909      -0.00785291      -0.01070684
H        9.32614702       8.65111503      10.57428118       0.00318357      -0.01228217      -0.01594222
O       10.01654840       7.31738322       6.24528075      -0.00502193       0.00177659      -0.01478577
C        7.69607577       7.61155690       5.96247409      -0.00664574       0.00631163       0.00577244
C        8.27207221       8.90208171       6.54504995       0.00137311       0.00416100       0.00279403
C        8.78086738       6.61041230       6.32541669      -0.00545412       0.00381327      -0.00533657
C        9.75405782       8.73897023       6.24194073      -0.00217199       0.00238681      -0.01125497
H        6.72134620       7.34425609       6.36579421      -0.00282100       0.00758950       0.01509130
H        7.60061221       7.69704674       4.87747592      -0.01694499       0.00814352       0.00721604
H        7.85655759       9.80234800       6.09749899      -0.00068469       0.00592327       0.00635570
H        8.09457888       8.94717794       7.62211322       0.01037500       0.00369689       0.00372890
H        8.63007371       6.23687350       7.35008656       0.00294384       0.00128753      -0.00521284
H        8.83412958       5.74339691       5.66041003      -0.01248801       0.00491214      -0.00803265
H        9.99838062       9.13202156       5.24855106      -0.01036012       0.00232565      -0.01219636
H       10.42653941       9.21960020       6.95237026       0.00587195      -0.00026590      -0.01578325
O        7.02930740      10.65012389       3.75949653      -0.00553838      -0.00795791       0.00591469
C        7.75793762      10.47420687       1.55307481      -0.00936094       0.00417955       0.00259137
C        6.60572080      11.47638134       1.55462582      -0.00993374       0.00466855       0.01051086
C        7.45418419       9.67931514       2.80846742      -0.00415131      -0.00203928      -0.00058532
C        6.36358286      11.71510115       3.05056402      -0.01322168      -0.00861998       0.01156551
H        7.78734497       9.87185353       0.64678376      -0.01046261       0.01004222       0.00009817
H        8.72117732      10.99797387       1.66763753      -0.00909446       0.00687088       0.00338234
H        6.82984826      12.39864662       1.02003908      -0.01230740       0.00631294       0.01754533
H        5.73429940      11.00685156       1.10091929      -0.01015249       0.00509116       0.00519799
H        6.64834359       8.96024763       2.60144605      -0.00315034      -0.00357953      -0.00274096
H        8.32605742       9.16874808       3.22476459      -0.00245366      -0.00158164      -0.00427923
H        6.79383062      12.65675896       3.39693968      -0.01642746      -0.00702453       0.01777646
H        5.29781439      11.69685278       3.29457765      -0.01199329      -0.01614888       0.01245055
O        2.99737430       9.33392243       4.87363569       0.00641738       0.01202345      -0.00219078
C        4.09866604       7.27328526       5.07990602       0.00244248       0.01011389      -0.00304347
C        2.61358479       6.99870114       4.84889397       0.00105971       0.01333690       0.00190264
C        4.04773458       8.70535235       5.59911520       0.00493139       0.01015687      -0.00395072
C        2.15894152       8.33696362       4.27977303       0.00275786       0.01324433       0.00045028
H        4.56305172       6.58158256       5.78300746       0.00240421       0.00961374      -0.00224534
H        4.63384094       7.23798969       4.12753834       0.00016563       0.00792315      -0.00314966
H        2.42466816       6.17892709       4.15632517      -0.00205109       0.01254521       0.00113480
H        2.11382477       6.78545939       5.79669185       0.00272332       0.01427219       0.00167757
H        3.81450746       8.72848393       6.67264948       0.00780964       0.01199661      -0.00323510
H        4.96543351       9.27447479       5.43300979       0.00760895       0.00856879      -0.00589283
H        2.30272833       8.35767150       3.19591897       0.00096524       0.01245522       0.00055438
H        1.12769313       8.57801729       4.53603465       0.00308967       0.01561448       0.00298026
O        6.47246916       1.67572369       6.09608698      -0.01358703       0.00069481      -0.00833464
C        5.29555403       2.61619315       7.94959886      -0.00049323       0.00209242      -0.00041538
C        4.35971171       1.77836832       7.05997553      -0.00545758      -0.00280195       0.00871722
C        6.68363034       2.41599369       7.29822983      -0.00545338       0.00136846      -0.01014167
C        5.33626875       0.84664175       6.36279215      -0.00869346      -0.00115974       0.00355899
H        4.99362038       3.66293450       7.97955485      -0.00209012       0.00195852      -0.00338065
H        5.31471962       2.24651592       8.97490366       0.00751328       0.00631721       0.00007960
H        3.59306070       1.22896800       7.60004757       0.00136808      -0.00503787       0.01808989
H        3.86881980       2.41285673       6.31801700      -0.01514675      -0.00724325       0.01317576
H        7.18532508       3.34961047       7.03064513      -0.00697337       0.00216529      -0.01454297
H        7.34299790       1.85340553       7.96478360      -0.00065014       0.00256640      -0.01468301
H        5.61871800       0.01644268       7.02410273      -0.00149435      -0.00020552       0.00022107
H        4.98012338       0.43015149       5.42339748      -0.01616299      -0.00338303       0.00499523
O       10.63416013       8.74934302       1.68913237      -0.00098987       0.00266698       0.00044695
C       11.84938044       6.84745108       2.39242205      -0.00377661       0.00230253       0.00765714
C       10.38764679       6.46248921       2.18277037      -0.00360918       0.00388533       0.00287363
C       11.76723165       8.35467425       2.52839659      -0.00160759       0.00335664       0.00219949
C        9.90474331       7.57360295       1.26908976       0.00106999       0.00093183      -0.00249046
H       12.29889038       6.38965193       3.27159643      -0.00908045       0.00564726       0.01198006
H       12.46584539       6.60319635       1.52534505      -0.00053912      -0.00208361       0.01171800
H       10.24305506       5.48372307       1.72847412      -0.00373314       0.00280461       0.00570573
H        9.84615678       6.48406823       3.13281190      -0.00789371       0.00897484       0.00039184
H       11.54407293       8.66428412       3.55195351      -0.00061826       0.00843881       0.00023073
H       12.65694785       8.86727279       2.16191540      -0.00133663       0.00161572      -0.00027859
H       10.15205611       7.36254161       0.22593504       0.00877714       0.00006922      -0.00092006
H        8.83851635       7.77615319       1.34230574       0.00163376       0.00242995      -0.00985941
O       11.04902501       0.84884116       1.77857789      -0.01507095      -0.00893202       0.00541693
C       11.17398879       2.67990610       3.30415681       0.00547110      -0.00693625       0.00174481
C       10.74884839       1.38652958       4.01501931       0.01219216      -0.00560407       0.00826120
C       11.26211268       2.27236196       1.81958778      -0.01082416      -0.00789556       0.00100499
C       11.34437989       0.33851193       3.10343207      -0.00281519      -0.00924353       0.00225402
H       10.46974252       3.49620145       3.45921282       0.00594088      -0.00687245       0.00686188
H       12.14884123       3.00753222       3.66555161       0.00794137      -0.00605956      -0.00920328
H       11.12598621       1.30145671       5.03137759       0.02543271      -0.00539727       0.00269094
H        9.66113947       1.29117960       4.02745669       0.01203606      -0.00414831       0.02226733
H       10.49022604       2.72512671       1.19816335      -0.01325288      -0.00791666       0.00749020
H       12.24266033       2.49551464       1.39076485      -0.01217902      -0.01364106      -0.00780405
H       12.42227920       0.23464412       3.23793955      -0.00024575      -0.01179934      -0.01021351
H       10.88061111      -0.64970023       3.19792301      -0.00383030      -0.00606427       0.00812055
O        6.57727653       2.72819595       2.53248939       0.00071332      -0.00098923      -0.00705868
C        6.30178734       4.50285517       4.10347450      -0.00000037       0.00890636      -0.01551414
C        4.99534210       4.24519332       3.35137511      -0.00477344      -0.00201535      -0.00410280
C        7.32052411       3.67631878       3.31012760      -0.00039516      -0.00217956      -0.00457418
C        5.20230615       2.80773463       2.90579464      -0.00219148       0.00161779      -0.01729122
H        6.56928492       5.55701514       4.14729946      -0.00326356      -0.00271967      -0.00890736
H        6.22424254       4.12124752       5.12181176      -0.00488213      -0.00096248      -0.00643206
H        4.11476169       4.36836607       3.98023434       0.00099918       0.00181390      -0.01666650
H        4.90367451       4.90973551       2.48998609       0.00156981       0.00351149      -0.01573092
H        7.89164604       4.29365884       2.61002435      -0.00072229       0.00241676      -0.00960895
H        8.01035119       3.14187849       3.97151760      -0.00157145       0.00318709      -0.00877154
H        4.99651138       2.11618835       3.73264342      -0.00400868      -0.00042844      -0.00988781
H        4.60603627       2.51487539       2.04032941       0.00293532       0.00195110      -0.01047704
O        2.05575751       4.84239589       9.12871682      -0.00495079      -0.00332177      -0.00223941
C        0.68805274       4.28724467      10.94540551       0.00033265       0.00304449       0.00483096
C        2.13659630       4.21197557      11.42768043       0.00194731       0.01140302       0.00234580
C        0.87063366       4.11853862       9.44481165      -0.00137866      -0.00378069       0.00605798
C        2.88124910       4.94122784      10.31174626       0.00110433       0.00057402      -0.00640553
H        0.04110401       3.52622596      11.37824829       0.00228572       0.00449565       0.01022975
H        0.27214319       5.27195392      11.17192617      -0.00044235       0.00566345      -0.00073641
H        2.29933196       4.69390121      12.39066992       0.00366038       0.01834998      -0.00324920
H        2.45193888       3.16747975      11.49527184       0.00494962       0.01162401       0.01109255
H        0.98427256       3.05728133       9.18375373       0.00134875      -0.00587219       0.01223274
H        0.05286992       4.53284173       8.84942031      -0.00390157      -0.01336175       0.00525838
H        3.03853185       5.99507261      10.55452180       0.00395176       0.00274742      -0.01332995
H        3.85640949       4.49806567      10.09852486      -0.00205749      -0.00450936      -0.00708377
