150
Lattice="11.692722928351658 0.0 0.0 0.0 11.692722928351658 0.0 0.0 0.0 11.692722928351658" Properties=species:S:1:pos:R:3:forces:R:3 energy=-67232.140625 stress="0.0005445397109724581 -1.3177532764530042e-05 -1.736402282404015e-05 -1.3177532764530042e-05 0.0010114950127899647 0.0007361348252743483 -1.736402282404015e-05 0.0007361348252743483 0.000678272801451385" pbc="T T T"
Li      11.39042662      11.27557794       0.42665172       0.01608644      -0.00280583       0.00659215
B        8.55712940      10.31336537       0.77257154       0.00780247       0.01327699       0.00332019
F        9.78764738      10.47488990       0.04102807       0.01187915       0.00032106       0.00764451
F        7.92685409       9.15712584       0.33379710      -0.00169110       0.01724476       0.00803599
F        8.88380226      10.22377096       2.13076545       0.00174390       0.01617196       0.00514168
F        7.77315388      11.43572437       0.53696959       0.01730040       0.01928905      -0.00490527
N       10.33718500       1.91912895       1.86394779      -0.01341689      -0.00295323       0.00395668
H       10.04623629       0.97376889       2.08773762      -0.01443864       0.00036745       0.00223093
H       11.24707628       1.88184788       1.41790959      -0.00706576      -0.00498279       0.00970101
H        9.68511252       2.28760745       1.17977850      -0.00603293      -0.00637627      -0.00567393
N        8.11950359       5.77327672      12.67600528      -0.00799781       0.00024374      -0.00373520
H        7.31591926       5.70705241      13.29679192      -0.00422616       0.00687309      -0.00509922
H        8.10067894       4.96124689      12.05943614      -0.00555120       0.01100230      -0.00477074
H        7.98420889       6.61111804      12.12058114      -0.00885123       0.01129782      -0.00842781
N        3.24565292       5.61209649       1.68264792       0.00408521       0.01073760       0.01100648
H        4.02627948       5.70432852       1.03611554       0.00697383       0.00822839       0.01441376
H        3.49426644       6.17713646       2.48896067      -0.00192599       0.02130133       0.00614080
H        2.48260594       6.11370031       1.23827195       0.00490019       0.00247221       0.00016392
N        6.57742566       3.59868845       8.33418750       0.00374284      -0.00317457      -0.00946926
H        6.28984606       2.65559100       8.08932467       0.00828954      -0.00484097      -0.01109068
H        6.51695026       4.17501396       7.49816736       0.00446989      -0.00444418      -0.00840175
H        5.88861101       3.97508422       8.97700161       0.00097186      -0.00557218      -0.00888817
N        3.39434088       8.77635784       0.35220240      -0.00055936      -0.00741088       0.00439447
H        3.29317562       8.62989367       1.35074709       0.00617216      -0.00646966       0.00398491
H        3.90912650       9.64262561       0.23974711       0.00416461      -0.00953564       0.00522631
H        3.99340866       8.02271916       0.01267942      -0.00679904      -0.01120286      -0.00094520
N        2.37271953       3.16248146      11.25051697      -0.00557332      -0.00039908       0.01290037
H        1.45556472       3.58861744      11.37890674      -0.00278805       0.00708722       0.01217454
H        2.70289234       3.49272522      10.34827482      -0.01077978      -0.01287159       0.00639321
H        2.96363038       3.62279381      11.93739102       0.00102936       0.00227547       0.00469987
N        7.16799433       6.07682961       5.98573146      -0.01430742      -0.00612947      -0.00813081
H        7.96054681       5.83292033       5.39505185      -0.00495796      -0.00024856       0.00298657
H        6.83442611       6.97800605       5.65995861      -0.01720170      -0.01114585      -0.02507643
H        7.52224887       6.23145294       6.93140925      -0.02846580       0.00981292      -0.00595963
N        0.89102146       0.32559642      10.72823648      -0.00188544       0.00497857      -0.00111684
H        0.38814455       0.55851773       9.87701869      -0.00382256      -0.00284635      -0.00283659
H        1.49937599      -0.43812339      10.43880751       0.00625563       0.01207113      -0.00207756
H        1.49878584       1.12097324      10.93619317      -0.00763097       0.00996435      -0.00672662
N        0.82089226       9.63441395       5.03896471      -0.00101702      -0.00842473       0.00711431
H        0.70988120       8.82949787       4.42628743      -0.00461717      -0.01051861       0.01025951
H        0.76025988       9.24283595       5.97444695      -0.00943054      -0.00508381       0.00799083
H        1.80243951       9.90199644       4.90993464       0.00109757      -0.01228701       0.01602884
N        5.15698984       6.26360600      10.73463928      -0.00737667      -0.00241271      -0.00565192
H        4.51138532       5.80106964      10.08906356      -0.01357025       0.00463237      -0.00484538
H        5.77192405       5.55562543      11.12189239      -0.00877057      -0.00621832      -0.01270640
H        5.75481434       6.84851795      10.15978982      -0.00694600      -0.00219813      -0.00706054
N       -0.01263524       4.67897830       8.95132901      -0.00026789      -0.00884624       0.01388328
H       -0.36375366       5.62440640       9.05143979       0.00258667      -0.00586739      -0.00017887
H       -0.10350302       4.24889280       9.86585011      -0.00938929       0.00441775       0.02036584
H       -0.63999404       4.21330143       8.29733489       0.00206531      -0.01287548       0.01612142
N        6.07867925      12.44438455       2.85771707       0.00653622      -0.00417867      -0.00859393
H        6.69928882      12.08381425       2.13956033      -0.01344860       0.01792499      -0.00711588
H        6.08622529      11.77580758       3.61845523       0.00255781      -0.01593364      -0.01589204
H        6.49638096      13.29300444       3.21790741       0.01871891      -0.00304578       0.02107158
N        0.69378624      10.81103949       2.08529580       0.02386373      -0.00611520       0.00130218
H        1.45290056      11.48062346       2.25927907       0.03107615      -0.01386046       0.00245701
H        0.21981176      10.69696439       2.97769085       0.02807138      -0.00877604       0.00361845
H        1.14971769       9.91735226       1.91850252       0.01278606      -0.00955833      -0.00964942
N        9.43068050       3.51184828       6.70820642       0.00293237       0.00974678       0.00306345
H        8.64992596       3.44216160       7.35550269       0.00210177       0.01673353       0.00123216
H        9.71418109       2.56252427       6.48817035       0.00517646       0.00614898       0.01593110
H        9.06186989       3.90151735       5.84224073       0.00559316      -0.00010191      -0.00268174
N        1.65580867      -0.13705643       7.50577574      -0.00493959       0.00053573      -0.00849047
H        1.46689199      -0.91501326       8.13713988      -0.00130223      -0.00049825      -0.00722713
H        2.65826133      -0.13452767       7.35242331      -0.00231046      -0.00324598      -0.01266389
H        1.23940774      -0.37304156       6.61185802      -0.00551449       0.00234019      -0.00414258
N        1.03157820       6.77593255       3.52042024      -0.00369914      -0.00140269      -0.00040071
H        0.46776254       7.13602680       2.74838956      -0.00756489      -0.00799913      -0.00024371
H        0.40211884       6.58911829       4.30611288      -0.00020023      -0.00590851       0.00180446
H        1.35711695       5.86726134       3.21496002       0.00708198       0.00262562      -0.00026763
N        2.52927464       4.07338608       4.73207411       0.00310796      -0.00769228      -0.00972000
H        2.60068352       4.17205806       3.72223842       0.01085213       0.01659346      -0.00782777
H        2.58090112       5.01624162       5.10530043       0.00425179      -0.01551992       0.00949803
H        1.58340504       3.76423874       4.93189105      -0.00157052      -0.00169425      -0.02331122
N       10.78946784       7.76188554       1.21050284      -0.00539637       0.00359300       0.00128853
H       10.77303513       8.02758855       0.23144453      -0.01700262       0.00768871       0.00315880
H       10.41241671       8.56895066       1.69821493       0.00428542       0.00204083       0.01159104
H       10.07608272       7.04115653       1.30597675      -0.00931595       0.00671138       0.00495628
N        3.11917414       5.25210659       8.47035668      -0.00545503       0.00950855      -0.00439335
H        3.40601520       4.65294100       7.70355073      -0.00178126       0.00265332       0.00262869
H        3.13304571       6.18601462       8.06519622      -0.01363614       0.00521975      -0.01490835
H        2.13261416       5.02939764       8.62346652      -0.00285903       0.00213112       0.00369419
N        3.87128143      10.37515766       4.46634482       0.00559720      -0.00031500       0.00960225
H        3.75800428      11.05624169       3.72188664      -0.02504272      -0.00732598       0.00744174
H        4.55840952       9.69105475       4.14921750       0.00939506       0.00767063       0.00115797
H        4.27324435      10.87915569       5.24880250       0.01814258       0.01829564      -0.00790882
N       11.12991774       6.25069222       6.14670314       0.00968230      -0.00092267       0.00519589
H       10.59264877       7.10378555       6.32908549       0.00856222      -0.00242767       0.00877739
H       11.95888310       6.27345389       6.73007792       0.01554978       0.00565952      -0.00113805
H       10.58215145       5.44926029       6.45186788       0.01713015      -0.00254667       0.01122205
N        5.67226292       0.04270556       7.71449649       0.00463584      -0.00511514      -0.00842213
H        4.97934104       0.67943472       7.30982712       0.00318202      -0.00474176      -0.00524371
H        5.21124391      -0.47352639       8.45396452      -0.00264330      -0.01425340      -0.01240546
H        5.94820219      -0.63487306       7.01443648       0.01234915       0.00384891      -0.00697370
N        5.94725456       4.81904849       3.31685399       0.00687238      -0.00071388       0.00313090
H        5.00530258       4.46175141       3.43468808       0.00006868      -0.00047272      -0.02851802
H        6.32663874       4.96345951       4.25114447      -0.02214663      -0.00831629       0.01682353
H        6.48268420       4.06091180       2.91033042       0.01799115       0.00687908       0.01044843
N        2.97791458       1.33644500       2.43716977       0.00715937      -0.02121279       0.00068995
H        2.94921536       1.90629205       3.27632105      -0.03613665      -0.00483385      -0.00621053
H        2.69897777       1.93317150       1.66406264       0.00421514      -0.03806723      -0.00923844
H        3.96992323       1.13391910       2.29734808       0.01764101       0.01908014       0.02778359
N       10.38704516       0.58427584       8.13751811       0.00755738       0.00378425       0.00224161
H       11.34525947       0.85709409       7.92884810       0.00658217       0.00246971       0.00577828
H        9.90738649       1.39940865       8.50304230       0.00414241       0.00352627       0.00311205
H        9.96913320       0.39046544       7.22843924       0.00879962       0.00195391       0.00148349
N        6.05333037       8.20838941       3.06815299       0.00494066       0.00207199      -0.00676531
H        5.82470082       8.50913888       2.12565924      -0.00395407      -0.01056506      -0.00876059
H        5.92480241       7.19764246       3.07989005       0.02080439      -0.00030772       0.00150302
H        7.05356924       8.36347269       3.14818948       0.00278727       0.02121839      -0.01506104
N        3.60158235       2.17852112       7.10720756       0.00695488      -0.00113273      -0.01077394
H        3.45355743       2.78261870       6.30088854       0.01403865      -0.00556046      -0.01210308
H        4.02247283       2.73795404       7.83786338       0.00831263       0.00368449      -0.01007314
H        2.68692939       1.89059418       7.44302135       0.00493106       0.00666813      -0.01248646
N        8.16987144      10.14704902       8.98849257       0.00011170      -0.00545989       0.01156248
H        7.55708705      10.86578772       8.61081497       0.00075612      -0.00835927       0.00779331
H        9.06616787      10.61252163       9.11851405       0.00398985      -0.00574433       0.00338476
H        7.81854026       9.94104301       9.91689220       0.00291323       0.00231751       0.01285508
N        9.51221617       8.89993922       6.44786701      -0.00776401      -0.00968918       0.00755094
H        8.96820179       9.19237279       7.26254963      -0.00519309      -0.01311136       0.01274247
H        8.85527756       8.75820405       5.68909569       0.00184092      -0.01091594       0.01504092
H       10.08287698       9.69322079       6.17867314      -0.01364631       0.00765484       0.01207343
N       11.36674972       4.57332780       0.55130186      -0.00770494       0.00682566       0.00161287
H       11.78903722       5.49664716       0.57912730      -0.02265776       0.01373397       0.01267474
H       11.45917726       4.21692026       1.49834544       0.00774875      -0.00535900      -0.00476587
H       10.36917433       4.74539201       0.45080141      -0.01156351      -0.00629897       0.01357774
N        8.63927052       3.10684077      10.69569077      -0.00683693       0.00431922       0.00092733
H        9.61730211       3.17775974      10.43684697      -0.00923757       0.00068286      -0.00511177
H        8.09348673       3.32083494       9.85692575      -0.01038416       0.00409631       0.00377028
H        8.45980082       2.12782105      10.89981766      -0.00904656       0.00283331       0.00078550
N        8.27302407       6.63440830       8.92346022       0.01570770      -0.00509726      -0.01090842
H        8.22253827       7.59516068       9.24846511       0.01351607       0.03235383      -0.00897759
H        9.19082148       6.51747871       8.50961687       0.00231622       0.00862666      -0.01986019
H        8.21767536       6.00659640       9.71634457       0.01079282       0.03626844      -0.03104823
N       10.15225959       0.25261621       4.84096705       0.00130192      -0.01026368       0.00999293
H       10.44540693       1.07271584       4.32072953      -0.00500918      -0.00216826       0.01825557
H        9.43185837      -0.19149090       4.28061024       0.00660088      -0.00996210       0.00450957
H       10.94297072      -0.39228674       4.85957768       0.00677499      -0.00480903       0.00454839
N        9.43301212       4.76462278       3.79598910      -0.00367574      -0.00497651      -0.00286517
H       10.20079068       5.29647700       4.19846814       0.00025546      -0.00821956      -0.00198865
H        9.15596344       5.23326767       2.93600907      -0.00517515       0.00461355       0.00374060
H        9.81265437       3.86667845       3.50813921      -0.00409955      -0.00080839      -0.01457812
N        1.44781914       9.02413703       9.47914517      -0.00271875      -0.00721180       0.00625092
H        0.46328151       8.79588575       9.55089700       0.00593107      -0.01427931       0.00480305
H        1.89592597       8.79621035      10.36759429       0.00170806      -0.00607611       0.00595549
H        1.84029848       8.40308811       8.77984716       0.00484619      -0.00945376       0.00489024
N        3.35508460       7.43970879       6.08790222      -0.01491703       0.00454110      -0.01167336
H        3.69926108       8.39361927       6.05619754      -0.02568001       0.00977215      -0.01893114
H        2.76714562       7.35892825       5.25930156      -0.01720438      -0.00464204      -0.00957815
H        4.16656635       6.84779639       5.93699955      -0.00995900       0.01369610      -0.01218550
