146
Lattice="12.188291919381658 0.0 0.0 0.0 12.188291919381658 0.0 0.0 0.0 12.188291919381658" Properties=species:S:1:pos:R:3:forces:R:3 energy=-137978.46875 stress="-0.0018801952246576548 -0.0005401401431299746 4.403777529660147e-05 -0.0005401401431299746 -0.002203842159360647 -5.863874866918195e-05 4.403777529660147e-05 -5.863874866918195e-05 -0.0022617585491389036" pbc="T T T"
Li      11.39436627      12.40432460      -0.63073631       0.00415735      -0.00506222      -0.00069325
O       11.76448887      10.19953843       2.65529848      -0.00941648       0.00327879       0.00295889
O       11.51888876       9.61284954       0.52535173      -0.01586089       0.00630593       0.00336123
O       11.54904956      11.79429907       1.09389548       0.00347560       0.00541377       0.00344004
C       11.60832545      10.54550898       1.31876020      -0.00726847       0.00507146       0.00362134
H       11.83432974      11.03611440       3.12645413      -0.00243625       0.00199214       0.00379371
O        6.47132120       8.74054759       8.48801523       0.01533759       0.00374158      -0.01073471
O        6.32665594      10.38891556       9.98972307       0.00070007      -0.00580078      -0.00454710
O        5.51610471       8.33155143      10.49119991       0.00395119      -0.00675523      -0.01346266
C        7.21566685       9.82572393       7.93842577       0.00898403       0.01071799      -0.00369272
C        6.75032527      11.00840978       8.77100587       0.00245453       0.00328845       0.00241567
C        6.03924152       9.08383974       9.74360239       0.01544076       0.00959551      -0.02342129
H        6.98116606       9.90703507       6.88147825       0.01030798       0.01792546      -0.00504285
H        8.28295340       9.62933839       8.06383691       0.01199254       0.01838527      -0.00684689
H        7.54082447      11.72140857       8.99758648       0.00010866       0.00703362       0.00717277
H        5.89322716      11.50450281       8.31282578       0.00332323       0.00522085       0.00040244
O        5.39540817       1.48884232      10.26772309      -0.01215404       0.00944985      -0.00610372
O        4.82346285       1.64010264       8.11981101       0.01060249       0.00846303      -0.01165920
O        3.58403429       0.38140745       9.51258267      -0.00513291       0.01228654      -0.02357519
C        6.31518989       2.44899073       9.71438351      -0.00128135       0.00301558       0.00274634
C        6.07040307       2.34199202       8.20790567       0.00803126       0.01037111       0.00059503
C        4.51423739       1.10383043       9.32648390      -0.00298953       0.00987095      -0.01474586
H        7.32233791       2.16745316      10.01845807      -0.00562635      -0.00611813       0.00765144
H        6.06565816       3.42801735      10.12203470       0.00427167       0.00331527       0.00435522
H        5.96917388       3.30080263       7.70342855       0.00909719       0.01285988       0.00559567
H        6.83533534       1.74617291       7.70225348       0.01229590       0.01536521       0.00200798
O       10.35403498      10.19206601      10.13858770       0.00588414      -0.00206053      -0.00737462
O       12.35428032       9.33087269       9.73430212       0.00611636      -0.01025951       0.01379912
O       12.12926169      11.54498380       9.99420433       0.01164934      -0.00905854       0.00540271
C       10.14453392       8.76979688      10.26382875      -0.00005454      -0.00040916      -0.00396948
C       11.52130595       8.17209859       9.96853866      -0.00065044      -0.00625128       0.00690385
C       11.66024630      10.42826413       9.96966374       0.00802529      -0.00704467       0.00409491
H        9.37826227       8.47745570       9.54977203       0.00420469      -0.00010028      -0.00822636
H        9.80921480       8.56991622      11.27433365      -0.00732206       0.00426096      -0.00576186
H       11.94817849       7.63286835      10.80780874      -0.00995198      -0.00806890       0.01024550
H       11.56138673       7.54596591       9.08203774       0.00362668      -0.00642337       0.00740668
O        8.42708537       7.44294624       6.17432384       0.00939336      -0.00482029       0.00249656
O        9.83230356       5.71647611       6.17025978       0.00141978      -0.01045829      -0.00222120
O        7.64353887       5.35358201       6.50691021       0.00091130      -0.00158352       0.00708596
C        9.69490007       8.01559990       5.82569216       0.01045076      -0.01065344      -0.00244066
C       10.68406349       6.85714235       5.99902886       0.00593853      -0.01399777      -0.00268703
C        8.54593601       6.10192065       6.28751088       0.00605309      -0.00274688       0.00215639
H        9.89013821       8.84650316       6.50423952       0.01522514      -0.00954716      -0.00514358
H        9.63407681       8.37808463       4.80105915       0.00912595      -0.01295745      -0.00315240
H       11.32409866       6.68356531       5.13616288       0.00492431      -0.01702810      -0.00267407
H       11.30678027       6.95089627       6.88983984       0.00708981      -0.01683986      -0.00314900
O        7.13626723      12.80741814       0.96110782       0.00367203       0.01879624       0.00913621
O        6.83469700      10.59956615       0.93694193      -0.01234096       0.02145645       0.02006260
O        5.04246612      11.97328351       0.86778477      -0.00056553       0.03175998       0.02885859
C        8.44914709      12.24151229       0.83159667      -0.00155199       0.00977170      -0.00218683
C        8.22971499      10.78298870       1.20246303      -0.00797917       0.01147223       0.00054342
C        6.21615949      11.80545993       0.90157921      -0.00489688       0.02570723       0.02127939
H        9.12914933      12.77135403       1.49350257       0.00790739       0.00518192      -0.00879195
H        8.77841620      12.36309711      -0.19827933      -0.01069361       0.00818589      -0.00483876
H        8.80571485      10.08754064       0.59743857      -0.02242634       0.00764436      -0.00781542
H        8.40924527      10.57177164       2.26052687       0.00559948       0.00969310      -0.00273257
O        3.26833061       7.88491664       6.10786743       0.00610762       0.01008576       0.01435632
O        2.01088308       8.13069074       4.28517917      -0.00377643      -0.01715128       0.01856818
O        3.90266354       6.89717838       4.18624043       0.00958484      -0.00013208       0.01859546
C        2.06503309       8.53054255       6.55828380       0.00217193       0.00226992       0.01434314
C        1.47738240       9.04327528       5.25236764      -0.00826117      -0.01483542       0.01331517
C        3.13333388       7.56153516       4.80067042       0.00081176       0.00072253       0.02049711
H        2.32916299       9.30982490       7.26862239      -0.00240712       0.01124644       0.00617969
H        1.44288441       7.77959708       7.04720270       0.01170427       0.00099054       0.02415481
H        0.39177515       9.01050840       5.19314282      -0.00811091      -0.02615038       0.01908686
H        1.82135416      10.05205519       5.00711805      -0.01998559      -0.01354146       0.00333176
O        9.43898193       6.42151929       2.96605192      -0.00237021      -0.00651374      -0.00693268
O       11.48026648       5.67400532       2.52877588      -0.00125450      -0.00072569      -0.00987118
O        9.97785349       4.29818604       3.46042087       0.00426021      -0.00471997      -0.00710344
C       10.02825604       7.46410687       2.15690196      -0.00705528      -0.00555050      -0.00861789
C       11.47580082       7.00570639       1.97245900      -0.00592929      -0.00075352      -0.00920518
C       10.27601267       5.37065856       3.00351954       0.00062285      -0.00365967      -0.00805911
H        9.95243628       8.40744869       2.69044695      -0.01003541      -0.00531799      -0.00991505
H        9.46506859       7.51228177       1.22939598      -0.00806850      -0.00863359      -0.00801098
H       11.76898342       6.93099033       0.93145030      -0.00608717       0.00079445      -0.00921309
H       12.19696948       7.61213167       2.51445046      -0.00802904       0.00135177      -0.00912139
O       11.66314557       2.22976883       4.76985450       0.00804752       0.00595690      -0.00243263
O       12.86960899       3.27295740       3.21919265       0.01457270       0.00826130       0.00438187
O       12.70189802       4.16180132       5.28434565      -0.00215110       0.00891846       0.00071943
C       11.61262077       1.38305559       3.61884222       0.01408453       0.00692841      -0.00295478
C       12.13792911       2.26891867       2.49887703       0.02139204       0.00697674       0.00057346
C       12.43543902       3.32237947       4.48130730       0.00611745       0.00782681       0.00148740
H       10.58801532       1.04973387       3.46294986       0.01469502       0.00904203      -0.00905544
H       12.26891807       0.52775066       3.80382873       0.01186144       0.00628355      -0.00027716
H       12.81376795       1.74420157       1.83247766       0.02721345       0.00797331       0.00624083
H       11.33860562       2.75900240       1.94270695       0.02483982       0.00558424      -0.00492083
O        6.31425682       0.54116531       4.80689760       0.00717619      -0.00487002      -0.00997686
O        6.60449107       2.75052736       4.77833502      -0.01004541      -0.00278066       0.00051712
O        4.52693953       1.90276927       4.58124859      -0.00184643      -0.01925181      -0.01414608
C        7.71570056       0.72708095       5.01852202       0.00323047       0.00562873       0.00389053
C        7.93411848       2.21748652       4.74498963      -0.00606430       0.00678220       0.00614162
C        5.69708825       1.75531999       4.70834401      -0.00177783      -0.00999172      -0.00821616
H        8.25669667       0.08101727       4.32622224       0.01474486       0.00967695       0.00967814
H        7.95137156       0.43778669       6.04554162      -0.00499031       0.00772292       0.00602996
H        8.52674336       2.74108624       5.49156280      -0.01397800       0.00943241       0.01005238
H        8.36662206       2.41265602       3.76516856      -0.00224644       0.01145250       0.00902742
O        4.77124144       9.14167969       2.43499247       0.00336450      -0.02199179      -0.00302398
O        6.70977252       8.61018980       3.39863278       0.00697947      -0.00112804      -0.00184557
O        6.08830139       7.55307730       1.51301918       0.02241737      -0.00658345      -0.00713813
C        4.92168120      10.07174948       3.51141117      -0.01173863      -0.02453819       0.00134486
C        6.05055255       9.46435326       4.33625820      -0.00151640      -0.00779411      -0.00180060
C        5.85919550       8.35891480       2.35661723       0.00980546      -0.00225621       0.00343835
H        3.97959184      10.14431245       4.05034461      -0.01232469      -0.04471268       0.00309360
H        5.16205524      11.05134498       3.10485952      -0.03054146      -0.01818848       0.00577009
H        6.76180498      10.21022747       4.68564931      -0.01039127       0.00250068      -0.00532881
H        5.69506969       8.85704969       5.16962521       0.00943364      -0.00978068       0.00126240
O        1.54911104       3.84495413       9.38334839      -0.00023057      -0.00799039       0.00197890
O        2.06211171       5.09536078      11.14459503      -0.01843216       0.00922683      -0.00553912
O        1.39018592       6.08797595       9.23694256      -0.00617534      -0.00895393      -0.01659632
C        1.65386639       2.93076309      10.49963182      -0.00655076       0.00261509       0.01141840
C        2.45235201       3.74388199      11.48975591      -0.01684687       0.01421508       0.00951147
C        1.65407476       5.10391391       9.86874295      -0.00833946      -0.00380760      -0.00835130
H        2.12882624       2.01464797      10.15690359      -0.00094885       0.00124934       0.02356035
H        0.64338113       2.72996354      10.85783073      -0.00878608       0.00310298       0.00489108
H        2.20421587       3.57361217      12.53344230      -0.02401696       0.02348742       0.00883144
H        3.52524834       3.66225563      11.33634705      -0.01582730       0.01698109       0.01758854
O        6.83219083       4.43997995       0.64142529      -0.00584632       0.00365224      -0.00442943
O        4.77290405       4.83589071       1.36852555      -0.00821966      -0.00075751      -0.01042950
O        5.24116795       5.02905610      -0.82247977      -0.00276971       0.00181127      -0.00785518
C        6.83078619       4.02838722       2.02675934      -0.00725466       0.00362140      -0.00450905
C        5.57438790       4.68517240       2.56620047      -0.01431286      -0.00685963      -0.00787008
C        5.58085401       4.81068149       0.30955587      -0.00483340       0.00121498      -0.00755852
H        7.75075290       4.37462364       2.48924857      -0.01128718       0.01071481      -0.00234014
H        6.77549061       2.93877339       2.03618446       0.00113223       0.00368917      -0.00382048
H        5.01758323       4.08386041       3.27531244      -0.01560715      -0.01652443      -0.01728782
H        5.76064181       5.67496959       2.97023597      -0.02249178      -0.01008797       0.00252917
O        9.84652306       1.00056432       8.54276726       0.01037300      -0.01030552      -0.00862257
O       11.21849974       2.63235344       9.12658757      -0.00336492      -0.00126979      -0.00300220
O       10.19827809       1.44868439      10.72016110       0.00241849      -0.01163301      -0.00759971
C       10.60132798       1.30996185       7.34453821       0.00882821      -0.00143710      -0.00696063
C       11.24865637       2.64344344       7.67772838      -0.00083271       0.00184780      -0.00274131
C       10.40856164       1.68305176       9.55275951       0.00307408      -0.00822861      -0.00657773
H        9.91547585       1.35916100       6.50932653       0.00919630      -0.00382794      -0.00724296
H       11.33023389       0.51198816       7.20068449       0.01440245       0.00443688      -0.00912086
H       12.28078621       2.74261946       7.36450087      -0.00110370       0.00951047      -0.00033157
H       10.67966267       3.50134647       7.32245305      -0.00567681      -0.00134143      -0.00192827
O        8.57020779       6.33418863      11.06095372       0.01219271      -0.00442971      -0.00064066
O        9.20501406       4.29009692      10.47414460      -0.01482403      -0.01274414       0.00196588
O        9.83605170       5.11259814      12.47016267      -0.00203156      -0.01741596      -0.00176048
C        7.84138888       6.02878654       9.84149513       0.00704265       0.00278053       0.00116133
C        8.68015133       4.90181622       9.28284770      -0.00765696      -0.00772563       0.00196847
C        9.24322270       5.23275652      11.43910938      -0.00051329      -0.01244599       0.00109798
H        7.80131827       6.91525719       9.21657844       0.01759856       0.00169975      -0.00055245
H        6.83158045       5.73410689      10.12273310       0.00394726       0.01529843       0.00228083
H        8.12540423       4.16621311       8.71025473      -0.01670441      -0.00078803       0.00277926
H        9.52442618       5.25796316       8.68633740      -0.00412691      -0.01829116       0.00129551
