142
Lattice="12.547911815865763 0.0 0.0 0.0 12.547911815865763 0.0 0.0 0.0 12.547911815865763" Properties=species:S:1:pos:R:3:forces:R:3 energy=-408275.8125 stress="-0.0033731884323060513 -0.0003357608220539987 -0.0010042451904155314 -0.0003357608220539987 -0.002455397043377161 -0.0009745779098011553 -0.0010042451904155314 -0.0009745779098011553 -0.0015234482707455754" pbc="T T T"
Li      13.68471611      11.29924776       1.76258986       0.00159909      -0.00995753       0.01805665
I       12.51369649      11.77039974       4.00550835       0.00081432      -0.01138073       0.01825228
S        8.11581602      11.45877271       9.12729427      -0.00967157       0.01563883       0.01468647
O        7.94530083      11.61349739      10.60774497      -0.02337602       0.03981495       0.01089406
C        9.49978542      12.51913751       8.64785291      -0.00418252       0.00348175       0.01360253
C        6.82715004      12.47148826       8.37411914       0.00171462       0.00369364      -0.01328611
H       10.42591061      11.97313781       8.81941610      -0.00750877       0.00835118       0.03775608
H        9.46201750      13.43346663       9.24028056      -0.00869327       0.01749282      -0.01049668
H        9.41749170      12.76193100       7.59165507       0.01121416      -0.02209525       0.00813676
H        6.81440219      12.31021425       7.29795382       0.01189005      -0.01875686      -0.00858359
H        6.99191870      13.52330518       8.60357406       0.00238319       0.00704256      -0.03306183
H        5.88791987      12.13378736       8.80726479      -0.00323586       0.01441393      -0.01883516
S        5.42829342       2.38668699      10.51074134      -0.00544053      -0.00440216       0.00208080
O        4.54592213       1.76214756      11.54157639       0.00224614       0.00041252       0.00342655
C        7.09467910       2.37840516      11.19399572      -0.00155872       0.00065545      -0.00828403
C        5.18230030       4.17249874      10.60853438      -0.00483489      -0.00384957      -0.00222449
H        7.41048078       1.33475703      11.23705667      -0.00120753       0.00098243      -0.00857043
H        7.05669453       2.81054221      12.19502885       0.00217205       0.00242282      -0.00924689
H        7.75578769       2.94756602      10.53804254      -0.00637658       0.00006256      -0.01267028
H        5.95975177       4.66579809      10.02507450      -0.00967409      -0.00432595      -0.00817567
H        5.22395008       4.47641634      11.65523565       0.00168797      -0.00183867      -0.00332965
H        4.20355994       4.39094552      10.18689134      -0.00849828      -0.00674666       0.00555089
S       12.10086147      10.20826398      12.38173830      -0.01244831       0.00635958       0.00843540
O       13.24505008      11.20551052      12.48103607      -0.00669056      -0.00304765       0.02206026
C       12.19076155       9.47879783      10.75583192       0.00459122       0.00472687       0.01096284
C       10.64067614      11.19613703      12.15798973      -0.00081542       0.01726577      -0.01203851
H       13.10673526       8.89505732      10.69355393       0.00228496       0.00035612       0.02403230
H       12.17602802      10.25557424       9.99240383       0.01944933       0.00296971       0.00951707
H       11.32229431       8.82904365      10.66100843       0.00373784       0.00898664       0.00012745
H        9.76504405      10.54879815      12.10718798      -0.00380293       0.02381410      -0.02358753
H       10.74920499      11.81949867      11.27251658       0.01684815       0.01723266      -0.00917234
H       10.59155540      11.81510064      13.05306863      -0.00960772       0.01752863      -0.01345989
S       10.07887682       8.52105969       8.23341126      -0.00066733       0.00771487       0.00518659
O        8.79536505       7.96439291       8.76014579      -0.00244975       0.00753832       0.00254500
C        9.89898086       8.75711544       6.45584999       0.00269075       0.00534453       0.00524497
C       11.25766451       7.16174283       8.21596025      -0.00172096       0.00740474       0.00877336
H        9.09701385       9.48403059       6.33689082       0.00354603       0.00540259       0.00263444
H        9.61429181       7.83058857       5.96095235       0.00280022       0.00470036       0.00663395
H       10.83208371       9.15610721       6.05463883       0.00369397       0.00391059       0.00634234
H       12.17636441       7.46592149       7.70811484      -0.00071438       0.00538690       0.00997690
H       10.78596056       6.29256512       7.75993707      -0.00160511       0.00789547       0.00830267
H       11.47420835       6.92964396       9.25768411      -0.00412551       0.00761967       0.00904660
S        2.01288035       7.94498971       5.72081863      -0.00417224      -0.00766045      -0.00046754
O        1.59901276       8.24496802       7.13430615      -0.00092760      -0.00719032       0.00199544
C        3.23195978       6.62430017       5.80259161      -0.00207752      -0.00460756      -0.00191605
C        3.14714493       9.24055924       5.20489162      -0.00825399      -0.00651687      -0.00298812
H        2.72200655       5.73432960       6.16611138       0.00240207      -0.00510888       0.00163782
H        4.02639362       6.93513284       6.48234872      -0.00009708       0.00028630      -0.00693519
H        3.60999192       6.44735644       4.79553592      -0.00454507      -0.00512327      -0.00271231
H        3.47779071       9.01337816       4.19148410      -0.00971105      -0.00739834      -0.00344311
H        3.98722908       9.26690406       5.90006218      -0.00671691      -0.00459865      -0.00484014
H        2.57923020      10.16908441       5.19583818      -0.00958495      -0.00812174      -0.00303846
S       11.14810220       4.34917667       1.35651130       0.00312424      -0.00662035      -0.00004530
O       12.13251707       4.99250715       0.42351394       0.00021827      -0.00309390       0.00028801
C       11.83743302       2.74571099       1.79566980       0.00660411      -0.00626087      -0.00556599
C        9.82048773       3.72716922       0.31453159       0.00277364      -0.00672060       0.00099787
H       12.65064743       2.91438616       2.49990458       0.00862286      -0.00573570      -0.00837845
H       12.20955686       2.26928470       0.88831609       0.00433381      -0.00335112      -0.00774106
H       11.06481268       2.14417680       2.27013019       0.01001535      -0.00888723      -0.00399083
H        9.09028689       3.24046885       0.96032574       0.00499742      -0.00943621       0.00094032
H       10.23694212       3.04495563      -0.42699190       0.00256827      -0.00378641      -0.00137952
H        9.38763069       4.59496903      -0.17927309       0.00014050      -0.00657162       0.00420615
S        8.73808624       1.40577907       3.81410781       0.00698230       0.00090551       0.00018565
O        8.71812980       2.79960995       3.26539609       0.00880598       0.00252604       0.00391930
C        7.21478269       1.16775444       4.74937490       0.00250828      -0.00210813      -0.00951362
C        9.86976331       1.38848833       5.21141313      -0.00123847      -0.00153591       0.00608110
H        6.38311755       1.43320017       4.09983186       0.00661433      -0.00083099      -0.01362470
H        7.19355963       1.82958038       5.61368203      -0.00311942      -0.00461768      -0.00812009
H        7.15442107       0.11806921       5.04185042       0.00107672      -0.00257404      -0.01259048
H        9.98975159       0.35392757       5.53154305      -0.00315402      -0.00191496       0.00470387
H        9.50782376       2.02867602       6.01589350      -0.00604534      -0.00345585       0.00493497
H       10.83599378       1.71510842       4.83344521       0.00064129      -0.00067275       0.01229662
S        7.92530119       9.85693694       1.91910869       0.01075673      -0.00613683      -0.01038182
O        8.51978865       9.17125650       0.72247475       0.02371812       0.00180954      -0.00965226
C        7.64706817      11.57818322       1.41917840       0.00654294      -0.00464046      -0.00022969
C        9.25205609      10.11584741       3.08729471       0.00173002      -0.00648874      -0.00156432
H        7.10870109      11.52636230       0.47490741       0.01125046       0.00199293      -0.00270353
H        8.57659299      12.12201863       1.27351648       0.00444785       0.00044711       0.01000053
H        7.04137566      12.06925314       2.18178114       0.00087227      -0.01398080       0.00123127
H        8.89972941      10.76291769       3.89075837      -0.00350171      -0.00546439      -0.00494585
H       10.11406754      10.56857637       2.60364094       0.00469299      -0.00701784       0.00379626
H        9.49494947       9.13175495       3.48109860      -0.00122339      -0.00575157       0.00119560
S        3.35755345       2.63621346       3.51755856       0.00016356      -0.00311404       0.00503051
O        4.58146713       2.98414353       4.29941927       0.00177515      -0.00488007       0.00312573
C        3.41412273       0.85450040       3.27667724      -0.00276627      -0.00246871       0.00343174
C        3.67797584       3.06142174       1.79237382      -0.00187427      -0.00203978       0.00554812
H        3.16566902       0.36760693       4.21600509      -0.00268600      -0.00322722       0.00267662
H        4.42116453       0.59312947       2.94753118      -0.00371766      -0.00383205       0.00222081
H        2.68122941       0.56412744       2.52760602      -0.00346461       0.00006686       0.00345768
H        2.78968254       2.85503813       1.19565501      -0.00213428      -0.00235635       0.00635825
H        4.51936933       2.48988152       1.40285535      -0.00221162      -0.00115520       0.00432788
H        3.89417818       4.12797347       1.78175033      -0.00277991      -0.00217080       0.00577296
S        7.76986136       5.96074460       2.42012493       0.00194138      -0.00235486       0.00115144
O        7.71950327       7.19412381       3.27310240       0.00354448      -0.00602078       0.00018823
C        7.02517065       6.34975785       0.81826208       0.00228751      -0.00057657       0.00109249
C        6.44781957       4.90147081       2.99687815       0.00136673      -0.00315902      -0.00097105
H        7.59153546       7.18185035       0.40097791       0.00314800      -0.00073741       0.00216334
H        5.97562357       6.61143447       0.95742591       0.00279024       0.00004091       0.00189574
H        7.11792255       5.46401942       0.18929090       0.00121675       0.00094897      -0.00034326
H        6.36987429       4.03957805       2.33742774       0.00038883      -0.00199761      -0.00149515
H        5.51965335       5.47417263       3.02066998       0.00205499      -0.00244708       0.00004180
H        6.70733946       4.53022254       3.98367732       0.00147534      -0.00397775      -0.00145125
S        8.24726400       4.35931133       6.35836238      -0.01206017      -0.00045747       0.00253844
O        8.71087442       3.94265201       7.72397804      -0.02008426      -0.01044479       0.00370109
C        9.69500435       4.94714908       5.44839708      -0.00675350      -0.00049239       0.01246133
C        7.39817873       5.93089088       6.52848275      -0.00567847       0.00146544       0.00616933
H       10.41513831       4.13331508       5.45428178      -0.00893290      -0.00165799       0.01142167
H       10.11906335       5.82479999       5.92867051      -0.00715825      -0.00319377       0.01723683
H        9.40891444       5.15792593       4.42000589      -0.00268009       0.00465947       0.01225363
H        7.33150417       6.42205057       5.55637876      -0.00450850       0.00216047       0.00628729
H        7.93221386       6.55194146       7.25062023      -0.00344858      -0.00038414       0.00549075
H        6.39558061       5.72201681       6.89609474      -0.00607745       0.00443636       0.00598980
S        2.02090233       6.10078734       1.78095536       0.00107968       0.00160944      -0.00327528
O        3.31877387       6.58347714       2.38008217       0.00143886       0.00009984      -0.00492966
C        2.14859167       6.44467690       0.01514608       0.00024439      -0.00119346      -0.00334305
C        0.77473418       7.33349113       2.18474550       0.00301063       0.00436276      -0.00652809
H        2.99760732       5.86515739      -0.34369862      -0.00510791      -0.00745468      -0.00488017
H        2.33278605       7.50837140      -0.13174179       0.00771248      -0.00286983      -0.00373676
H        1.23421482       6.11031748      -0.46551358      -0.00276649       0.00563252      -0.00152378
H       -0.08278037       7.18285086       1.53398151       0.00043182       0.00330086      -0.00289229
H        1.21867071       8.32246292       2.07013432       0.00395423       0.00308883      -0.01172811
H        0.49357871       7.17681504       3.22379307       0.00614861       0.00941963      -0.00495088
S        5.59874068       9.06728757       8.75090974      -0.00339076      -0.00756514      -0.02757514
O        5.59745665       8.41153454       7.40924776      -0.00067981       0.02095765       0.01731050
C        5.87296966       7.78760046       9.98884649      -0.00068641       0.00134635      -0.00701249
C        3.86715654       9.39617467       9.14220821      -0.00379646      -0.00125430      -0.00102620
H        6.86197424       7.38352218       9.78293259       0.00047648       0.00513233      -0.00908221
H        5.09393134       7.02883254       9.91290583       0.00228056      -0.00113510      -0.01148919
H        5.87295325       8.25496323      10.97377525      -0.00292103      -0.00369114      -0.00697153
H        3.76160183       9.62482848      10.20197053      -0.00334615      -0.00067006      -0.00309868
H        3.26632136       8.53365370       8.85271214      -0.00081027      -0.00379235      -0.00038866
H        3.55249706      10.25012732       8.54448190      -0.00668322      -0.00393933      -0.00261098
S        3.44292497       9.93447438       0.61519518       0.00271755       0.00576222       0.00077677
O        2.69060168      10.37365893       1.85485575       0.01158157       0.00654283       0.00493646
C        4.91268124       9.23483067       1.31918434       0.00316995      -0.00235787      -0.00940722
C        4.12317714      11.42262709      -0.11396466       0.00538635       0.00366777       0.00043675
H        4.60260169       8.30012593       1.78784995       0.00242080      -0.00293329      -0.01208560
H        5.26648982       9.93291706       2.07470062       0.00988626      -0.00717849      -0.00855710
H        5.67203374       9.06298253       0.55834290      -0.00167020      -0.00103441      -0.01407804
H        4.88688337      11.15995476      -0.84704033       0.00066341       0.00285444      -0.00371911
H        4.55530915      12.03892791       0.67210191       0.01189987       0.00026752      -0.00093868
H        3.30925247      11.95420339      -0.60092984       0.00569096       0.00818157       0.00571178
