145
Lattice="12.270516123389541 0.0 0.0 0.0 12.270516123389541 0.0 0.0 0.0 12.270516123389541" Properties=species:S:1:pos:R:3:forces:R:3 energy=-579664.125 stress="0.00031090673292055726 -0.0005235076532699168 0.0007117358909454197 -0.0005235076532699168 -0.0029493062756955624 -0.00048365436668973416 0.0007117358909454197 -0.00048365436668973416 -0.000673979870043695" pbc="T T T"
Lu       9.80336393      11.89633883       0.37748827       0.02131505       0.00830101      -0.00521740
S        4.37387495       8.18291940       4.26151951      -0.00943756      -0.00878012      -0.00374293
F        6.95280828       7.66379365       4.16713435      -0.00494993       0.01547681      -0.00873896
F        6.25614753       8.90820564       2.53446842      -0.02117985       0.00788635      -0.00705877
F        5.82646684       6.79448241       2.53087200       0.00012979       0.00401068      -0.00582388
O        3.45174197       8.59825265       3.20409967      -0.01435673      -0.01616222      -0.00288808
O        4.71583922       9.17763170       5.23743415      -0.01740676      -0.00561857      -0.00523210
O        4.05659548       6.86375048       4.79719207       0.00325751      -0.01153481      -0.00408238
C        5.93995268       7.87797831       3.32278023      -0.00877655       0.00545546      -0.00637645
S        7.22882210      10.30617477      10.77725528       0.02315065      -0.00720970       0.01744053
F        7.62946874       8.92772992       8.51235307      -0.00952336      -0.02097148       0.02190427
F       11.01060831      11.89877402      11.14216560       0.01582277       0.04048262      -0.00854873
F        8.58027207      10.86323460       8.59020690      -0.03968059      -0.00638938      -0.01861492
O        8.33496950      10.62938128      11.73066052       0.03698066      -0.01257010       0.00362079
O        6.45082503       9.17757444      11.18511243       0.02606736      -0.00498101       0.02973906
O        6.49045252      11.51124584      10.42006240       0.02336149      -0.00402102       0.03015560
C        8.17455349       9.82317700       9.28935135      -0.00383690      -0.00589099       0.00010747
S        7.11616236      11.93586378       4.23433843       0.00680387       0.01342244       0.00172836
F        8.42458444      10.52858033       2.26994945       0.00130174      -0.01119146       0.02081224
F        9.37757585      12.41607603       2.69386274      -0.00553674       0.00157110      -0.01973431
F        7.51435011      12.35941044       1.59773856      -0.01384999      -0.03049145      -0.00612807
O        7.29945666      13.34451283       4.49621015       0.00714731       0.01569295      -0.01529178
O        7.81844341      11.02052164       5.09857259       0.01123518       0.02354991       0.00843894
O        5.81974961      11.55180992       3.74884355       0.00266659       0.00723231       0.01599610
C        8.09560634      11.77504757       2.67007602      -0.00512469      -0.00933969      -0.00294095
O       11.41388988       1.34921052       0.96828076       0.03328082      -0.00806811       0.00151885
O       12.90954136       2.99432983       1.26123572      -0.01234892      -0.00474226       0.02437335
C       12.12081825       1.87694317       3.23838595      -0.00454451       0.00969297       0.00289977
C       12.22596739       2.18511117       1.79821715       0.02419871       0.02450460      -0.00269268
H       11.10355752       1.95788032       3.62809907      -0.00763741       0.02358345      -0.00152422
H       12.45263954       0.85086660       3.41578833      -0.01932824       0.00540465       0.01116739
H       12.74718494       2.57355461       3.78501094      -0.00200187       0.00500798       0.00866874
H       11.70198774       1.57309449       0.06262226       0.04526046      -0.02004364       0.00361001
O        8.84475526       3.02690680       2.40008663      -0.01036438       0.00002748       0.00836149
O        9.39597818       3.13112495       4.56863626      -0.00241250       0.01080728       0.00592530
C        7.81916090       4.71921054       3.66017966      -0.01015496       0.00221592       0.00459996
C        8.75603377       3.56791963       3.64555143      -0.00718677       0.00498515       0.00593168
H        8.14700339       5.45777391       2.92769971      -0.01240662       0.00190532       0.00355215
H        6.82302985       4.38811646       3.36243382      -0.00886983      -0.00164671       0.00514217
H        7.77292881       5.16210649       4.64909210      -0.01088999       0.00411886       0.00347188
H        9.41727225       2.25587218       2.49040731      -0.01602849      -0.00411157       0.01115963
O        4.74509644       4.58064973       5.86629998      -0.00525421      -0.01764774      -0.00425988
O        4.59785622       3.79987578       3.76499561      -0.01024850      -0.02270079      -0.00193548
C        4.53784188       2.25489558       5.60198699      -0.01004615      -0.01776314       0.00211579
C        4.63352637       3.60575146       4.96124586      -0.00852903      -0.01978564      -0.00154698
H        5.30191777       2.14590902       6.37043432      -0.00892293      -0.01721856       0.00095487
H        3.56126517       2.17836374       6.08486582      -0.00918607      -0.01416006       0.00421215
H        4.65106837       1.47486134       4.85782325      -0.01340014      -0.01985402       0.00388013
H        4.64928888       5.46135237       5.41599610      -0.00273814      -0.01877019      -0.00563186
O        6.86240317       1.73508906      10.73700868       0.00982288       0.00174254       0.00756776
O        8.74253999       1.36643963      11.87196289       0.00138214       0.00342924       0.01965157
C        7.84343310       3.58446954      11.77133900       0.01138548       0.00474012       0.00460206
C        7.85785452       2.13833924      11.45869186       0.00695530       0.00359473       0.01102690
H        7.52383230       4.14935981      10.89754196       0.01358473       0.00285266       0.00277621
H        7.09935488       3.73933827      12.55659177       0.01435927       0.01070902       0.00608015
H        8.79626540       3.92915103      12.15207829       0.01386732       0.00037505       0.00207260
H        6.83147817       0.73402325      10.62502899       0.01142021       0.00104415       0.01599595
O       10.41449082       5.48212014       6.06924934      -0.00032364       0.00282097      -0.00257224
O        8.85427609       7.01156394       6.57574221       0.00542998       0.00809884      -0.00206745
C       10.23169368       7.31818550       4.62192438       0.00154975       0.00043511      -0.00538391
C        9.74252138       6.62594331       5.85399183       0.00266165       0.00388102      -0.00325811
H       11.25203339       7.66041955       4.79338566       0.00297050      -0.00241346      -0.00861362
H       10.25688178       6.62821761       3.77953009      -0.00272647      -0.00093167      -0.00420707
H        9.58387588       8.15712877       4.38102647       0.00364347       0.00200145      -0.00470919
H       10.04097146       5.06243107       6.85892516      -0.00168312       0.00332495      -0.00305675
O        1.17415251       6.28026510       2.42499534      -0.00669628      -0.00096053      -0.00809038
O        1.02508957       5.68435601       0.27616778       0.00527167       0.00794003      -0.01068771
C        3.17079023       5.66331149       1.37887151      -0.00454581      -0.01734429       0.00640859
C        1.69956146       5.84711002       1.28222693      -0.00110722      -0.00236307      -0.00341809
H        3.59373115       6.66708054       1.45621540       0.00515116      -0.02155995       0.00515779
H        3.45617651       5.13353341       2.28606601      -0.01516829      -0.01670118       0.00968257
H        3.56086101       5.16514890       0.49763817      -0.00415207      -0.02425343       0.01079728
H        0.28806814       6.64552034       2.25597103      -0.00145476       0.00885152      -0.01474819
O        3.64768170       6.45106858       9.16833366      -0.00434950       0.00350761      -0.01256247
O        1.98031604       7.86896076       9.64874041       0.01944566       0.01722154       0.02341056
C        3.76071673       8.60786625       8.21490621       0.00241393       0.00570935      -0.00319290
C        3.02770064       7.63711635       9.08481798       0.00743413       0.00984564       0.00466937
H        3.84421141       9.56201066       8.73413772      -0.00509124       0.01213744      -0.01541493
H        4.73953660       8.24529182       7.91999220       0.00449294       0.00816299       0.00101282
H        3.18052984       8.77623102       7.30660149       0.00335595      -0.00967018      -0.00624886
H        3.09799262       5.85173912       9.72081922      -0.00083886       0.00439906      -0.00829296
O        4.38965521      10.43692086       0.49856096      -0.00680709       0.00283039      -0.00054961
O        2.24213371       9.78660901       0.59114384      -0.00888336       0.01029944       0.01140484
C        2.83546744      12.03243694       1.22806972       0.00399640       0.00549459       0.01519048
C        3.08662634      10.63542834       0.75557702      -0.00410509       0.00623167       0.00917698
H        3.51238710      12.27535982       2.04639359       0.01683089       0.00644048       0.00382549
H        3.02104982      12.73207120       0.41103134      -0.00995718       0.00556661       0.01245369
H        1.80242822      12.11883548       1.54524831       0.00917715       0.00547829       0.03103638
H        4.51064408       9.52564474       0.19497929      -0.01107740       0.00368151      -0.00439765
O        1.61567094       9.54331060       4.81163155      -0.00901768       0.00014764      -0.01045161
O        0.52486203      11.08456587       3.59844642      -0.01724681      -0.00323702      -0.00633538
C        1.09565343      11.57069002       5.86290353      -0.01158230      -0.00079352      -0.01051587
C        1.03667164      10.70249899       4.65125806      -0.01327188      -0.00186963      -0.00968939
H        0.13043150      12.02973265       6.06359620      -0.01029477       0.00243236      -0.01203095
H        1.45619978      11.01643632       6.72367422      -0.01217675       0.00091605      -0.00949222
H        1.81014503      12.36994939       5.64845018      -0.01007892      -0.00286946      -0.01336644
H        1.94745536       9.13162934       3.96964166      -0.00765463      -0.00085682      -0.00952843
O        8.50845960       7.44017748      11.13957364      -0.00574535      -0.03872162      -0.01682848
O        9.54354573       6.10739054      12.61080319       0.03182090       0.00563136      -0.00560808
C       10.18869938       6.04286794      10.28058846       0.01750320      -0.01313987      -0.00883818
C        9.41088178       6.49710774      11.47303377       0.01588411      -0.01372342      -0.01042759
H        9.60977115       6.16140647       9.36639043       0.01278569      -0.02816460      -0.00703472
H       11.08838608       6.65380800      10.17805799       0.00820072      -0.00169282      -0.01636260
H       10.51157011       5.01565778      10.41875637       0.03297054      -0.00678533      -0.00199192
H        8.00068168       7.69222208      11.92668820      -0.00086418      -0.03039783      -0.01646602
O       11.32480084      10.53185273       1.56127564      -0.00113273      -0.00695045      -0.00962740
O       11.82624836       8.48500099       2.31199248      -0.00690783      -0.01185130      -0.02113855
C       11.61126058       8.77941589      -0.06210106      -0.00190573       0.00505373      -0.02005911
C       11.60844462       9.17741213       1.36047184      -0.00393298      -0.00541312      -0.01817065
H       10.67554078       9.05325929      -0.55765084      -0.00406420       0.00465523      -0.01612794
H       12.43096609       9.30434074      -0.55432178      -0.00499418       0.01350193      -0.01561250
H       11.77756086       7.70906856      -0.12680859       0.00312550       0.00683367      -0.02896781
H       11.78202014      10.75370646       2.43796784       0.00125563      -0.01041410      -0.00811452
O       10.09124482       3.01573312       8.20968240       0.00453164       0.00513673       0.00059092
O       11.14776472       1.51861319       6.93046945       0.00879955       0.00863770       0.00097704
C        8.79014819       1.29951207       7.23960586       0.00991237       0.00122023       0.00083931
C       10.11453159       1.93166495       7.44730699       0.00834543       0.00470567       0.00106230
H        8.16997674       1.37188348       8.13076521       0.01151146      -0.00240464       0.00213923
H        8.30018772       1.84648326       6.43088720       0.00724407       0.00144514       0.00246069
H        8.89798898       0.27380039       6.90559402       0.01208224       0.00204605      -0.00045191
H       11.01827519       3.42542021       8.23271974       0.00336090       0.00760410       0.00164387
O        2.35492221       4.52807407      10.58074626       0.00269496       0.00877792      -0.00017658
O        2.00633490       2.32465111      10.88582602      -0.02787870       0.01424110      -0.00156254
C        3.61593265       3.06042342       9.25482864      -0.01136470      -0.00677942       0.00544769
C        2.57697145       3.22770902      10.32657755      -0.01334399       0.00729966       0.00060278
H        3.20700924       3.39466995       8.30013045      -0.00236078      -0.00199211       0.00343673
H        4.48401362       3.68911164       9.45117765      -0.00425436      -0.01830620       0.00919576
H        3.91048004       2.01942085       9.17650558      -0.02509938      -0.01033804       0.00722582
H        1.72230046       4.73242846      11.32653200       0.00263555       0.01856688      -0.00132477
O        0.72578235       3.22295436       6.26372255       0.00553139       0.01419687       0.00322744
O        0.02382890       4.32487983       8.07682228       0.00119066       0.01148414       0.00318873
C        1.47097282       5.44792289       6.53636117       0.00428194       0.01380330       0.00786757
C        0.67172348       4.29713620       7.03280706       0.00391930       0.01293203       0.00370044
H        2.52518562       5.28124339       6.76986565       0.00340351       0.01413248       0.01129811
H        1.39826644       5.52250847       5.45300387       0.00783887       0.01549633       0.00791234
H        1.13151802       6.36137896       7.01519392       0.00235489       0.01283582       0.00801493
H        0.07951240       2.53121071       6.61131828       0.00643674       0.01303988       0.00198364
O       10.54346525      10.00700796       6.82920748      -0.01491892      -0.00672790       0.00826687
O       11.61124125       8.10104481       7.36639302       0.01177454       0.00546539      -0.00472558
C       11.92622664      10.04994941       8.73494036      -0.00593016       0.00567472      -0.00081235
C       11.38041898       9.26482134       7.58981427      -0.00176251       0.00180721       0.00019526
H       12.03434864      11.10373215       8.49020728       0.00111560       0.00336303      -0.00730501
H       11.19798737       9.99913230       9.54688946      -0.01387413       0.01579390      -0.00772884
H       12.85722409       9.60095811       9.07540020      -0.01051426       0.00459117       0.00889245
H       10.07534398       9.42341223       6.21341090      -0.01379500      -0.01036039       0.01069787
