148
Lattice="16.42219274952396 0.0 0.0 0.0 16.42219274952396 0.0 0.0 0.0 16.42219274952396" Properties=species:S:1:pos:R:3:forces:R:3 energy=-1478008.625 stress="-0.00011018969235010445 1.067233915819088e-05 3.5214590752730146e-05 1.067233915819088e-05 -0.00016575001063756645 -5.124547169543803e-05 3.5214590752730146e-05 -5.124547169543803e-05 -6.324089918052778e-05" pbc="T T T"
Lu      15.71731352      16.61267757       0.14758252       0.00361907       0.00067139      -0.00975979
O        6.83886331      15.51301449       6.72434420      -0.02114737       0.00347841       0.00415087
O        6.58290905      14.42629807       4.87950572       0.00118351      -0.00546050       0.00535345
O        7.74934757      16.23785652       4.91274276      -0.00767589       0.00043726       0.01110661
N        7.05526401      15.39053571       5.50910281      -0.00963802      -0.00105540       0.00703703
O       14.36109284      14.95506876       3.33046785       0.00028187      -0.01183325       0.00828749
O       14.87205669      16.75591585       2.21308149       0.00730872      -0.00268579      -0.00658113
O       15.15569992      14.81045685       1.30123503       0.01448581       0.00238383      -0.00545216
N       14.76879421      15.47423804       2.34544569       0.02049360       0.01310279      -0.03330715
O       14.66441355      15.71267402      14.78689860      -0.00457001      -0.00189787      -0.00592126
O       13.64817329      17.23975602      15.94430430      -0.00522529      -0.01245630       0.00631177
O       12.65888101      16.35530879      14.21406331      -0.00895083      -0.01173270       0.01297009
N       13.60321287      16.42643623      14.93741568      -0.01259960      -0.00942075       0.00055167
Cl       4.48485974       9.29699935       5.80204464       0.00109838       0.00448292       0.00462279
Cl       5.70317317      11.55641624       4.41011857       0.00308639       0.00249901       0.00324522
Cl       4.73937756       9.26078729       2.89088411      -0.00541640       0.00561990       0.00411150
C        4.49881506      10.28356113       4.33551264       0.00015022       0.00546741       0.00516246
H        3.52072825      10.74086198       4.24096650       0.00100049       0.00784527       0.00754657
Cl       9.99085221       4.83141707      10.83164989       0.00727558      -0.00532833      -0.00042447
Cl      10.46432744       2.93803052      13.00689636       0.00738910      -0.00004070       0.00395058
Cl       8.82301930       5.30751518      13.46130250       0.00782351       0.00144070      -0.00137058
C        9.31149672       4.08850132      12.28434559       0.00761035      -0.00148718       0.00158371
H        8.43149953       3.52538391      11.99382750       0.00730437      -0.00205508       0.00317933
Cl       6.96164970      12.35984289       0.49287278      -0.00326085       0.00995757      -0.00194081
Cl       4.26621130      13.13774185      -0.30223142      -0.00663665      -0.00544816      -0.00579759
Cl       5.11927176      10.36034926      -0.57216569       0.00719510      -0.00174317       0.00163653
C        5.27323169      11.84971941       0.37104358      -0.00065492       0.00139867      -0.00192082
H        4.92553453      11.63898559       1.37477761      -0.00039850       0.00181263      -0.00174114
Cl       1.82923383       4.89081543      16.71834221      -0.01060268      -0.00419709       0.00184009
Cl       3.09874951       7.15743951      15.36900455       0.00049257      -0.01272603      -0.00223067
Cl       0.36745510       7.40855160      16.38785961       0.00494042       0.00514503       0.00541337
C        1.94799796       6.67042554      16.62918734       0.00083767      -0.00528723       0.00114579
H        2.33756062       7.01006753      17.58132408       0.00570819      -0.00759489      -0.00024852
Cl       8.72553949       7.97532279       8.62885866       0.00121446      -0.01066861       0.00090468
Cl       8.04834507      10.41349409      10.08067545       0.00717917       0.00002077      -0.01500043
Cl       9.95505141       8.53994524      11.22335443      -0.01237471      -0.00665113       0.00646698
C        9.31612042       9.23621210       9.73656474       0.00224090      -0.00944914      -0.00098714
H       10.12625555       9.75120385       9.23526592       0.00882772      -0.01705469       0.00247811
Cl       1.57094017       2.63281785      12.52719285       0.00420004      -0.01853302       0.00714011
Cl      -0.34827099       2.34715849      14.71758553      -0.01015365       0.01549472       0.00009236
Cl       1.33257859       0.09166416      13.93552867      -0.04375467      -0.01152111       0.01630763
C        1.28450598       1.86099350      14.05055046      -0.01598176      -0.00765789       0.00804299
H        2.00174300       2.17949182      14.80114024      -0.01298852      -0.02045152       0.01085106
Cl       3.35052257      12.73932866       7.04341455      -0.00211462       0.00883141      -0.00355487
Cl       1.44358139      12.11027087       9.16168216       0.00899570      -0.00687197       0.00046510
Cl       0.64645503      11.88859907       6.35936564       0.00154623      -0.00179578       0.00307450
C        1.99417306      11.73422941       7.51813797       0.00643371       0.00123630      -0.00205119
H        2.30817200      10.69723752       7.50303639       0.01021352       0.00307539      -0.00542660
Cl       7.95269218       7.62539376      16.04167020      -0.01105747       0.00160652      -0.01336583
Cl      10.73432550       8.52181245      16.06905381      -0.01312119       0.00555590       0.02552447
Cl       8.77080438       9.91196066      14.41693910       0.00749403       0.00313997      -0.00085682
C        9.04252970       9.02389394      15.91433472      -0.01150511       0.00328559       0.00246988
H        8.81630588       9.68330647      16.74233446      -0.02347419       0.00263724      -0.00051299
Cl       0.08675329       6.09134571      12.96456989      -0.00427213       0.00003104       0.00549114
Cl       1.11205552       6.87661497      10.34702532      -0.00462957      -0.00750936       0.00318551
Cl       0.89949679       8.85470101      12.49264154      -0.00303584      -0.00164548      -0.00226707
C        1.19968191       7.14985301      12.09396603      -0.00396152      -0.00270463       0.00226325
H        2.20727841       6.91336621      12.41435176      -0.00411442      -0.00240022       0.00279930
Cl       8.75230775      15.24473227       1.17563790      -0.00017393       0.02522314       0.01906793
Cl      10.99793431      16.76839828       2.25511281       0.02780864       0.00591925      -0.01327389
Cl      11.26695428      13.90029078       1.78617595      -0.00729066       0.00129330      -0.00376499
C       10.50325204      15.40607152       1.23172510       0.00225855       0.00651204      -0.00199497
H       10.85776571      15.59864027       0.22607464      -0.00722582      -0.00063234      -0.00656304
Cl       3.74774991      16.05940464       5.63808052      -0.00057545      -0.00017938      -0.01545304
Cl       3.51484866      14.34839551       3.27977839      -0.01257624      -0.00733107      -0.00873694
Cl       1.11315822      15.42715419       4.53663825      -0.00599048       0.00023504      -0.00291340
C        2.85209101      15.71551789       4.16998542      -0.00708611      -0.00331030      -0.01049311
H        2.90103953      16.58160267       3.52073375      -0.00877321      -0.00560474      -0.01364525
Cl       5.62623409       2.77954124       4.65691547      -0.00427896       0.00917982       0.00069687
Cl       5.20718909       1.43761683       2.09386721      -0.00134918       0.00372802       0.00305882
Cl       7.43322113       3.30550977       2.42504245       0.01167607      -0.01324391       0.00878790
C        6.42459927       2.09349151       3.21729202      -0.00218594      -0.00233723       0.00725568
H        7.04280295       1.27011684       3.55962317      -0.01035634      -0.00595200       0.01324874
Cl      14.32762121       4.83451815       6.73137630       0.00735763       0.00150876      -0.00129110
Cl      11.60097502       4.93161797       5.69266868       0.00903417       0.00133190      -0.00560620
Cl      12.81982950       2.36776201       6.31074091       0.00993143       0.00105688      -0.00680065
C       12.71917458       4.07563497       6.76176797       0.00783858       0.00050529      -0.00494133
H       12.35209245       4.13924167       7.78025650       0.00608097      -0.00115947      -0.00557372
Cl       4.81509648      -0.49599791       9.28292774      -0.00267690      -0.00771487      -0.01829708
Cl       1.99640340      -0.29685898      10.03829792      -0.00118443       0.00593254      -0.01574343
Cl       3.84359503      -1.85547423      11.68061319      -0.00637600       0.00107566      -0.01462400
C        3.66592173      -0.43970429      10.62070224      -0.00087531      -0.00047492      -0.01744346
H        3.87697531       0.44030161      11.21847663       0.00339690      -0.00025469      -0.01951520
Cl       1.49879727       8.56445204       3.47395500      -0.00373036      -0.00095823       0.00997882
Cl      -0.79643235       6.76501645       3.53739819      -0.00637215       0.00241762       0.00706659
Cl       0.17426309       7.98198503       6.00551829      -0.00358403      -0.00424374       0.00927073
C       -0.04504686       8.19457381       4.25733596      -0.00393229      -0.00013992       0.00962188
H       -0.70527623       9.03814189       4.09733133      -0.00276826       0.00085622       0.01181722
Cl       1.78353124       4.69791332       7.20277158       0.00322473      -0.00514695       0.00439624
Cl       3.55369738       5.82440655       5.16654407      -0.00324013       0.00436896       0.00438014
Cl       3.83247081       6.63573524       7.95091883      -0.00168778      -0.00022176       0.00538152
C        3.41453758       5.32057113       6.85039742       0.00076053       0.00060554       0.00354972
H        4.11090303       4.50974113       7.02641230       0.00351536       0.00241943       0.00085253
Cl      15.69779363      11.61223887       2.86816256       0.00994363       0.00132871      -0.01235904
Cl      14.58191004      11.68066002       0.16738253      -0.00574936       0.00559485      -0.00579250
Cl      13.76624169       9.59282925       2.02467284       0.00498945       0.00327146      -0.00480998
C       14.27592934      11.28653342       1.85952173       0.00415718       0.00343608      -0.00462242
H       13.47002234      11.91362719       2.22239578       0.00623563       0.00323477       0.00021183
Cl       5.44726385       8.44050247      12.83272323       0.00231847      -0.00183141      -0.00035957
Cl       5.26186889      11.27805833      12.14193791       0.00364706      -0.00071687       0.00428336
Cl       4.35635108       9.24531576      10.25126172      -0.00774443       0.00342003       0.00560576
C        4.53161123       9.68296271      11.95991242       0.00034590       0.00077794       0.00544631
H        3.53710946       9.71883593      12.38780124       0.00228983       0.00143107       0.00985342
Cl      13.95052146       8.22656024      10.91481450      -0.00314952       0.01353869      -0.01190054
Cl      13.63336693       5.35034403      10.51885478       0.00908210       0.01035196      -0.00052881
Cl      12.33919005       7.22105515       8.70010047      -0.00741646      -0.00281577      -0.00128305
C       13.75140667       6.93660024       9.73464327      -0.00168896       0.00793344      -0.00638184
H       14.62627713       6.91587394       9.09767973      -0.00487185       0.00986011      -0.01081884
Cl       8.69242485       1.43848264       9.11429380       0.00709204      -0.01162496      -0.00173885
Cl       7.78254209       0.51778093      11.72973162      -0.00222221       0.00792220       0.00176241
Cl       9.45430753      -1.21453471      10.06897275       0.00049885      -0.00579247       0.01967099
C        9.09198159       0.44601882      10.52431946       0.00136250      -0.00199973       0.00663207
H        9.97238177       0.87252419      10.99106253       0.00022686       0.00012167       0.00645466
Cl       8.14243846       8.77219408       4.78335354       0.00196368       0.01494509       0.00114562
Cl       7.65268605       5.97791309       5.49029680      -0.00433192       0.01509234      -0.00266548
Cl       9.45219693       6.63742126       3.28656046       0.00306943       0.01432902       0.00231475
C        8.82712493       7.14921705       4.86515126      -0.00070702       0.01385630       0.00180537
H        9.66050965       7.16992685       5.55682943      -0.00256580       0.01185376       0.00397527
Cl      -1.15954160       3.17370742       3.64666723       0.00105971       0.00526357      -0.01237452
Cl       1.51497671       0.84788415       0.92960464       0.00086562       0.01949226      -0.01095805
Cl       1.71909595       3.21265069       3.84304504      -0.00059068       0.00322348       0.00269955
C        0.27944148       2.42214785       3.92710467      -0.00110503       0.00356704      -0.00800481
H        0.28168312       1.36660707       4.17513252      -0.00320195       0.00324142      -0.00966008
Cl      14.34391833      -0.03317016      11.28936200       0.01193573       0.01138759       0.01533089
Cl      15.32377254       1.95035372       9.38469524       0.00472979       0.00094864       0.00040340
Cl      12.45593797       1.67870525       9.85849979       0.00496310      -0.01632234      -0.00580576
C       14.07405523       1.56012096      10.57611361       0.00352714       0.00280584      -0.00002851
H       14.13093023       2.29532820      11.37002830      -0.00450204       0.01022553      -0.00651474
Cl      11.37546693      11.08431627       4.14253047      -0.00922555      -0.00019515      -0.00798154
Cl      11.75948655      13.61455887       5.55476056       0.01873323      -0.00575387      -0.00675762
Cl       9.07223418      12.79091497       4.79061393       0.00636971       0.01148465       0.01547119
C       10.66456249      12.24951771       5.29429287       0.00749760       0.00134803       0.00047663
H       10.56374754      11.72726787       6.23686546       0.01253289      -0.00029005       0.00016502
Cl       3.84392974       3.24552523       9.75598330       0.00236708      -0.00390622       0.00332099
Cl       6.43516960       4.58477059       9.88357297       0.00300512      -0.00479633       0.00118548
Cl       5.31357299       3.35893049      12.27695283       0.01262791      -0.02285871      -0.00296751
C        5.45023014       3.26550908      10.50832772       0.00595170      -0.00940149      -0.00415999
H        5.94016313       2.32826621      10.26498489       0.00499919      -0.00752622      -0.01322272
Cl      10.96915960      12.24067710      11.98994375      -0.02426681      -0.00124049       0.00494462
Cl       9.30271792      13.92652632      13.69583873       0.00992429       0.01489635       0.02168670
Cl      11.94211055      13.08030351      14.60889462       0.01201987      -0.00775617      -0.00671828
C       10.95330873      13.52675991      13.20315659       0.00098037      -0.00001977       0.00414519
H       11.39418824      14.41026103      12.75814840       0.00361966      -0.00431576      -0.00142103
Cl      12.86936848      11.42280869       8.70335740       0.00335988       0.00100362      -0.01032033
Cl      14.08088684      14.05844359       8.33129580       0.00813088       0.00192836       0.01335460
Cl      14.59904037      12.54496602      10.77393586      -0.00388127      -0.01667349       0.00446835
C       14.27840699      12.45593894       9.03525999       0.00327241      -0.00377854       0.00261404
H       15.13449028      11.98917735       8.56557211       0.00461829      -0.00205663       0.00292550
