145
Lattice="11.859448854229369 0.0 0.0 0.0 11.859448854229369 0.0 0.0 0.0 11.859448854229369" Properties=species:S:1:pos:R:3:forces:R:3 energy=-549108.8125 stress="-8.721640188014135e-05 -0.00027606391813606024 -0.0006354699144139886 -0.00027606391813606024 -9.296999633079395e-05 -0.0002791400911519304 -0.0006354699144139886 -0.0002791400911519304 0.0003890624502673745" pbc="T T T"
Lu      10.46693419      10.94924247       0.28950559      -0.00167513      -0.00137743       0.00724977
S        9.88871129       9.23223346       9.98386662      -0.00492133       0.00245989       0.00699174
F       10.81016667       7.08307523       8.85802023      -0.00016912       0.00177312       0.01006257
F       12.34899618       8.28623561       9.79305659      -0.00293018       0.01189117       0.00222223
F       11.46509596       8.92301290       7.91353414      -0.01024653       0.00206023       0.00244470
O       10.20613402      10.67957465       9.87717278      -0.00874551       0.00073904       0.00748235
O       10.11703311       8.90142122      11.42600508      -0.00554417      -0.00006133       0.00423884
O        8.65234903       8.80180748       9.42690812      -0.00542173       0.00040012       0.00598168
C       11.24228861       8.31302265       9.07398399      -0.00569391       0.00521818       0.00569455
S        1.56611506      11.83260179      10.62745361      -0.01102424      -0.00113469      -0.00111741
F        3.32010695      11.94330026      12.58224707       0.00359365      -0.00286458      -0.01018236
F        4.17480859      11.66355401      10.61146158      -0.00914231       0.01016584      -0.01820543
F        3.20337615      10.00336262      11.61808784      -0.00307252       0.00365040      -0.02210954
O        1.44074898      11.05334950       9.43567229      -0.01637135       0.02605958       0.00102286
O        1.62028395      13.25910401      10.54738308      -0.01070505       0.01548937       0.01290984
O        0.59206503      11.37628806      11.70483952      -0.00236532       0.00230367       0.00021505
C        3.16337961      11.33158338      11.41005846      -0.00702062       0.00529711      -0.01446851
S        5.93549541       9.56962681       5.68336363       0.01240703       0.00419968      -0.02510887
F        6.13186525      11.90587145       6.97364562       0.01250325      -0.00224285      -0.01253368
F        4.98401130      10.38895302       8.00739316       0.03262478      -0.01614391      -0.01130140
F        4.13842599      11.41010584       6.29237344       0.00903353      -0.01019956       0.00363379
O        4.75906825       8.71594732       5.55677447       0.01521504       0.00040179      -0.02054717
O        7.03905258       8.96630702       6.40331132       0.02283865       0.00473952      -0.04069912
O        6.32021581      10.27789253       4.46753439      -0.00196609       0.01509422      -0.02361190
C        5.26214790      10.89615920       6.80162405       0.01724467      -0.00629282      -0.01059228
O        8.40402450       4.30850258      10.58196413      -0.00052932      -0.00741714       0.00087017
C        8.05276714       5.68392338      10.75490399      -0.00170516      -0.00800380       0.00388698
H        7.04951509       5.88187310      10.36302901      -0.00076321      -0.00730410       0.00175597
H        8.74809607       6.33672344      10.22469265      -0.00043982      -0.00603902       0.00787935
H        8.09871774       5.91104267      11.81857375      -0.00483228      -0.01088227       0.00462499
H        8.30763245       4.11899022       9.62267080       0.00058606      -0.00571927       0.00033998
O        6.46707990      10.08877079       1.40282807       0.00615187       0.00020336       0.00683504
C        6.36873737       8.77711502       0.82024244      -0.00020855       0.00264776       0.00314614
H        5.39710808       8.33731011       1.04537794      -0.00271794       0.00741746       0.00139927
H        7.16101936       8.11407973       1.17864437      -0.00397962      -0.00254044       0.00178801
H        6.46687593       8.90067612      -0.25793996       0.00120682       0.00485426       0.00350279
H        6.24816369      10.04918069       2.35326050       0.00867890      -0.00029445       0.00773805
O       11.79167845      10.60222837       4.53574365       0.00620860       0.01347333       0.00499499
C       12.04279170      11.90837504       5.10643098       0.01354024       0.01095125       0.00729802
H       12.62743400      11.80280670       6.01827201       0.02023862       0.00624922       0.00241879
H       11.10909999      12.42655617       5.32500221       0.01620477       0.01188578       0.01665806
H       12.62520717      12.45749563       4.37110129       0.00924943       0.01283279       0.00521562
H       11.39845603      10.03538662       5.20910925       0.01125130       0.01189691       0.00654662
O        4.50161246       5.43158857      11.39421955       0.00040461      -0.00985360       0.00465678
C        5.00781632       4.12528993      11.14860444      -0.00119842      -0.01005065       0.00347401
H        5.77562829       3.83923174      11.87435178      -0.00447059      -0.01332343       0.00562143
H        5.43170341       4.02971747      10.14354396       0.00247189      -0.00863302       0.00483021
H        4.16454775       3.44243825      11.23420701      -0.00276309      -0.00881082      -0.00101107
H        5.23426274       6.04828970      11.32269035       0.00256747      -0.01136366       0.01282779
O        8.16347856       4.12982460       7.91757887       0.00476687      -0.00455678       0.00033215
C        7.23539457       5.09975113       7.40790872       0.00249158      -0.00623855       0.00132076
H        7.22762077       5.10381311       6.32044636       0.00254404      -0.00450392       0.00127342
H        7.56631535       6.07641341       7.75753467       0.00052497      -0.00609842       0.00273918
H        6.21999174       4.91741221       7.77210012       0.00298274      -0.00902033       0.00145705
H        8.03733264       3.28928010       7.46541927       0.00678048      -0.00485551       0.00021344
O        2.33502350       3.76217853       7.12395647       0.00037062      -0.00029936      -0.00168365
C        3.09287564       3.75870403       8.32507879       0.00051841      -0.00298627      -0.00187761
H        3.40869064       4.76856035       8.61466581       0.00345102      -0.00403440      -0.00160024
H        3.98224113       3.12759403       8.22681246      -0.00139999      -0.00565901      -0.00164358
H        2.48004153       3.34486810       9.12177223      -0.00084662      -0.00109977      -0.00174415
H        2.98372838       3.86529283       6.39428563       0.00067055      -0.00371026      -0.00222336
O        9.54297980      12.51626853       7.36652319       0.00454620       0.01044637       0.00635552
C        9.04001069      11.29763540       6.82948520       0.00911461       0.00793976       0.00764790
H        8.39364361      10.76431676       7.52510907       0.00892079       0.00791919       0.00764060
H        9.84983175      10.61659927       6.53857485       0.01136780       0.00977297       0.01054818
H        8.45538072      11.54306994       5.94570388       0.01041244       0.00495665       0.00603193
H       10.07831384      12.28399464       8.13088456       0.00704819       0.01336552       0.00558213
O        5.58453693       6.30568481       4.87109306      -0.00035503      -0.00820214      -0.00602216
C        5.43559970       6.52858142       3.46403097       0.00067484      -0.01538778      -0.00715953
H        4.81746173       7.40895541       3.28689323       0.00096679      -0.01618016      -0.01230848
H        4.95381932       5.66184741       3.01119921       0.00026317      -0.01760161      -0.00244205
H        6.41809531       6.67074215       3.00719424       0.00091356      -0.01865606      -0.00775280
H        5.23311078       7.11372524       5.30564418       0.00526149      -0.00348573      -0.01062035
O        1.62147294       4.06710405       2.15787788      -0.01058072      -0.00371480       0.01732301
C        2.90627941       3.44906455       2.18963261      -0.01309264      -0.00941250       0.00010718
H        2.94277005       2.57409950       1.53895804      -0.02291736      -0.00341055      -0.00846359
H        3.17766257       3.15026922       3.20362072      -0.00674923      -0.02053924      -0.00505883
H        3.63036416       4.18119400       1.82740430      -0.01225933      -0.00977424       0.00109746
H        0.94569623       3.41857851       1.92145863      -0.01359493       0.00340351       0.00624710
O        3.89364768       9.78295265       2.75751254      -0.00197917      -0.00522678      -0.01271826
C        2.63679838       9.89269942       3.43640506       0.00162266      -0.00066864      -0.00728589
H        2.03571176       8.99136812       3.30765204      -0.00202718       0.00115633      -0.00386751
H        2.09305488      10.77302491       3.08377560       0.00286430       0.00094867      -0.00498722
H        2.86248335      10.01203748       4.49207721       0.00696416      -0.00068242      -0.00842676
H        3.70490943       9.78588714       1.81645314      -0.00556135      -0.00132626      -0.01201930
O        8.60540053       6.55860646       4.63041520       0.00042319       0.00392488       0.00614481
C        9.76476792       6.56687102       5.46461203      -0.00095659       0.01030774       0.00773836
H        9.65460119       5.90505060       6.32500458       0.00513908       0.00233603       0.00240901
H        9.99033375       7.57433378       5.82595491      -0.01316138       0.00987723       0.01593114
H       10.60295456       6.20784102       4.87294885       0.00374267       0.02380829       0.00649488
H        7.84116536       6.89968896       5.11351543       0.00135168       0.01105464       0.00270727
O       11.05041806       4.43262416      10.91871580       0.00044668      -0.00528461      -0.00521052
C       11.67212361       4.20888727       9.64558195      -0.00156112       0.00105745      -0.00701514
H       12.53052847       4.87292199       9.56230514      -0.00093612       0.00053820      -0.00456973
H       10.98143591       4.43421490       8.83210868      -0.00230092       0.00628652      -0.00484005
H       12.01342515       3.17581445       9.55622615      -0.00268257       0.00115466      -0.01329474
H       10.07362015       4.36008159      10.80148711       0.00027762      -0.00595466      -0.00368164
O        4.38168654       3.99772902       5.38937461      -0.00020045      -0.00586087      -0.00248866
C        5.36266377       2.98805029       5.56753452       0.00014451      -0.00519583      -0.00055469
H        5.67951085       2.90847594       6.61420497      -0.00191567      -0.00496153       0.00011009
H        6.24544843       3.18640715       4.95198379       0.00138316      -0.00449683       0.00141194
H        4.93430062       2.03488732       5.26376008       0.00115561      -0.00539503      -0.00168228
H        4.81658122       4.87686589       5.28502765      -0.00052106      -0.00557033      -0.00245553
O        0.79322942       6.01331136       6.60613476       0.00563788       0.00812799       0.01025918
C        1.81365900       6.89291899       6.16513729       0.00247991       0.00514513      -0.00279033
H        2.44718128       6.44165878       5.39518052      -0.00798622       0.00292534      -0.00999856
H        2.44882099       7.23876460       6.98964410       0.01321104       0.00417589      -0.01078969
H        1.33740038       7.76608839       5.71612016      -0.00068021       0.00618145       0.00257583
H        1.22979627       5.17229662       6.84338422       0.00569208       0.00673503       0.00459995
O        4.47199351       0.68945374       3.32442172       0.00126529      -0.00087371      -0.00976825
C        5.65313371       1.15996415       2.71595183      -0.00062382       0.00635692      -0.00778916
H        5.73946064       0.82384508       1.67553065       0.00097755       0.01007757      -0.00878185
H        6.55065301       0.84035359       3.26245705       0.00071955       0.00864851      -0.00872225
H        5.61728679       2.24963807       2.71821559      -0.00560692       0.00619173      -0.00407544
H        4.48123114      -0.27930237       3.27710687       0.00712517      -0.00072622      -0.00973921
O        8.29692023      11.39938039      12.03345498       0.00003594       0.00076330       0.01295717
C        7.56163788      11.90188988      10.88059322      -0.00065914       0.00951388       0.01816097
H        6.71627427      12.49031349      11.22970238       0.00354142       0.01226076       0.02379252
H        7.21655398      11.06730540      10.27031797      -0.00685682       0.01429820       0.01492814
H        8.22990256      12.52425118      10.29139135       0.00028706       0.00918651       0.01873662
H        7.61284737      10.92450159      12.62288846      -0.00022271      -0.00375204       0.01187414
O        9.09421353       6.54307121       1.92817601      -0.01040536       0.00244436       0.00488777
C       10.50238457       6.35704008       1.83457152      -0.01174742      -0.00477224      -0.00088826
H       10.80931409       5.36707092       2.18701844      -0.01480670      -0.00380790       0.00454287
H       11.06420581       7.10295346       2.40903070      -0.00551136      -0.00361687      -0.00873572
H       10.78659156       6.44358080       0.78753071      -0.01642874      -0.01313536      -0.00281507
H        8.85022848       6.47625398       2.86919545      -0.00560704       0.00651618       0.00650405
O       11.42076520       2.63810913       0.88616898      -0.00597757       0.00218552       0.00371505
C       10.30579699       1.83981410       0.68658497      -0.00459346      -0.00030273       0.00267008
H       10.34798488       1.33884453      -0.31872213      -0.00048467      -0.00249904       0.00423177
H        9.35236693       2.38333956       0.68573362      -0.00532109      -0.00172397      -0.00168121
H       10.24414618       1.11249002       1.51969153      -0.00570843       0.00190296       0.00423427
H       11.38577911       3.37305114       0.20000070      -0.00234118      -0.00279945      -0.00128449
O       10.48888793      10.42032714       2.39178106      -0.00077084       0.00157430       0.00886196
C        9.35357473       9.64095750       2.87315951       0.00514755      -0.00566471       0.00951627
H        9.70640987       8.71278509       3.31444175       0.01301284       0.00901175       0.03309802
H        8.73283037       9.38154928       2.01960999       0.02124657      -0.03395484       0.00690413
H        8.77401804      10.22506907       3.58728565      -0.01353931      -0.00196172      -0.00938612
H       11.09481216      10.54677836       3.21312539      -0.00134903       0.00916430       0.00729907
O        1.84726142       6.72975139       2.66334643      -0.00503787       0.00047344      -0.00726295
C        2.15489079       7.12874007       1.34179027      -0.00756405      -0.00162521      -0.00853413
H        1.54802146       7.99916649       1.06560228      -0.00510240       0.00042292      -0.00698039
H        1.96648048       6.33342750       0.61830224      -0.01344014      -0.00131646      -0.00750318
H        3.21141807       7.40861288       1.25556257      -0.00678909      -0.00582197      -0.01257874
H        1.66949208       5.77286703       2.63490626      -0.00332419       0.00006545      -0.00438012
