143
Lattice="11.97699798598674 0.0 0.0 0.0 11.97699798598674 0.0 0.0 0.0 11.97699798598674" Properties=species:S:1:pos:R:3:forces:R:3 energy=-592744.375 stress="-0.00373829691670835 -0.001071281498298049 3.5796474548988044e-05 -0.001071281498298049 -0.003445104230195284 0.00040637439815327525 3.5796474548988044e-05 0.00040637439815327525 -0.0021167427767068148" pbc="T T T"
Lu      11.33698072      12.35758856       0.22572968       0.00944862       0.00033002       0.00524491
O        8.06365671       6.04564724       6.86169546      -0.00231713      -0.01548123      -0.00384080
O        8.39645354       8.19757983       6.29289462      -0.00548971      -0.01813793       0.00673521
C        7.01675822       7.70563303       8.15622811      -0.00349653      -0.00501209      -0.00612694
C        6.75038430       9.04603732       8.40506998       0.00079662       0.01568091      -0.01450206
C        6.46490679       6.73816928       8.99552040      -0.00631118       0.01797621      -0.00649879
C        5.91657234       9.40971438       9.45428269      -0.00067897       0.00624624      -0.01223009
C        5.63645765       7.10168717      10.04281106      -0.00311567       0.00875019      -0.00868362
C        5.34763326       8.44297066      10.27142552      -0.00014010       0.02254830      -0.01196775
C        7.90149276       7.28591892       6.99213206       0.00645995       0.03727689      -0.01762652
H        7.21010490       9.79321276       7.77513140       0.00017320       0.00199270      -0.01312952
H        6.70459919       5.70208865       8.78767885      -0.00818302       0.00681552      -0.00399749
H        5.70733794      10.45711400       9.62868982       0.00384457       0.01431870      -0.01695042
H        5.18598734       6.34415518      10.66817548      -0.00622187       0.01889045      -0.00636211
H        4.67128375       8.71939842      11.06967355       0.00228585       0.01907190      -0.01108840
O        0.40103844       1.33561423       1.81666459      -0.00321570       0.01684593       0.00343895
O        0.48622348       2.12062395      -0.24227888       0.00616039       0.00080504      -0.00125004
C        2.29598336       2.66978337       1.19976756       0.00127098       0.00849526       0.00070351
C        2.84089183       3.53300691       0.24452150       0.00367289       0.00452232      -0.00008431
C        2.99986764       2.35755586       2.36305690      -0.00053881       0.00934395       0.00221241
C        4.08885952       4.08283820       0.46549171       0.00466911       0.00223280      -0.00120566
C        4.25723350       2.89419346       2.55759263       0.00047977       0.00679599       0.00068894
C        4.80187390       3.76369953       1.61971278       0.00315636       0.00260452      -0.00022022
C        1.01697830       2.04178284       0.93306655       0.00081089       0.00891085       0.00138743
H        2.26254972       3.76426036      -0.63977666       0.00474381       0.00368844      -0.00092762
H        2.56810896       1.67388685       3.07994505      -0.00252370       0.01296265       0.00345562
H        4.50534684       4.78133415      -0.24783933       0.00711806      -0.00052463      -0.00194063
H        4.81006527       2.63006130       3.44678128      -0.00134396       0.00799952       0.00213055
H        5.75966202       4.23788226       1.80300325       0.00393483       0.00088838      -0.00112959
O        4.92643588      11.67976981       1.38414368      -0.03231227      -0.03134382      -0.01961803
O        2.75864705      11.14874237       1.61252279      -0.04155183       0.01859617      -0.00730485
C        4.09066509      11.24618796       3.57478281      -0.02834530      -0.00397659      -0.01418340
C        2.96650610      11.07397575       4.38258886      -0.02384761      -0.00128056      -0.00614902
C        5.34759128      11.30548869       4.17916805      -0.02576029      -0.00438428      -0.02407974
C        3.09307207      10.95769803       5.75918845      -0.01162982      -0.00022138      -0.00651187
C        5.48068536      11.16430287       5.55573575      -0.01374583      -0.00143044      -0.02477930
C        4.35253449      10.99020231       6.34854610      -0.00895106      -0.00005301      -0.01708457
C        3.91486700      11.36857974       2.06629866      -0.03667758      -0.00640213      -0.01294446
H        1.99853848      11.02666699       3.90088294      -0.02679585       0.00008375       0.00254840
H        6.22088000      11.47248525       3.56029463      -0.03051532      -0.00614239      -0.03142015
H        2.20696045      10.82387533       6.36832843      -0.00717693       0.00053333       0.00006516
H        6.45867631      11.20816581       6.01571115      -0.01130825      -0.00102476      -0.03346997
H        4.46332713      10.86888669       7.41972833      -0.00006285       0.00083230      -0.01779814
S        6.06429327       2.50422084       5.75799709      -0.00721955      -0.00100345      -0.00424474
O        7.45838762       1.99683341       5.95367047      -0.01034570      -0.00814736      -0.01478419
C        6.18188713       4.20631948       5.23303864      -0.00155856       0.00087112       0.00156118
C        5.40938528       2.82036466       7.40952686       0.00331141      -0.00298283      -0.00008851
H        6.64030091       4.19776510       4.24486712      -0.00496823       0.00162739       0.00007176
H        6.80315845       4.77912172       5.92727733       0.00115368      -0.00424239       0.00048584
H        5.17843000       4.62493154       5.13471298      -0.00042383       0.00457413       0.00471010
H        4.39549218       3.20606106       7.31504252       0.00577530       0.00395984       0.00705291
H        6.05485271       3.53718857       7.91857680       0.01061414      -0.00946084      -0.00078739
H        5.39707229       1.86315164       7.92798168      -0.00014375      -0.00467813      -0.00378781
S        7.83556086       1.31417826      12.16425200       0.00784728      -0.00662815       0.00334492
O        9.36670185       1.07386882      12.05572018       0.00681844      -0.00658755       0.00260282
C        7.11509610      -0.02529769      11.25640050       0.00571454      -0.00850818       0.00821769
C        7.51099724       2.62554910      11.00143833       0.00487546      -0.00886217       0.00229713
H        7.39523706      -0.94524306      11.76592269       0.01065559      -0.00720452       0.00729680
H        7.48470558      -0.01029919      10.22969443       0.00153436      -0.00879215       0.00691929
H        6.03567910       0.08358047      11.37274969       0.00608721      -0.01155002       0.01234703
H        6.42542278       2.69923229      10.92191133       0.00485188      -0.01124135       0.00380836
H        7.96387000       2.37618032      10.04112958       0.00429028      -0.00984322       0.00257832
H        7.90431439       3.55258316      11.41075720       0.00380906      -0.00796761       0.00071687
S       10.84298867       4.87201059       4.77211789       0.00403375      -0.01661801       0.00880599
O       11.39835199       5.95294441       5.65092173       0.00739163      -0.01500058       0.00278270
C        9.33587448       5.53694296       4.06416219       0.00925779      -0.01217136       0.00090036
C       10.08456434       3.63541488       5.81695233      -0.00691378      -0.00366312       0.01573056
H        9.63179360       6.38088684       3.45192301       0.01734785      -0.02066102      -0.00757491
H        8.70208579       5.87903949       4.88701431       0.01124187      -0.00045543      -0.00489029
H        8.84788499       4.78857370       3.44284939       0.00530124      -0.01438939       0.00677935
H        9.61449921       2.88755367       5.18069566      -0.01106669      -0.00503666       0.02115332
H        9.33276000       4.11475350       6.44237367      -0.00432140       0.00618455       0.01026540
H       10.87524300       3.19501744       6.41975149      -0.01122397      -0.00464939       0.02045856
S        2.22095872       5.97246889       4.40475873       0.00551438      -0.00321811       0.00162399
O        3.65891057       5.66391834       4.09940259       0.00473237       0.00197434      -0.00748891
C        1.32623870       5.86031251       2.83807429      -0.00164691       0.00084557       0.00633132
C        2.10313063       7.76529592       4.54516217       0.00277100      -0.00465691       0.00887641
H        1.17353550       4.80786244       2.61599063      -0.00105816       0.00184739       0.00292989
H        1.93036330       6.33098848       2.06315437      -0.00580695       0.00474049       0.00564498
H        0.37888184       6.38339610       2.94576992      -0.00136131      -0.00055742       0.01280818
H        1.07240822       8.02071513       4.78260937       0.00389120      -0.00697051       0.01503460
H        2.40204404       8.22759080       3.60590157      -0.00341851      -0.00135389       0.00883938
H        2.78695827       8.07048832       5.33298178       0.00631827      -0.00600215       0.00589688
S        2.15819453      10.55556333      10.96542440       0.00360954       0.00800300      -0.00287127
O        0.73150207      11.06652776      11.32318534       0.00077146       0.00273994      -0.00832695
C        3.14487917      12.02235206      10.72876614      -0.00108467       0.01033670      -0.00695733
C        1.94961947      10.14643830       9.24130307       0.00712845       0.00411825      -0.00239128
H        3.53919345      12.30424049      11.70374035      -0.00013380       0.01290953      -0.00849420
H        2.52750859      12.78998062      10.26397626      -0.00386615       0.00745723      -0.00708637
H        3.95729851      11.73642926      10.05973802      -0.00127396       0.01129529      -0.00708982
H        2.87643614       9.67629041       8.91084396       0.00997011       0.01002674      -0.00178903
H        1.70537178      11.03529802       8.65987199       0.00190194       0.00197494      -0.00293761
H        1.16267182       9.40331548       9.19461909       0.01203504      -0.00063379      -0.00212444
S        6.07954813       7.56371696       2.58827223       0.01199007      -0.00609839      -0.01201236
O        6.98624918       6.42976974       2.20040129       0.00621259      -0.00521719      -0.02840889
C        4.56065323       7.33040206       1.65836888       0.00493026       0.00800813      -0.00305945
C        6.64892035       8.98911113       1.64429397       0.00979571       0.00092041      -0.00165087
H        4.06840262       6.48342220       2.12802801       0.00347757       0.00702520      -0.00714402
H        4.82083049       7.11990439       0.62483272      -0.00514458       0.01736188      -0.00702317
H        3.94117909       8.22599152       1.72485128       0.01003521       0.01012558       0.01064186
H        5.88543823       9.76742280       1.60632076       0.01247871       0.00415631       0.01428279
H        6.88982784       8.63251615       0.64098361      -0.00177775       0.01195472      -0.00786649
H        7.52716617       9.37821818       2.15707059       0.01640856      -0.00969968      -0.00584807
S        1.72835802       6.26364490       9.45881893       0.00104928       0.00153565       0.00729656
O        2.53483704       7.29906082      10.18613412      -0.00093663       0.00393236       0.00495362
C        2.86662576       5.04761947       8.74865243       0.00268602       0.00192666       0.01012471
C        1.30636247       6.96976034       7.85742862       0.00030652      -0.00282881       0.00606400
H        3.34126402       4.50096978       9.55947443       0.00482609       0.00579966       0.01107758
H        3.61726582       5.56910108       8.15430818       0.00065930       0.00153989       0.00772190
H        2.26294108       4.37468650       8.14119414       0.00346692      -0.00127825       0.01347537
H        0.86668659       6.21329417       7.20740920       0.00206044      -0.00486663       0.00763462
H        2.22331820       7.38807681       7.44085258      -0.00040810      -0.00251519       0.00545903
H        0.56812386       7.75304799       8.00740782      -0.00064109      -0.00374930       0.00418039
S       10.32247966       4.65217374       9.19298830       0.00329471      -0.00860825       0.00920975
O       11.63888076       4.17652003       8.66837254       0.00448656      -0.00791085       0.01478386
C       10.23591844       6.44468930       9.01317744      -0.00198495      -0.01077962      -0.00364428
C       10.48252479       4.66575444      10.99655394      -0.00235707       0.00418022       0.00891364
H       10.30658548       6.65312342       7.94702121       0.00010269      -0.01733284      -0.00452521
H       11.04340932       6.90503572       9.58152123      -0.00486293      -0.00477559      -0.00498899
H        9.26418932       6.77062435       9.38246870      -0.00352414      -0.01074389      -0.00836493
H        9.64770739       5.21081399      11.43782350      -0.00554726       0.00337972       0.00254312
H       11.43322605       5.13439213      11.25336459      -0.00520256       0.01033739       0.00844994
H       10.48288354       3.63282000      11.33435883       0.00163847       0.00686422       0.01599925
S       10.05770569       8.84911907       2.59755440       0.01048541       0.00055313       0.00576639
O       11.32116227       8.42496672       3.23944538       0.00792181      -0.00198838       0.00767377
C        9.92431065       7.94407498       1.03417795       0.00963301      -0.00014237       0.00679141
C       10.47312792      10.46720947       1.80795848       0.01501945      -0.00274351       0.00283970
H        9.57800857       6.94661444       1.29572701       0.00644309       0.00121607       0.00673649
H       10.91097581       7.91571328       0.56980320       0.00900517      -0.00223371       0.00672466
H        9.18373318       8.40657527       0.38349676       0.01083526       0.00114155       0.00725453
H        9.72276499      10.66147749       1.02949285       0.01462533      -0.00196168       0.00415383
H       11.49935994      10.30059780       1.43943538       0.01372854      -0.00471552       0.00032973
H       10.44092857      11.23262768       2.58920193       0.01937891      -0.00187544       0.00180727
S        9.99536344      11.62702411       7.52286100       0.00268662      -0.00254577       0.00512105
O        8.86475472      11.65202065       8.51181731       0.00475287       0.00374389       0.00891829
C        9.30475797      11.43004862       5.86900263      -0.00274757      -0.00429875       0.00828087
C       10.69047548       9.96068511       7.58872508      -0.00114664      -0.00279218       0.00926515
H        8.69211802      12.30825776       5.66864661      -0.00394796      -0.00602928       0.00936868
H        8.73220993      10.50032897       5.83390716      -0.00131553      -0.00554442       0.01024430
H       10.15374679      11.38023417       5.18379417      -0.00496291      -0.00382978       0.00546647
H       11.55809548       9.91887583       6.92737165      -0.00476741      -0.00745564       0.00566266
H        9.92879765       9.24452777       7.26531234      -0.00455591      -0.00296901       0.01278281
H       10.99362201       9.78353804       8.61853798       0.00192191      -0.00054638       0.00787504
