145
Lattice="12.420256939790745 0.0 0.0 0.0 12.420256939790745 0.0 0.0 0.0 12.420256939790745" Properties=species:S:1:pos:R:3:forces:R:3 energy=-1148520.0 stress="0.0004026068781968206 -0.00010854485663003288 -0.0002890930190915242 -0.00010854485663003288 -0.0015196873573586345 -0.00010661399574019015 -0.0002890930190915242 -0.00010661399574019015 -0.00026819793856702745" pbc="T T T"
Md      13.46098460      12.22731530       2.85848056       0.00419950       0.00694436       0.00394389
Cl       2.38039670      11.90698598       5.52553588      -0.01491687       0.00258714       0.00665307
O        1.12049432      12.70592484       5.26136968      -0.01304072       0.00283700       0.00132585
O        3.52960029      12.82390983       5.32390359      -0.01455456       0.00466233       0.01579116
O        2.40117652      10.89818470       4.39861764      -0.00697562       0.00508595       0.00493217
Cl       3.85687361      11.62183547       1.16933067       0.01393756      -0.03364408      -0.02974129
O        2.24284162      11.55085609       1.18485354       0.00066662       0.01160206      -0.00633910
O        4.17788308      12.10376054      -0.16309317      -0.00928512      -0.01766738      -0.00764585
O        4.29872088      10.25084278       1.37906936      -0.01606435       0.04057026      -0.00269328
Cl       7.24424527      10.73815370       9.86415515       0.01171470       0.01988506      -0.01787484
O        7.24478586      12.21499480       9.74743156       0.01768072       0.01807213      -0.03796262
O        7.41557331      10.39525504      11.30557349       0.02389115       0.04037905      -0.01434660
O        8.47471095      10.23837135       9.15123788       0.00240278       0.00237188      -0.01872337
O       10.85087620       6.57882201       0.33995936      -0.02151856      -0.03595048       0.01821232
C        9.95294356       7.46259760       1.02065030      -0.01275697      -0.02108727       0.00603831
C        8.59792480       6.81181367       1.22249192      -0.01909178      -0.00384882       0.01270908
C       10.60016429       7.83031986       2.34226720      -0.00906065      -0.01397945       0.00133592
H        9.81524021       8.37281364       0.42095326      -0.00381652      -0.02542233      -0.00225383
H        7.92492970       7.47895879       1.76287602      -0.01234400       0.00926611       0.00296853
H        8.13850709       6.57678515       0.26367986      -0.02232503      -0.01053435       0.01593840
H        8.71349547       5.88785329       1.79614128      -0.02934413       0.00233570       0.02403653
H        9.91956081       8.42661603       2.94986510      -0.00037034       0.00388284      -0.00727393
H       11.51495241       8.39719288       2.18780789      -0.00086620      -0.03104240      -0.00502450
H       10.85548919       6.92509744       2.89283676      -0.02473876      -0.01062112       0.01308878
H       10.34009544       6.03416984      -0.27466489      -0.02290654      -0.02968445       0.01130976
O       12.21424884       1.87795391       2.84053364       0.00311673       0.00751099       0.00203127
C       11.17867909       2.70711767       3.46773460       0.00170469       0.00189905       0.00691965
C       11.55426436       4.16088863       3.28694984      -0.00205314       0.00321907       0.01096509
C        9.85508690       2.36774174       2.82489239       0.00250626      -0.00054079       0.00718823
H       11.15995729       2.46244162       4.53379519       0.00407368      -0.00194010       0.00582254
H       10.83387970       4.78766030       3.81346991      -0.00242230       0.00009399       0.01380946
H       12.53946092       4.37090534       3.70819116      -0.00198646       0.00350928       0.01050118
H       11.54998127       4.44448019       2.23227315      -0.00387240       0.00594198       0.01192123
H        9.09734570       3.07627852       3.16279555      -0.00040172      -0.00557594       0.01132255
H        9.51036178       1.36928192       3.08739430       0.00732128      -0.00332269       0.00375399
H        9.93053644       2.43120103       1.73813165       0.00121832       0.00605482       0.00772288
H       13.06864302       2.30711882       3.01612874       0.00214124       0.00878945       0.00498323
O        5.50883829       2.33639544       6.24223161      -0.00722551      -0.00498247       0.00794703
C        6.81621407       1.97690871       5.75944339      -0.00711298      -0.00923846       0.01106310
C        7.79483793       2.98332142       6.32195274      -0.00649032      -0.00936934       0.01007488
C        7.15880328       0.55591163       6.15911406      -0.01016699      -0.00819451       0.01583204
H        6.81547191       2.05747249       4.66221261      -0.00544150      -0.01182576       0.01082289
H        8.79708182       2.78032373       5.94244846      -0.00640081      -0.01150555       0.01153491
H        7.52034327       4.00159359       6.04936364      -0.00518148      -0.00974683       0.00736601
H        7.81307870       2.91123538       7.41112106      -0.00765648      -0.00703487       0.01020737
H        8.15245474       0.29598609       5.79162360      -0.01050654      -0.01214907       0.01815125
H        6.44927722      -0.15108673       5.72495929      -0.01061185      -0.01022623       0.02074370
H        7.15477385       0.44410485       7.24493983      -0.01106332      -0.00496999       0.01574299
H        4.92133809       1.58002141       6.11167457      -0.00923381      -0.00346054       0.00735992
O        7.33119763      11.99690152       1.12184121      -0.00087738      -0.00242603      -0.00120413
C        8.12982332      10.92950376       1.61981231      -0.00104445       0.00030142       0.00426543
C        9.61435419      11.23388276       1.40980135      -0.00070918      -0.00512865      -0.00254788
C        7.76137768      10.71876815       3.07412171       0.00260508       0.01354053       0.00664139
H        7.88763415      10.02668883       1.05042958      -0.00553137      -0.00362176       0.01237053
H       10.23704913      10.39805746       1.73434723      -0.00221552      -0.00341386       0.00480351
H        9.80345127      11.41129424       0.35048640      -0.00460155      -0.01664141      -0.00530761
H        9.90093136      12.12610530       1.97003215       0.00180353      -0.00112987      -0.01090524
H        8.34012597       9.90789868       3.52143452       0.00440345       0.01887483       0.01400886
H        6.70154869      10.47547421       3.15307750       0.00307584       0.01433415       0.01389870
H        7.94781566      11.62615874       3.65108196       0.00386943       0.01943000      -0.00324168
H        7.18386249      11.78066965       0.18377996       0.01100792       0.00100864      -0.00256410
O        4.62240499       3.62128041       9.19793833       0.00447136      -0.00333007      -0.01120931
C        3.55406400       3.58623179      10.14504206       0.00454509      -0.00075964      -0.01071125
C        2.48353442       4.60572426       9.79207639       0.00426763      -0.00130779      -0.01221350
C        3.00035474       2.17884872      10.28559698       0.00296319      -0.00014830      -0.00894678
H        4.02112137       3.88374322      11.08916224       0.00432414       0.00022666      -0.01162541
H        1.67608218       4.58148097      10.52660816       0.00588267       0.00096605      -0.01073229
H        2.90439190       5.60978125       9.77450021       0.00503288      -0.00130540      -0.01487455
H        2.05931520       4.38449624       8.80930067       0.00286360      -0.00307809      -0.01077494
H        2.23361611       2.13707152      11.06258658       0.00469761       0.00128380      -0.00726150
H        3.78804230       1.47207804      10.54068893       0.00275049      -0.00084010      -0.00964248
H        2.53466051       1.85955433       9.34887620       0.00101149      -0.00051593      -0.00763273
H        4.27029776       3.40615804       8.32691172       0.00832795      -0.01454908      -0.00831628
O        2.54007682       1.69071206       2.96921338       0.00089267       0.00621508       0.00684786
C        3.29773205       2.44994589       1.96313886       0.00179141       0.00160202       0.00405759
C        2.67871092       3.82018959       1.85800114       0.00366831       0.00169039      -0.00088863
C        4.75948643       2.48055853       2.34857162       0.00142765      -0.00040311       0.00482765
H        3.16311879       1.89900612       1.03037977       0.00018431      -0.00176096       0.00643313
H        3.18476271       4.43058522       1.11209607       0.00326683      -0.00204462      -0.00410426
H        1.63184292       3.75937074       1.55493396       0.00328095       0.00152289       0.00052048
H        2.74030236       4.32699328       2.82326255       0.00547899       0.00491857      -0.00322786
H        5.30984884       3.07901790       1.62132093       0.00433780      -0.00764847       0.00160550
H        5.20421764       1.48544839       2.36371906      -0.00250934      -0.00208187       0.01155862
H        4.87670434       2.95302942       3.32734165       0.00173538       0.00485291       0.00159666
H        3.03523317       1.65261144       3.80387310       0.00061449       0.00648733       0.00687590
O        3.80963467       4.44397656       5.53586847       0.00695762      -0.00104505      -0.01265170
C        4.47041783       5.71164993       5.49788019       0.00348991       0.00094718      -0.00746534
C        5.01285626       6.09864471       6.86334416      -0.00313219       0.00018582      -0.00485301
C        5.56328236       5.71339509       4.43772647       0.00742078       0.00676661      -0.00311577
H        3.69222559       6.42363414       5.20550013       0.00255448      -0.00115639      -0.00931486
H        5.51829250       7.06549977       6.84138245      -0.00571103       0.00152518      -0.00201291
H        4.21348834       6.13311703       7.60254735      -0.00596322      -0.00330842      -0.00803785
H        5.73856536       5.35578756       7.20346978      -0.00219826       0.00210300      -0.00293638
H        6.01636243       6.70169850       4.34466823       0.00299034       0.00887379      -0.00036578
H        5.16470677       5.41957579       3.46867678       0.01224351       0.00591588      -0.00478588
H        6.35012760       5.00675029       4.71007543       0.00979514       0.01025062      -0.00066386
H        4.47736861       3.77311843       5.76925240       0.00521658       0.00022542      -0.00401374
O       11.12078079       2.83090809       7.12378327       0.00005001      -0.00324106       0.00455511
C       11.48353617       1.80986657       8.07304492       0.00082819      -0.00547159       0.00172818
C       11.72859171       2.42503075       9.43826319      -0.00133275      -0.00896379       0.00359756
C       10.44050065       0.70888648       8.12033742       0.00268793      -0.00693178      -0.00229589
H       12.41985940       1.40960778       7.67589197       0.00163072      -0.00302809       0.00152218
H       12.12347904       1.68096290      10.13114058      -0.00446404      -0.01119275       0.00295916
H       12.44103080       3.24481360       9.36742954       0.00021605      -0.00995451       0.00729376
H       10.80030146       2.81121033       9.86607677      -0.00165999      -0.00817867       0.00191030
H       10.72990606      -0.08326931       8.81229790       0.00385580      -0.00891745      -0.00517192
H       10.30013624       0.26402686       7.13522814       0.00330270      -0.00404090      -0.00356655
H        9.47774727       1.09101374       8.46671100       0.00170535      -0.01043405      -0.00092375
H       10.36460245       3.29981121       7.49119751      -0.00144858      -0.00640181       0.00455880
O        9.26042187       4.25699485      11.49315181       0.00479735       0.02442468      -0.00107145
C        8.27030821       4.04205909      10.45931807       0.00248772       0.01537197       0.00250934
C        7.63300406       2.67614671      10.59407182       0.01086953       0.01329410       0.01289825
C        7.25598623       5.16900222      10.45000642      -0.00329435       0.00956029       0.00087510
H        8.85256538       4.08589807       9.53323494      -0.00078288       0.01385179       0.00073695
H        6.92009353       2.49926714       9.78914667       0.00514421       0.00712952       0.02008966
H        8.36554054       1.87074141      10.58237476       0.01449259       0.01685908       0.00887689
H        7.06695806       2.60237369      11.52820533       0.02022073       0.01475936       0.01847360
H        6.54255056       5.03393141       9.63764275      -0.00376242       0.00207742       0.00281402
H        7.74244786       6.13770556      10.33823768      -0.00932238       0.01193443      -0.00424040
H        6.68479372       5.16642377      11.38232312      -0.00161012       0.01033074       0.00182772
H        8.86608030       3.95830234      12.31883803       0.01361981       0.01788574      -0.00010168
O        7.63832831       8.21722411       7.59188864       0.00136244      -0.00401783      -0.01163155
C        8.72074818       7.69986421       6.85234585       0.00476599      -0.00278950      -0.00726572
C        9.85644110       8.70561578       6.72753129       0.00107628       0.00100535      -0.00851763
C        9.20053308       6.38487615       7.46295440       0.00817895       0.00133061      -0.00142950
H        8.33315656       7.47922466       5.84640122       0.00750583      -0.00755501      -0.00684643
H       10.65224575       8.31400596       6.09056719       0.00276759       0.00226124      -0.00725276
H        9.49211049       9.64321473       6.30720042      -0.00188635      -0.00168011      -0.01130445
H       10.27227665       8.92746664       7.71170056      -0.00039021       0.00495703      -0.00901172
H        9.92629358       5.88896192       6.81235506       0.01414314       0.00353236       0.00410512
H        8.34931346       5.72102561       7.61689339       0.01064290      -0.00290941      -0.00466600
H        9.66930202       6.56732620       8.43223655       0.00167883       0.00591914       0.00051099
H        7.96576738       8.93345864       8.18470143      -0.00218630      -0.00025041      -0.01401563
O        2.64656638       6.46092112      -0.01604142      -0.00119606       0.00074220      -0.00804013
C        2.88571130       7.63170676       0.78305838       0.00128499       0.00083423      -0.01030600
C        1.58736815       8.13691183       1.37595874       0.00477803       0.00261953      -0.00432217
C        3.87376780       7.23994185       1.85741427       0.00562018      -0.00095645      -0.01518542
H        3.33011123       8.41113247       0.15874293      -0.00216305       0.00092983      -0.01144695
H        1.77964811       9.01264304       1.99744762       0.00633639       0.00163175      -0.00575115
H        0.87929536       8.41678131       0.59314195       0.00014049       0.00234849      -0.00192969
H        1.13269764       7.35195633       1.98264987       0.00659991       0.00118160      -0.00221445
H        4.17787134       8.11828749       2.42300523       0.00816730       0.00058925      -0.01505473
H        4.76292371       6.78596969       1.41808658       0.00240082      -0.00030774      -0.01861174
H        3.41554496       6.52357293       2.53877861       0.00859685      -0.00002396      -0.01277487
H        1.85125874       6.61796443      -0.53276760      -0.00198371       0.00354692      -0.01124661
