149
Lattice="12.749264097391466 0.0 0.0 0.0 12.749264097391466 0.0 0.0 0.0 12.749264097391466" Properties=species:S:1:pos:R:3:forces:R:3 energy=-254376.71875 stress="-0.00021017258404754102 0.0004344709304859862 -0.00014773116708965972 0.0004344709304859862 -0.0008255355060100555 -0.0005448620649985969 -0.00014773116708965972 -0.0005448620649985969 -0.0009856822434812784" pbc="T T T"
Mg      13.56869547      12.27037199      -1.74611785       0.00337250      -0.00683239      -0.01000328
Cl      12.91379980      10.08828751       9.49614991       0.01025546       0.01425066       0.02650714
O       14.26188577      10.75179501       9.80420852       0.00868100      -0.00462198       0.01915395
O       12.90361424       8.73858341      10.03776083       0.02069968      -0.03294790       0.02025038
O       11.98685767      10.97274943      10.30600693       0.02036339       0.01530045       0.01894706
Cl       7.69231153      12.29832309      12.31632533      -0.00793803      -0.01375484       0.01324701
O        6.22971220      11.94753855      12.39815910      -0.00142455      -0.03810221       0.00348219
O        8.44844775      11.06310756      12.01591244       0.01666200       0.00628567       0.00692993
O        7.85290842      13.23985273      11.16806039      -0.02992342       0.00297117       0.02183390
S       10.56182182       7.38293119       1.46803547       0.00013041       0.01234436      -0.00519502
O        9.46784257       6.35638032       1.42847380      -0.00690401       0.02089608       0.00285150
C       10.81372156       7.91491664      -0.23000517      -0.00401045       0.00877464      -0.00715399
C       12.10960706       6.49073388       1.68375776      -0.00481933       0.00118035      -0.01492874
H       10.00606359       8.60005660      -0.48736207      -0.00474519       0.00784539      -0.00586651
H       10.79428517       7.03529297      -0.87535468      -0.00430454       0.00832951      -0.00547995
H       11.76816547       8.43039638      -0.32730661      -0.00571153       0.01011159      -0.00988830
H       12.93246318       7.20595750       1.67619238       0.00126782      -0.00602823      -0.03103705
H       12.23852181       5.73582939       0.91120671      -0.02058179      -0.00516656      -0.01021862
H       12.05641159       5.99043936       2.64733267       0.00287306       0.01046747      -0.00974868
S       10.97006445       2.44920120       2.21715156      -0.01021266      -0.01208800      -0.00739086
O       12.06313962       3.40244955       1.86560100       0.02015948       0.00120366      -0.02865463
C       11.78493268       0.90728074       2.67503943      -0.00308403       0.00124240      -0.00344093
C       10.23832687       1.84248515       0.69667140      -0.00513932      -0.00710922      -0.00255644
H       12.44393363       1.13558302       3.51274157      -0.01124758      -0.00628937       0.00369544
H       12.37210384       0.55888377       1.82469033       0.00175975      -0.00398758       0.00366724
H       11.02191917       0.18735336       2.96829986      -0.01005386       0.00144932      -0.01073071
H        9.54535126       1.04132522       0.94911445      -0.00519654      -0.00841649       0.00687462
H       11.02480645       1.49550937       0.02733981      -0.01007633      -0.01156494      -0.00428865
H        9.69982749       2.67251465       0.24481362      -0.00897437      -0.01112698      -0.00413701
S        9.58664084       3.14777336       6.62776054      -0.00523627       0.01083648      -0.00737581
O        8.79084062       4.39756165       6.80173264       0.02610517      -0.01686633       0.00324714
C       10.85471754       3.51323020       5.40155286       0.00952980      -0.00133272      -0.00613034
C        8.59962229       1.99762835       5.67551572      -0.00401258       0.01293087      -0.02291441
H       11.53922346       4.21935455       5.86687252       0.00382686       0.00314125      -0.00288448
H       10.38763989       3.95747653       4.52412981       0.01022989      -0.00246647      -0.00907938
H       11.38279233       2.60039170       5.12924419       0.01249085       0.00393015      -0.00214374
H        9.19083424       1.12665697       5.39684291      -0.01568724       0.01325679      -0.03101055
H        8.21857277       2.48482885       4.77961011       0.00073114       0.02895086      -0.01675154
H        7.78135303       1.69412901       6.32645072      -0.00807893       0.01746426      -0.02449198
S        8.25327244      11.41746392       2.89993730      -0.00389539      -0.00693130      -0.00738037
O        8.77615090      12.73219091       3.40280297      -0.00330886      -0.00079536      -0.01353931
C        6.45576693      11.53872497       2.91212380      -0.00387007      -0.00447620      -0.00870146
C        8.39766395      10.25923359       4.26172443      -0.00069631       0.00195962      -0.00051719
H        6.17547179      12.24623102       2.13425408      -0.00022278      -0.00632444      -0.01114596
H        6.11355967      11.85050216       3.89904722      -0.00334587      -0.00099574      -0.00909716
H        6.04623333      10.56230105       2.65439801      -0.00385919      -0.00590681      -0.00705837
H        7.99282449       9.30292507       3.93789995       0.00268099      -0.00106848       0.00345200
H        7.85531895      10.63533267       5.12995972      -0.00321956       0.00299810      -0.00210968
H        9.45059633      10.11705237       4.49207053      -0.00081649       0.00707205       0.00053522
S        3.22267797       1.75287998      11.29844520       0.01914069       0.00542045       0.00269854
O        2.45793342       0.59136112      10.67644160       0.02502346       0.00263435       0.00790533
C        2.80462585       3.19650248      10.32223905      -0.01001224      -0.00719175       0.00270787
C        4.89567703       1.54803328      10.73163790       0.00947779      -0.01095612      -0.00557706
H        1.82160229       3.53913047      10.63177722      -0.01252365      -0.02099820       0.01836331
H        2.83621447       2.92341018       9.26708338      -0.02520246      -0.02246049       0.00490572
H        3.53281820       3.97790672      10.53496112      -0.00231315      -0.01690319       0.00772014
H        5.47577981       2.38936798      11.11064269      -0.01506066       0.00551568      -0.00775599
H        4.91702393       1.52174611       9.64295771      -0.01163255      -0.03223026      -0.00626555
H        5.29098378       0.62861154      11.16667010       0.00450325      -0.01115060       0.00812364
S        2.75789060       1.46254018       3.98486464      -0.01933676       0.00879323      -0.00221187
O        2.79665466      -0.03661049       4.09404232      -0.03406978       0.01075399      -0.00042418
C        2.79947232       1.83953626       2.22883146      -0.00874212       0.01030494      -0.00129890
C        4.40560969       2.06555527       4.38797909      -0.01418513      -0.00480859       0.00156991
H        1.93279490       1.34820099       1.78983666      -0.01437359       0.02649166      -0.00601236
H        3.71878424       1.43541888       1.80119158      -0.01235650      -0.00168285       0.00227456
H        2.71054503       2.91351434       2.05773873       0.00889142       0.01148200       0.00107071
H        4.44235328       3.15218848       4.30558408      -0.00340770      -0.00613010      -0.00913843
H        5.13577758       1.60850613       3.72000528      -0.01684847      -0.01911767       0.00762832
H        4.60641027       1.77321864       5.41658454      -0.02079382       0.00245437       0.00447065
S        6.33475328       6.25589410       4.87923076      -0.00209570       0.00109768      -0.00007260
O        5.73321112       5.02533764       4.26901661       0.00112945      -0.01046455      -0.00600773
C        5.77451666       7.64727127       3.86318502      -0.00572525      -0.00562888      -0.00397044
C        8.05506934       6.29084687       4.38585347      -0.00333041       0.00455587       0.00297183
H        4.69793170       7.52465422       3.75503444      -0.00581226      -0.00608166      -0.00176926
H        6.25901515       7.62468698       2.88630968      -0.00683731      -0.00665643      -0.00375147
H        5.96065776       8.57530522       4.40146749      -0.00656541      -0.00373277      -0.00367486
H        8.52366291       7.22312056       4.70500170      -0.00724551       0.00634333       0.00600974
H        8.14164483       6.16043395       3.30714081       0.00145301       0.00557139       0.00482360
H        8.52170666       5.47465644       4.93266397       0.00005334       0.00636926       0.00540826
S       11.45575323       1.53815316       9.60778293       0.00488716       0.00703192       0.02536517
O       12.35607220       1.04199293      10.72749027       0.00697362       0.01229638       0.02140427
C       12.05242683       0.75594421       8.09822003      -0.00343364       0.00962624       0.01834103
C       12.06591381       3.19964384       9.31769331      -0.00843582       0.00830281      -0.00293675
H       11.69488838      -0.27103629       8.09544603       0.00237921       0.00942490       0.02582435
H       13.14246636       0.79478484       8.08105109      -0.00303626       0.00464907       0.00931217
H       11.63297034       1.29864268       7.25271179      -0.00419845      -0.00055112       0.01217973
H       11.36333521       3.74411729       8.68967712      -0.00175604       0.00945467      -0.00796333
H       13.06214985       3.16218049       8.88087740      -0.00641650       0.01897170       0.00166614
H       12.09095674       3.66286276      10.30279073      -0.01005289       0.02264804      -0.01351258
S        9.13041710       4.42096929      10.72879738      -0.00428544      -0.00021005       0.01686883
O        9.55124904       5.56119072       9.85663980       0.00798172       0.00063515       0.02708769
C        8.09521071       3.30232559       9.77344610      -0.00203598       0.00881571       0.00231710
C        7.81877145       5.01815250      11.80203210      -0.01013917      -0.00007275       0.01124048
H        8.72866155       2.82115327       9.03426228       0.00136739       0.01312057       0.00285830
H        7.30436275       3.86480841       9.27744926       0.00412561       0.01672915       0.00128312
H        7.72634481       2.52910289      10.44953878      -0.00973159       0.00689159      -0.00414476
H        7.45995893       4.17339514      12.39060256      -0.01452830      -0.00101962       0.00717686
H        7.01698468       5.43455370      11.18865084      -0.00513534       0.00218576       0.00606485
H        8.26186174       5.75725747      12.46967427      -0.01091830      -0.00121610       0.01339638
S       10.78475039       8.41864702       7.04802418       0.00233024      -0.00922906       0.01635253
O       10.58116659       8.46371083       5.56347482       0.01118016      -0.00432146       0.01391613
C       11.29647062       6.74091212       7.44401801       0.00249420      -0.00806904       0.01554228
C        9.16579930       8.31749870       7.82837972      -0.00076038      -0.01285647       0.00446621
H       12.22100486       6.56889405       6.89473299       0.00601834      -0.00855447       0.02332707
H       10.50631125       6.05414801       7.13751976       0.00563744      -0.00852512       0.01026918
H       11.46306386       6.66814343       8.51712521      -0.00398508      -0.00945825       0.01620011
H        9.30983375       8.11163073       8.88865407      -0.00753823      -0.00680244       0.00664420
H        8.59448358       7.50995891       7.37106437       0.00740362      -0.01677090       0.00405581
H        8.67052400       9.27628366       7.68809247      -0.00474791      -0.01652093      -0.00385257
S        3.62137001       5.51295494       0.05904633       0.01157236      -0.00051808      -0.01788259
O        2.45667960       4.79750623       0.66332359       0.01538336      -0.00783521      -0.04086334
C        5.00574888       5.25999443       1.17731627       0.00212401       0.00384906      -0.00333720
C        3.38829095       7.27367024       0.35492653       0.00096224      -0.00099504      -0.01267782
H        5.28347190       4.20922838       1.10390975       0.00523231       0.00442059      -0.00155549
H        4.70997386       5.47205331       2.20434071      -0.01152660       0.00125969      -0.00686768
H        5.84877585       5.88032113       0.87457304       0.00336236       0.00582451       0.00811514
H        4.16782142       7.82407508      -0.17084296       0.00849815       0.00514950       0.00786987
H        3.39223675       7.46611805       1.42910910      -0.02058593      -0.01094162      -0.01123612
H        2.42606212       7.52698419      -0.08569958       0.00832616      -0.00208662      -0.02981380
S        5.52888258       8.83028539       9.36493528       0.00516748      -0.00555974      -0.00307906
O        4.28134073       8.07189966       9.70483242       0.00643182      -0.01500940      -0.00160027
C        6.51740372       8.88633889      10.86347905       0.00158080      -0.00472443      -0.00234735
C        5.11186113      10.58187225       9.33937301      -0.00173673      -0.00748783      -0.00244598
H        6.83839178       7.86787553      11.07567429       0.00528056      -0.00235454      -0.00115521
H        5.91545627       9.29378490      11.67584682       0.00235654      -0.00581992      -0.00202002
H        7.38000388       9.53832619      10.72767051       0.00095016      -0.00313443      -0.00231154
H        6.03435022      11.15951824       9.26263707      -0.00025646      -0.00673840       0.01485269
H        4.58568305      10.83785596      10.25832997      -0.01716362      -0.01525377      -0.00959648
H        4.48785677      10.73929091       8.46253929       0.01075721      -0.00664566      -0.01117124
S        1.17721366      10.45518392       0.83110604       0.01007228       0.00863314       0.00894342
O        0.90648842      11.80153279       0.16109938       0.00466868       0.01181495       0.02137500
C        0.11421430      10.43210831       2.26814423       0.01281193      -0.00088592       0.01013929
C        2.74795312      10.66136361       1.65106664       0.01579118      -0.00258321       0.00220612
H       -0.91290965      10.46982045       1.90699284       0.01390776       0.00515709       0.00269896
H        0.34835339      11.28248748       2.90574870       0.01602297       0.00137818       0.00639974
H        0.27948019       9.49480579       2.79975946       0.01590954      -0.00454912       0.00191408
H        2.96434250       9.73992652       2.19243733       0.00312225      -0.00638103       0.00021283
H        2.70208801      11.50333742       2.34631426       0.02001818       0.00143135      -0.00122292
H        3.49113728      10.81824083       0.87014991       0.01476261      -0.00961426      -0.00175290
S        3.13788762       9.05036634       5.61618513       0.01603413       0.00109202      -0.00255609
O        4.43627704       9.62187000       6.08183168       0.00324047      -0.00823462      -0.02373624
C        1.83226074       9.96095669       6.45452502       0.01555699       0.01513019      -0.00953078
C        2.90162011       7.49188042       6.49529445       0.00302269       0.00416583       0.00674641
H        1.85744074      10.97507066       6.05856174       0.02677391       0.01264648      -0.01858553
H        2.05266482       9.95346481       7.52179297       0.01956543       0.02256586      -0.00920016
H        0.86975251       9.49333796       6.23935173       0.01146813       0.02486718      -0.00219710
H        1.87344208       7.16189874       6.34830271       0.00712436      -0.00040994       0.00250370
H        3.12926608       7.64386805       7.55271544      -0.00188570       0.01385771       0.00656137
H        3.58479439       6.76307960       6.06155203       0.01122750       0.00632774       0.01511036
