143
Lattice="12.217993039318724 0.0 0.0 0.0 12.217993039318724 0.0 0.0 0.0 12.217993039318724" Properties=species:S:1:pos:R:3:forces:R:3 energy=-117749.5390625 stress="0.001227675937116146 -1.1198381344001973e-05 -0.00023978366516530514 -1.1198381344001973e-05 -6.920654413988814e-05 -0.0009552620176691562 -0.00023978366516530514 -0.0009552620176691562 0.00040854685357771814" pbc="T T T"
Mg      14.15096686      14.03242720       0.47517279      -0.00655601       0.01803232       0.00548369
O        6.94806576      12.24833752       9.13127276       0.00507832      -0.00500149      -0.00542462
O        6.09559557      11.54516045      11.08405599       0.02433181       0.00041479       0.00466049
C        8.05452439      10.50176435      10.37360232       0.01214945      -0.00829929      -0.01677383
C        6.99925985      11.52681814      10.11153365       0.01363289      -0.00422829      -0.00476444
H        8.59474718      10.78430759      11.27870431       0.02514933      -0.01181521      -0.02368623
H        8.73509579      10.42500405       9.53332051       0.00104651      -0.01133989      -0.02540201
H        7.57784298       9.53983178      10.55980864       0.01017892      -0.00625834      -0.01082847
O       12.78216295      12.69464747       0.61615615       0.00181258       0.00866497      -0.00430295
O       12.83281432      10.47202590       0.61379124       0.00088343       0.00888866       0.00095618
C       10.95667615      11.54417934       1.62477831      -0.00060266       0.01116304      -0.00412279
C       12.27941248      11.56093864       0.89880308       0.00066555       0.00971215      -0.00217438
H       10.16247483      11.30114026       0.91582617      -0.00041671       0.01525797      -0.00545590
H       10.74122481      12.50942307       2.07351392       0.00132279       0.01069377      -0.00189981
H       10.96772032      10.76510076       2.38548335      -0.00313772       0.00963616      -0.00573444
O       11.80898152       5.17160686       1.26519268      -0.01274705       0.01659852      -0.00137112
O       13.03008196       3.46234774       0.56610750      -0.00872087       0.01539790       0.00597280
C       10.73129869       3.09069020       1.20076581      -0.01020372       0.01498181       0.00176081
C       11.95324405       3.89036981       0.97623523      -0.01099968       0.01599365       0.00284515
H       10.58359451       2.97400866       2.27680831      -0.01379175       0.01786849       0.00170761
H        9.85665068       3.61938462       0.82378636      -0.00981820       0.01242857      -0.00324057
H       10.83435187       2.11310081       0.74409900      -0.00755451       0.01355261       0.00520317
H       12.65717623       5.62239706       1.11171037      -0.01245093       0.01709607      -0.00040787
O        7.26709518       2.40879098       3.92123845      -0.00560770      -0.01143879       0.00141829
O        9.48533000       2.29284447       4.18229431      -0.00573879      -0.00225443       0.00228517
C        8.11005633       0.45702942       4.91228537       0.00205353      -0.00770438       0.00281835
C        8.37544558       1.80225106       4.31257812      -0.00305235      -0.00671276       0.00200056
H        7.28615817       0.51473954       5.62284769       0.00590882      -0.00880870       0.00740737
H        7.80970052      -0.22826932       4.11666477      -0.00157811      -0.00791764       0.00438988
H        9.00171922       0.07313012       5.39726972       0.00516203      -0.00638270      -0.00208263
H        7.44025705       3.30877748       3.52430168      -0.00818443      -0.01037022       0.00229456
O        2.71667300       0.17166941       3.55088292       0.03099750      -0.00356687      -0.00574088
O        2.84840459       1.94442587       2.20494422      -0.00415473       0.00537440       0.00433609
C        3.74316846       2.11163620       4.40754527      -0.00777659       0.00932351       0.00590438
C        3.05655873       1.41862922       3.29536680       0.00667552       0.00394908       0.00132987
H        3.18447431       1.99345375       5.33452666      -0.01800330       0.00791073      -0.00008398
H        4.71899196       1.64613135       4.56056168      -0.00819618       0.01319702       0.01835188
H        3.88584649       3.15872233       4.15916606      -0.01165059       0.00987291       0.00588147
H        2.53101178      -0.27976467       2.69334591       0.03928873      -0.00350229      -0.00902170
O        6.07938746       6.74487067       2.73864417       0.00622606      -0.00695360      -0.01062793
O        7.17798189       4.80591197       2.82122604      -0.00326587      -0.01252288       0.00060445
C        6.55239204       5.87586046       4.88528921      -0.00542813      -0.00053493      -0.00552523
C        6.64546392       5.73649208       3.40170376      -0.00175565      -0.00609934      -0.00404951
H        6.29009176       6.88554273       5.18781368      -0.00712945       0.00078762      -0.01055952
H        5.76592786       5.20809183       5.24471799      -0.00509840      -0.00022756      -0.00403328
H        7.49113280       5.57172842       5.34642773      -0.00602156       0.00312766      -0.00180638
H        6.14178882       6.56069342       1.78607315       0.00927126      -0.01076052      -0.00990957
O        8.09003519       1.65375980      11.53175450      -0.00205153      -0.00101891      -0.00652024
O        8.21730512       3.75196145      10.74675132       0.01161748       0.00288773       0.00704212
C        9.97954934       2.21583771      10.22866762       0.00230277      -0.00521636      -0.00076589
C        8.68212039       2.63807917      10.85839183       0.00430578       0.00018048       0.00023657
H       10.68014324       3.04706506      10.22005637       0.00233931      -0.00549091      -0.01005680
H       10.41033702       1.34404051      10.71767842       0.00369199      -0.00131361       0.00498886
H        9.77121449       1.95501403       9.18867934      -0.00180303      -0.01507910       0.00241050
H        7.13681554       1.89756107      11.71249206      -0.00132814       0.00134894      -0.00635320
O       10.29078843       6.03954221       6.58768019      -0.00390939       0.00553530      -0.00465780
O       12.14142471       7.28059587       6.71834476       0.00385708      -0.00976041       0.01427259
C       10.02260072       8.34597931       6.25936479       0.01690751       0.00932634       0.00137252
C       10.93291737       7.19679364       6.55379828       0.00457484       0.00074613       0.00450502
H        9.96151750       8.43426425       5.17045130       0.01996079       0.00869667       0.00105646
H        9.02450266       8.16402177       6.65436481       0.01422718       0.01951254      -0.00071497
H       10.43584152       9.27099743       6.65120625       0.02536705       0.00544994       0.00158302
H       10.92966667       5.28754874       6.67525277      -0.00842202       0.00144399      -0.00355487
O        2.82580776       7.31593668       3.01944275       0.00261965       0.00557057      -0.00472218
O        3.28629649       5.20996896       2.39555000      -0.00062355       0.00196040      -0.00108370
C        2.35218553       6.75350459       0.79789229       0.00197718       0.00286299      -0.00409389
C        2.87017164       6.32045460       2.13916098      -0.00003296       0.00646001      -0.00398836
H        1.46078688       7.37531062       0.90892980       0.00408889       0.00668165      -0.00505526
H        3.09353333       7.40383081       0.33076189       0.00394624      -0.00054339      -0.00603586
H        2.18387243       5.89005666       0.15695455      -0.00181505       0.00214900      -0.00209965
H        3.14920660       7.01758046       3.89963590      -0.00263964       0.00590572      -0.00273201
O        4.58888027      10.70880278       8.44733658       0.00388169       0.00052249       0.01095524
O        6.23484841       9.22027357       8.10229331      -0.00177658      -0.00174570      -0.01143545
C        4.13896060       8.45597007       8.99580032       0.00154567      -0.00148249      -0.00073785
C        5.10491529       9.46633660       8.46122672      -0.00045407      -0.00076140      -0.00089964
H        4.34296705       8.35199124      10.06492126      -0.00057432       0.00153567      -0.00007859
H        3.10842296       8.77770578       8.86527641       0.00133282      -0.00276757      -0.00291101
H        4.31729900       7.49342849       8.52320450       0.00329185      -0.00217044       0.00127918
H        5.31539984      11.33608236       8.27015281       0.00325868       0.00072207       0.00995174
O        3.03521623      11.26975972       1.09712711       0.00107056      -0.01070791       0.01652916
O        4.15964857       9.38792601       0.61560804       0.00494475       0.03545409       0.00266460
C        5.28395472      11.13881325       1.82917062       0.00476265      -0.00722161       0.00062302
C        4.14452936      10.48047626       1.11674920       0.00540196      -0.04248935      -0.01656181
H        5.53807067      12.07424838       1.32935576      -0.00652048       0.00184992       0.01189271
H        4.99642364      11.37383189       2.85483274       0.01184267      -0.02311392       0.00603744
H        6.14163507      10.47465371       1.82358624       0.00914551       0.00001927      -0.01633500
H        2.24607351      10.78662902       0.70587859      -0.00397784      -0.00616440       0.01298837
O        3.32160885       2.25953934      11.47380858      -0.00322080       0.00547150       0.00500622
O        5.46491381       1.74020788      11.69067660      -0.00276601      -0.00053090      -0.00678213
C        4.89260688       4.04436258      11.73965412       0.00265804       0.00094557      -0.00010452
C        4.54752864       2.58794361      11.63883271      -0.00124550       0.00193268      -0.00156262
H        5.06439750       4.43344870      10.73338275      -0.00977889       0.00449339      -0.00065294
H        4.08348370       4.60128837      12.20435173       0.00943448       0.00070266       0.01218326
H        5.82028692       4.18427792      12.28926783       0.00982010      -0.00231682      -0.01132015
H        5.59387254       0.18702131      11.07668255       0.01824969      -0.00361401       0.00133298
O        1.88884808       9.07399394       6.16792855      -0.01075512      -0.00587034       0.02084705
O        3.20649043       7.33200355       5.66927534      -0.02073406      -0.00531781      -0.00357995
C        4.03594360       9.54478878       5.29285068      -0.01707530      -0.00579840       0.00482902
C        3.01674894       8.53926591       5.73771080      -0.01664725      -0.00622523       0.00636967
H        4.10584251       9.46790476       4.20499975      -0.01693102      -0.00717909       0.00499058
H        3.76008670      10.55755481       5.56916563      -0.01701018      -0.00562905       0.00415709
H        5.01181502       9.28449503       5.70120285      -0.01715827      -0.00547409       0.00524119
H        1.21171765       8.37354839       6.35796482      -0.01123009      -0.00658152       0.02148978
O        7.51589684       6.13267322       8.75975239      -0.00047421      -0.00337401       0.00438410
O        6.79136776       6.80210277      10.78215122       0.00864172      -0.00281955       0.00675559
C        9.08404071       7.17365463      10.14234764       0.00700319      -0.00850415      -0.00024819
C        7.67265119       6.70143057       9.95443374       0.00405490      -0.00462055       0.00529948
H        9.70910090       6.29365578      10.30644401       0.00521469      -0.01063307      -0.00525894
H        9.44373858       7.66837889       9.24125014       0.00425274      -0.00720371      -0.00057225
H        9.17212891       7.83440444      10.99654237       0.01260338      -0.01126256       0.00147322
H        6.65487159       5.65544627       8.70622944      -0.00219059      -0.00062188       0.00618345
O       10.92579690       8.59093123       0.57988972       0.00643986       0.00354254       0.00179493
O       11.08777517       8.33663213       2.80466787       0.00202930       0.01003583       0.00301778
C        9.07063088       7.65441308       1.69803468       0.01194763      -0.01155078      -0.00198034
C       10.45797739       8.21496658       1.77498739       0.00597161       0.00185832       0.00086731
H        8.42168596       8.31263141       1.11893198       0.00570300      -0.01521002       0.00066735
H        9.07735731       6.68869647       1.18987041       0.02197469      -0.00874047      -0.00693156
H        8.67987553       7.53060051       2.70251031       0.01286396      -0.02022670      -0.00279015
H       11.74862070       9.14152590       0.69098691       0.00278848       0.00917768       0.00276721
O        5.23705239       2.43808133       7.19781160      -0.00625044      -0.00067342       0.00676071
O        5.52373238       4.40173112       8.21162480      -0.00431424       0.00023884       0.00429401
C        7.46148947       3.11701156       7.56526807      -0.00569957      -0.00128314       0.00286930
C        6.00099774       3.39595714       7.70582060      -0.00559527       0.00010687       0.00471571
H        7.65208577       2.07441942       7.81798609      -0.00597206      -0.00108686       0.00412194
H        7.75032709       3.27163677       6.52357389      -0.00731008      -0.00305350       0.00215602
H        8.03535633       3.79000148       8.19388461      -0.00429562      -0.00050737       0.00091425
H        4.28483423       2.65654647       7.35961163      -0.00650966       0.00012854       0.00487438
O        0.96121035       2.64107410       9.16493356      -0.00816940       0.00391322       0.00122076
O        2.59287590       2.61715665       7.65322951      -0.00541030      -0.00063793       0.00379330
C        2.26552980       4.60167468       8.98276800      -0.00633059       0.00247478      -0.00006375
C        1.99258023       3.21258790       8.52981278      -0.00675040       0.00211063       0.00198814
H        1.52133813       5.26245098       8.52960149      -0.00656635       0.00217332      -0.00012152
H        2.16762499       4.67163258      10.06443557      -0.00570042       0.00346562       0.00002828
H        3.25945753       4.89993784       8.66327495      -0.00638017       0.00211136      -0.00067936
H        0.82378926       1.77545825       8.75166860      -0.00816219       0.00300115       0.00319809
O       -0.08961325       2.82647170       4.38936801      -0.00817555      -0.00028759      -0.00110182
O       -0.55192978       3.78276708       6.35193519      -0.00583857       0.00443397      -0.00298995
C        1.15709486       4.74873840       4.96626099      -0.00376189      -0.00167274      -0.00486986
C        0.10962287       3.75388424       5.32597553      -0.00588971       0.00114980      -0.00297725
H        1.93881844       4.31617151       4.34828111      -0.01413557       0.00091310      -0.01927328
H        0.67509403       5.53146886       4.37139431      -0.00621016       0.00866570       0.01115099
H        1.56525421       5.22803461       5.85001730       0.00993895      -0.01365866      -0.00487265
H       -0.94933608       2.38381974       4.56990047      -0.00947171       0.00212094      -0.00058791
