149
Lattice="12.052832628323687 0.0 0.0 0.0 12.052832628323687 0.0 0.0 0.0 12.052832628323687" Properties=species:S:1:pos:R:3:forces:R:3 energy=-92359.8203125 stress="0.001805184525437653 0.00014496041694656014 -0.0001793464834918268 0.00014496041694656014 0.00034066688385792077 -0.0005786704714410007 -0.0001793464834918268 -0.0005786704714410007 0.0012401635758578777" pbc="T T T"
Mg      11.86936353      11.58689661      -0.14435540       0.00374512       0.00150491      -0.00294262
O        3.93429601       9.10357975       4.64606153      -0.00798148      -0.00631738      -0.00906472
O        5.66055982      10.40061464       5.17084875      -0.02987123      -0.00750977       0.00659853
O        3.71672318      11.32847787       4.47882099      -0.01338434      -0.00532150       0.01586068
C        4.48817144      10.38337310       4.77538323      -0.01247853       0.00121635       0.00763011
H        3.01189632       9.21059441       4.32111964      -0.01966512      -0.00429924      -0.01473321
O        6.24902003      11.09023915       7.79541684      -0.00669634       0.00536279       0.00985694
O        5.70523183      11.54606179       9.90020368       0.00402921       0.01208377       0.01130915
O        4.94898846       9.64642792       8.96501744       0.00689006       0.00442600       0.02067618
C        5.57885881      10.73314330       8.98085622       0.00009033       0.00155424       0.00982797
H        5.97156848      10.53712837       7.03583693      -0.01227082      -0.00079196       0.01007517
O        8.12912099       5.63225225      11.37855582      -0.00066108       0.00340669      -0.00335336
C        6.91608644       5.12576857      10.78290238      -0.00146892       0.00312680      -0.00188869
H        6.05697747       5.70572012      11.12151885      -0.00086749       0.00510058      -0.00345789
H        6.78436110       4.07060303      11.02336236      -0.00265019       0.00396165       0.00114724
H        7.01468640       5.23438912       9.70623221      -0.00133751       0.00004169      -0.00231734
H        8.17539729       5.36084591      12.30002969      -0.00021088       0.00515535      -0.00297448
O        7.17171880       4.15270398       7.20074840       0.01206881       0.00259286       0.00271469
C        7.74466164       4.82873711       6.09936592       0.00867954       0.00108665      -0.00018084
H        7.22490710       5.76541459       5.87795433       0.00462276      -0.00196224      -0.00325785
H        7.74684674       4.21626668       5.19313971       0.01109922      -0.00219768       0.00217879
H        8.78167831       5.05237968       6.34987500       0.00779751       0.00655903      -0.00108580
H        6.29080768       3.85913418       6.92207776       0.01306073      -0.00369369       0.00423212
O        2.78782286       5.41238127       9.62487856       0.00156879       0.00151294       0.00104862
C        3.78679378       4.91994486       8.74915738      -0.00397587      -0.00131474      -0.00342208
H        3.37298283       4.49765332       7.82923863      -0.00950336      -0.00093095      -0.00129104
H        4.39883886       4.13982953       9.22013541      -0.00328624      -0.00265130      -0.00631729
H        4.43752488       5.75281057       8.48591427      -0.00330180      -0.00276035      -0.00690979
H        2.19894178       4.69483298       9.89733927      -0.00105594       0.00376816       0.00230765
O       11.74981056       9.87113907       7.32624180       0.02227426       0.00608215      -0.00756417
C       10.50011214      10.34082938       7.80996571       0.02215907       0.01120577      -0.01536879
H        9.83318800      10.66088305       7.00448674       0.03139134       0.01917128      -0.01988837
H       10.62041339      11.16473490       8.51966573       0.02167684       0.00716749      -0.01216066
H       10.02290366       9.51136997       8.33030326       0.01328225       0.01157358      -0.02162480
H       12.29529217      10.57452837       6.91631222       0.03016261       0.00245251      -0.00625208
O        5.18396761       6.74298770       4.43805933      -0.00414044       0.00836875       0.00318992
C        6.02845890       6.96104788       3.32223349      -0.00173283       0.00012024      -0.00395960
H        6.75714494       6.15244528       3.27860211      -0.00314900       0.00563329      -0.00300971
H        6.57475604       7.90098005       3.42196903      -0.00579795       0.00489843      -0.00561979
H        5.46401809       6.99625511       2.38347981      -0.00721830      -0.00038709      -0.00074431
H        4.75857365       7.59960009       4.65467952      -0.00459976      -0.00500931      -0.00463656
O        4.80231504       4.29879562       5.56129472       0.01113090      -0.00063071      -0.00338876
C        4.01818521       3.51238198       4.69145965      -0.00206998      -0.00221914       0.00822088
H        4.42023254       3.50057849       3.67003949      -0.01425883      -0.00489517       0.00314826
H        2.98272953       3.86691898       4.62985541      -0.00144005       0.00258766       0.01933838
H        4.01904043       2.49143232       5.07146944      -0.00133438       0.00003046       0.01002529
H        4.90102946       5.19790169       5.18794152       0.00508265      -0.00312153      -0.00169447
O        1.72577818      11.40539697       6.28374669       0.01033604       0.00058664       0.01922309
C        2.71939615      11.23084704       7.29469461      -0.00119093       0.00303757       0.02602515
H        2.24549604      11.34438160       8.26732393      -0.02043059      -0.00877804       0.02319819
H        3.51272635      11.97266753       7.17580759      -0.01061198       0.01109558       0.04140271
H        3.17024382      10.23911583       7.25471231       0.00771202       0.00804937       0.02999343
H        2.24886817      11.37706263       5.44641024       0.01949833       0.00062109       0.01822890
O        9.23280621       6.47166861       3.94723190       0.00020108      -0.00377345      -0.00549030
C        9.47091844       7.56984958       4.80069367      -0.00091778      -0.00182325      -0.00764430
H        9.95830990       8.40307794       4.27970679      -0.00782970       0.00019920      -0.01068220
H       10.10255556       7.29899741       5.65467156       0.00451759       0.00206362      -0.01027346
H        8.50837498       7.92035555       5.17501629      -0.00116405      -0.00649107      -0.00327677
H        9.98944652       6.34532920       3.34938425       0.00108218      -0.00477138      -0.00427902
O       10.65677884       6.09842931      10.36096673      -0.00175601       0.00162202      -0.00831711
C       10.75412275       5.95721894       8.94653442      -0.00313674      -0.00016462      -0.00820714
H       10.22882849       6.76473873       8.43121821      -0.00215369       0.00007787      -0.00893819
H       10.35251679       4.99875538       8.60631999      -0.00476806      -0.00000852      -0.00680241
H       11.81176700       6.00914260       8.69472217      -0.00303534      -0.00178429      -0.00922467
H        9.74760305       5.89457615      10.64322065      -0.00187635       0.00231348      -0.00706814
O        5.78405347       1.50525735       6.71055053       0.01284254       0.00543508       0.00904936
C        6.64484509       1.42213393       5.59526503       0.00300717      -0.00140919       0.00207919
H        6.36007638       2.19988117       4.88736320       0.00527318       0.00265777       0.00595275
H        6.56890394       0.44681832       5.10764251      -0.01012090       0.00029868       0.00122994
H        7.69168823       1.61530392       5.87833964       0.00713933      -0.01250462      -0.00599313
H        5.90587344       0.67785797       7.21481222       0.00818482       0.00389484       0.00814527
O        0.64345485       7.77050469       6.03399542       0.00064051      -0.00103261      -0.00244416
C        1.78765101       7.28466929       6.74451171       0.00154868       0.00119548      -0.00362076
H        1.56850500       6.32979102       7.22477255       0.00170267       0.00441304       0.00272863
H        2.11282068       7.98842797       7.51095224       0.00650475       0.00446135      -0.00943452
H        2.60625148       7.14251367       6.04024694      -0.00089484      -0.00492481      -0.00627077
H        0.19104337       8.43452042       6.59817611       0.00736070       0.00904566      -0.00462236
O        6.82374861       2.24232161       1.87253358      -0.00387215      -0.01102501       0.00424277
C        6.07663303       1.02365954       1.96641549      -0.00419879      -0.01087236       0.00088311
H        5.72623447       0.69444130       0.98401636      -0.00777832      -0.00603195       0.00029802
H        5.23205933       1.11152675       2.65204721      -0.00187972      -0.01354901       0.00414163
H        6.74841970       0.26877593       2.36977568      -0.00309265      -0.01347303      -0.00547682
H        6.19475735       2.94798185       1.70264594      -0.00339969      -0.01019062       0.00729620
O       10.89870114       6.30884139       1.77712320       0.00326225      -0.00557745      -0.00392702
C       10.52653095       7.58759505       1.27959840       0.00237104      -0.00494912      -0.00272134
H       10.84169999       7.72059214       0.24172955      -0.00419001      -0.00662079      -0.00512755
H       10.95720518       8.39089299       1.88673394       0.00852855      -0.00560999      -0.00627780
H        9.44056803       7.66518929       1.33429892       0.00294358      -0.00313699       0.00433154
H       11.87728979       6.24354000       1.71007907       0.00266141      -0.00553220      -0.00483536
O        2.58997636       3.63654837       1.19720923      -0.00038564      -0.00338545      -0.00658655
C        3.81608322       3.84368335       0.53125461       0.00169259      -0.00686073      -0.00459632
H        4.52234851       4.42055326       1.15277881       0.00244445      -0.00947988      -0.00311562
H        3.68431259       4.37885385      -0.41298572       0.00476024      -0.00543919      -0.00440139
H        4.25426058       2.86609676       0.31860253      -0.00097358      -0.00791037      -0.00524305
H        2.06947750       4.44795816       1.08254846       0.00223744      -0.00243243      -0.00698695
O       11.08668765       0.72887108       1.34346952      -0.00178522       0.00525138      -0.00619566
C        9.76388419       1.28116705       1.54036482      -0.00349715       0.00048250      -0.00482455
H        9.14625959       0.90260615       0.73153504      -0.00503100      -0.00840446       0.00059070
H        9.79777601       2.36598761       1.49089686      -0.00890207       0.00017747      -0.01313241
H        9.35587763       0.95433792       2.49391978       0.00187880       0.00633786      -0.00055099
H       11.70949596       1.11932938       1.96700508      -0.00114620       0.01398170      -0.01217258
O        1.54949004       6.25373661       1.55615062       0.00243102      -0.00410423      -0.00716907
C        2.27927145       6.31256978       2.78928380       0.00472534      -0.00279958      -0.00866279
H        2.47296814       7.34297682       3.06996794       0.01249684      -0.00262737      -0.01463014
H        3.21746475       5.76307290       2.71222583       0.00035697      -0.00975645      -0.00759992
H        1.66782230       5.84785645       3.56208793       0.00291261       0.00603305      -0.00489844
H        1.82751261       7.01548573       1.00282349       0.00192308      -0.00394486      -0.00875675
O        9.17722581       1.41139523       8.71348445      -0.00219500      -0.00622082       0.00749147
C        8.04245567       1.77456891       9.50708169       0.00205773       0.00529112       0.00804839
H        7.54748993       2.65038540       9.08292628       0.00558807       0.00527340       0.00348023
H        8.42763963       2.02721812      10.49688862       0.00632659       0.00989442       0.00531673
H        7.32387342       0.95392295       9.59866605      -0.00151724       0.00947309       0.01490919
H        8.84603270       1.27556190       7.82198985      -0.00544863      -0.00934424       0.00891794
O        2.37767505       8.50077186       0.27354958      -0.00243378      -0.00792141      -0.01378988
C        3.77252280       8.80560776       0.12474692      -0.00425375       0.00161311      -0.01083308
H        4.09565220       9.52117770       0.88503042      -0.00992180       0.00266126      -0.00917023
H        4.00241308       9.18408158      -0.87247312      -0.00348811       0.00356495      -0.01002991
H        4.31504712       7.87629189       0.27484874       0.00128502       0.00484258      -0.01086836
H        1.85262552       9.26501911      -0.00732854      -0.00741260      -0.00700167      -0.00475140
O        0.58943545       4.37896870      11.00968683      -0.00284769       0.00286984      -0.00403342
C        0.02680132       3.20378255      11.54102091      -0.00453056       0.00486910      -0.00092438
H       -0.85539883       2.87561447      10.97389643      -0.00364020       0.00364017      -0.00179321
H       -0.25800535       3.33841590      12.59219402      -0.00704828       0.00948185      -0.00198358
H        0.79252060       2.42943463      11.48766934      -0.00500482       0.00400144       0.00361736
H       -0.11798940       5.04903307      10.92529229      -0.00238625       0.00273739      -0.00747112
O        6.03464245       7.41474895       8.12170238      -0.00098586       0.00210923       0.00947171
C        7.40365585       7.66065838       8.22870581       0.00036967       0.00077076       0.00263387
H        7.74493708       7.69915204       9.27632854       0.00432412       0.00654611       0.00098026
H        7.69701846       8.60599327       7.75310225      -0.00010476      -0.00311798      -0.00469497
H        7.94298838       6.84818582       7.74060673      -0.00316353      -0.00402346       0.00577798
H        5.56374139       8.24780688       8.38520856       0.00148705       0.00126308       0.01320007
O        2.21612494       2.23957265       9.38686734      -0.00290078      -0.00896055       0.00894234
C        1.15060719       2.09546897       8.45876410       0.00122461      -0.00212741       0.00277764
H        0.65932589       1.12066021       8.55043714      -0.00403649       0.00010568      -0.00022054
H        1.48426644       2.22043344       7.42601392       0.00663254      -0.00365047       0.00447950
H        0.42069787       2.86825216       8.69319428       0.00405112       0.00157490       0.00001675
H        2.96322963       1.71836189       9.07803833      -0.00434171      -0.01297104       0.01238694
O        1.36464369       9.12746621       3.86944147      -0.01998951      -0.01105645      -0.01534010
C        0.67381496      10.30220195       3.50830133      -0.00880519       0.00113112       0.00685823
H       -0.07386239      10.58333976       4.25383909       0.00135911      -0.00089841       0.01849905
H        0.17005732      10.15288879       2.54467228      -0.02142176       0.02044683       0.01061031
H        1.39404975      11.11694298       3.40061203      -0.00223267      -0.00446594       0.01063969
H        0.97935590       8.68614653       4.66627162      -0.00870305      -0.00997831      -0.01302084
O        7.04910769       8.17154715      12.18040705       0.00432039       0.00262791       0.00505671
C        7.37179738       9.44986029      11.65442505       0.00276311       0.00314599       0.00631699
H        7.60436194       9.41114421      10.58918576      -0.00349341       0.00554375       0.00471002
H        8.22755909       9.89538192      12.18163392       0.00629869       0.00129932       0.00239819
H        6.50783734      10.10066238      11.75906662       0.00403082       0.00423652       0.01275066
H        7.60198333       7.50294278      11.75860702       0.00062879       0.00283286      -0.00020264
