147
Lattice="12.169922871332027 0.0 0.0 0.0 12.169922871332027 0.0 0.0 0.0 12.169922871332027" Properties=species:S:1:pos:R:3:forces:R:3 energy=-90735.8828125 stress="-0.002155651105567813 -6.885174661874771e-05 0.0002497639070497826 -6.885174661874771e-05 -0.0004567122086882591 -0.0008216830028686672 0.0002497639070497826 -0.0008216830028686672 -0.0014728123787790537" pbc="T T T"
Mg      12.52826954      13.65565627       1.09698405      -0.01213889       0.00081933      -0.00024916
S       11.09388695      12.23932984      -0.07835067       0.01980478      -0.02197731      -0.00826159
S       11.95172178      11.49421341       1.72870426      -0.01977509       0.01315209       0.02039759
O        4.29469044       7.47143142       6.75881096       0.00353628       0.00305575      -0.00179562
C        5.17424993       8.54470196       7.09739381       0.00285619       0.00342071      -0.00181365
C        6.41644850       8.37720756       6.24483435       0.00435936       0.00144092       0.00127095
C        4.52801166       9.90568431       6.91412033       0.00341123       0.00286657      -0.00622444
H        5.45895947       8.44274300       8.15277167       0.00058700       0.00563376      -0.00116146
H        7.17428390       9.12069975       6.49790286       0.00437661       0.00106320       0.00219835
H        6.83225238       7.37774660       6.39232280       0.00306900       0.00141598       0.00314620
H        6.16252302       8.48864348       5.18894910       0.00676836       0.00056608       0.00078669
H        5.21113376      10.69969802       7.21909294       0.00253044       0.00337672      -0.00578023
H        3.61939606       9.98730985       7.51301122       0.00199680       0.00396393      -0.00900210
H        4.25598886      10.05998661       5.86766874       0.00658179       0.00080517      -0.00719473
H        3.38276606       7.75844448       6.92580609       0.00361556       0.00158303       0.00012595
O        1.68677884       8.38515212       6.46054565      -0.00204211      -0.00551638       0.00563210
C        1.76411559       8.18975465       5.03051509      -0.00176346      -0.00075708       0.00424019
C        1.51327002       6.72816744       4.70081285      -0.00055088       0.00012755       0.00090158
C        0.84541185       9.15204148       4.30577741      -0.00411975      -0.00070703       0.00780836
H        2.80131092       8.43523453       4.79616772      -0.00292712       0.00096571       0.00407737
H        1.51853021       6.56419678       3.62315397      -0.00090910       0.00280627       0.00058208
H        2.27637107       6.09597951       5.15746819       0.00042415       0.00004922      -0.00127167
H        0.53269480       6.41875871       5.07023829       0.00003752      -0.00198825       0.00025659
H        0.99379336       9.09391865       3.22605523      -0.00332466       0.00384013       0.00778925
H        1.05588308      10.17797010       4.61238254      -0.00671110      -0.00144020       0.01164661
H       -0.20761885       8.93791127       4.50200539      -0.00343913      -0.00418488       0.00604865
H        0.86993885       7.98125937       6.76975783       0.00347301      -0.00998162       0.00499461
O        3.35640677       1.79662826       3.97182750       0.00208712      -0.00711423      -0.00022230
C        2.98159930       1.25829656       2.71094416       0.00037846      -0.01318211       0.00208008
C        2.44799011       2.38281015       1.82169627      -0.00151230      -0.01647145      -0.00073507
C        4.10022639       0.51635091       2.00749455       0.00106108      -0.01394701       0.00393733
H        2.17587004       0.55436342       2.93880938       0.00164106      -0.01241314       0.00511944
H        2.29184544       2.06660605       0.76991894      -0.00086819      -0.02096607       0.00083803
H        1.59593159       2.89832758       2.28407191      -0.00270951      -0.01806795      -0.00081842
H        3.20603867       3.15703493       1.67693338      -0.00440520      -0.01398183      -0.00126036
H        3.72624103       0.06169987       1.08802817      -0.00020386      -0.02089760       0.00812052
H        4.50240852      -0.27701925       2.63468071       0.00332069      -0.00981411       0.00742486
H        4.90291014       1.20842124       1.74015313      -0.00094797      -0.01450035      -0.00254411
H        4.14884518       2.33131973       3.85085842       0.00040543      -0.00914235      -0.00293224
O        8.76522331       8.47118080      10.89105184       0.00668824      -0.00452375      -0.00712794
C        7.38571000       8.86077350      10.88014357      -0.00004292      -0.00304017       0.00832123
C        7.14397665       9.98818557       9.89627739       0.00360709       0.00118101       0.01090127
C        6.51147967       7.64473412      10.62052339       0.00321916      -0.00287056      -0.00394927
H        7.19666824       9.21861660      11.89638455      -0.00353631      -0.00910854       0.00592244
H        6.09684196      10.29672505       9.89056713       0.00258668      -0.00082729       0.00993459
H        7.75404454      10.85591119      10.14000280       0.00098835       0.00049223       0.01822575
H        7.39398536       9.68467845       8.87637818       0.00652145       0.00717150       0.01072115
H        5.44978844       7.90081080      10.66599067       0.00303020      -0.00414009      -0.00631781
H        6.71711822       6.87558335      11.36436164       0.00145751      -0.00654759      -0.00715248
H        6.70820380       7.23189027       9.62718672       0.00730469       0.00260600      -0.00472379
H        9.03962891       8.36281606       9.97452248       0.00340115       0.01268240       0.02489437
O        3.77971682       2.24397297      11.19591099      -0.00939989      -0.00567979      -0.01044323
C        4.26698397       3.41817105      10.52092019      -0.00184882      -0.00924039      -0.00254485
C        3.18590761       4.47007846      10.63324548      -0.00274357      -0.00848830      -0.00065249
C        5.58519504       3.86926727      11.12569857      -0.00451291      -0.00912648       0.00347677
H        4.41520188       3.17544825       9.46386654       0.00144298      -0.00181267      -0.00292897
H        3.48722511       5.37477741      10.10214260      -0.00018453      -0.00588748       0.00289866
H        2.25124279       4.11153371      10.20162558      -0.00060645      -0.00624048      -0.00484990
H        3.01060469       4.72732545      11.67888061      -0.00468619      -0.01209594      -0.00103539
H        5.95582966       4.76328142      10.62136981      -0.00132241      -0.01000848       0.00467402
H        6.34826770       3.09461969      11.03244338      -0.00486786      -0.00981028       0.00686217
H        5.45532782       4.10033574      12.18392607      -0.00810375      -0.00767343       0.00260612
H        4.44553694       1.55568791      11.09821938      -0.01264530      -0.01788549      -0.02677238
O        9.82121039      11.35591671       7.61061249       0.00456874       0.00212947      -0.01784831
C       10.65437795      10.75960386       8.61209574       0.00306094       0.00976238      -0.00903210
C       10.88222525       9.29338190       8.28809263      -0.00061014       0.00645012       0.00284785
C       11.96788523      11.50314146       8.76153302       0.00573748       0.00701311      -0.01958369
H       10.08796570      10.84720014       9.54173762       0.00602004       0.01895444      -0.01046997
H       11.42257793       8.78538534       9.08998784      -0.00265921       0.01248494       0.00779372
H        9.93404985       8.78373125       8.10161324      -0.00244705       0.00819337       0.00718785
H       11.47941237       9.22630961       7.37434285      -0.00041578      -0.00380027       0.00455520
H       12.55067103      11.08257721       9.58157270       0.00821538       0.00915857      -0.02051227
H       11.78614316      12.55237326       8.99092152       0.00907435       0.00868839      -0.02459720
H       12.55340970      11.43235731       7.84062736       0.00137294       0.00113107      -0.02123877
H       10.24439772      11.21366520       6.75685048      -0.00365770      -0.00650381      -0.00891157
O        8.86571583       4.92213788       5.12194348       0.00343633      -0.00949064       0.00752307
C        9.80297240       5.51999326       6.03323586       0.00057943      -0.00230896       0.00478533
C       10.09135560       6.95212483       5.63627453      -0.00492590      -0.00292403      -0.00064139
C        9.31602176       5.40266313       7.46656053       0.00202897       0.00040049       0.00515801
H       10.70873009       4.91649785       5.91387009       0.00285193       0.00079948       0.00622018
H       10.86082027       7.37583368       6.28206441      -0.00702112       0.00299112      -0.00248221
H       10.42895528       7.02065453       4.60349077      -0.00505989      -0.00553017      -0.00076833
H        9.20288000       7.57895162       5.73841913      -0.00748064      -0.00645111      -0.00325268
H       10.06233904       5.79438705       8.16088146       0.00002171       0.00647362       0.00348552
H        9.11289314       4.36440137       7.72439668       0.00733311       0.00037605       0.00871859
H        8.39591424       5.97838358       7.60245545      -0.00060432      -0.00379783       0.00358372
H        8.05893912       5.44929741       5.15893190      -0.00150314      -0.01497221       0.00978671
O        4.06321126       8.76839821       1.41298632       0.00601117       0.00591499      -0.00070435
C        3.58261570       7.47107985       1.77836787       0.00017235       0.00922269      -0.00225188
C        2.27380097       7.16064736       1.07111681       0.00182593       0.01194074      -0.00575587
C        4.63043525       6.40312552       1.51813467      -0.00261241       0.00501761       0.00538053
H        3.41670629       7.54115854       2.85486273      -0.00413527       0.01306770      -0.00260192
H        1.89595946       6.17423928       1.35266441      -0.00296937       0.01441965      -0.00487451
H        1.51247936       7.90440937       1.30196426       0.00394744       0.01542401      -0.01025280
H        2.42490829       7.14870980      -0.01257315       0.00582137       0.00870270      -0.00513287
H        4.29519404       5.43670089       1.90502478      -0.00746492       0.00664660       0.00462122
H        5.57372865       6.66039755       1.99804362      -0.00438605       0.00290207       0.00986019
H        4.80298067       6.29777281       0.44650025       0.00268116       0.00317956       0.00639483
H        4.01235914       8.83606886       0.45424607       0.01766326       0.00076100      -0.00514692
O        6.65297176       0.40431704       7.86696750       0.00078103       0.00092643      -0.00280911
C        6.84825200       1.59511178       8.61074231      -0.00084904       0.00183773      -0.00348756
C        8.26652332       1.70219614       9.15893294      -0.00087833       0.00322376      -0.00423959
C        6.48172113       2.82534110       7.79082887      -0.00158876       0.00076663      -0.00471386
H        6.15194180       1.50693523       9.45393554      -0.00029546       0.00203288      -0.00377083
H        8.39348506       2.63634899       9.71347684      -0.00093960       0.00329229      -0.00451349
H        8.50313836       0.86896730       9.82051544      -0.00034253       0.00378746      -0.00393099
H        8.98690501       1.68216361       8.33972121      -0.00126813       0.00296356      -0.00431994
H        6.53093851       3.73384442       8.39437904      -0.00318462       0.00089522      -0.00480933
H        5.47568334       2.72649847       7.38114596      -0.00103375      -0.00057101      -0.00545193
H        7.17935948       2.93728304       6.95928153      -0.00090733       0.00136563      -0.00387836
H        7.12186686       0.49631301       7.02176536       0.00416066      -0.00128329      -0.00002988
O        9.61070309       9.51851116       3.08873137       0.01191734      -0.00144720       0.00782543
C        9.35785166       8.69534822       1.94686483       0.00739025       0.01320124       0.00198945
C       10.61177247       7.94668135       1.51894286       0.00035620       0.00535035      -0.00361399
C        8.22935246       7.75443257       2.31443963      -0.00101471       0.01788694      -0.00444630
H        9.04127012       9.32511780       1.10800674       0.01076767       0.01991129       0.00807488
H       10.40593297       7.33466638       0.63923045      -0.00155456       0.01447231      -0.00864457
H       11.39878070       8.65649891       1.26146915       0.00637533       0.00119489       0.00301770
H       10.97113529       7.30910511       2.33210851      -0.00551451      -0.00351753      -0.00921488
H        7.98981153       7.10656967       1.46947140      -0.00380074       0.02557003      -0.01145601
H        7.33377154       8.31102358       2.59346278       0.00284167       0.02104214      -0.00235507
H        8.52413780       7.12492617       3.15747667      -0.00666728       0.01016527      -0.01053675
H       10.25468340      10.19364690       2.81067494       0.01461493      -0.00102863       0.01112048
O       11.66066810       3.29309507       0.84073465      -0.01246405      -0.00123852       0.01193082
C       10.97943677       3.86304854       2.02482982      -0.01217033       0.01188758       0.00653484
C        9.56873414       4.22484296       1.63912864      -0.01137042       0.00925909       0.00228380
C       11.05389495       2.84898292       3.14997345      -0.01155538       0.02391294       0.01565734
H       11.55547096       4.75708833       2.27133091      -0.01205489       0.01419565      -0.00337780
H        9.05790470       4.65313630       2.50071881      -0.01249439       0.01688559      -0.00233185
H        9.55987494       4.95763166       0.83180403      -0.01120384       0.00256243      -0.00386852
H        9.02275164       3.32975055       1.32523287      -0.01191469       0.00735329       0.00969770
H       10.47651762       3.19980394       4.00628825      -0.01176921       0.03022856       0.01243535
H       12.07774218       2.68485803       3.49970780      -0.01132959       0.02895376       0.01686561
H       10.64287979       1.88550638       2.83172692      -0.01074820       0.02167028       0.02320291
H       10.97162891       2.99260916       0.22492070      -0.01180822       0.01124656       0.00608534
O        7.72178852       0.90980046       5.24524613       0.01728863       0.00006285       0.00084570
C        6.95440725       1.21752494       4.06885117       0.00596862      -0.01207206       0.00140479
C        6.58198588       2.69368295       4.04789306       0.00968286      -0.01173890      -0.01045511
C        7.71714071       0.80175151       2.82549887       0.00264537      -0.02318475       0.00078535
H        6.05271105       0.61318032       4.17854323       0.00810152      -0.00991473       0.00928989
H        6.05253429       2.95340328       3.12558771       0.00816452      -0.02160845      -0.01194006
H        5.96357131       2.95410438       4.90842620       0.01131457      -0.00325525      -0.01235688
H        7.48187860       3.31038426       4.08857800       0.01008742      -0.01282109      -0.01843972
H        7.13844500       1.00225253       1.92259948       0.00174037      -0.03440391      -0.00056101
H        7.97785755      -0.25579843       2.85317950       0.00501499      -0.02098086       0.00948549
H        8.64076852       1.37731281       2.74983139      -0.00074226      -0.02384461      -0.01098818
H        8.56760233       1.36469074       5.17352958       0.00406079      -0.00464904       0.00106962
