150
Lattice="11.580946154308279 0.0 0.0 0.0 11.580946154308279 0.0 0.0 0.0 11.580946154308279" Properties=species:S:1:pos:R:3:forces:R:3 energy=-500725.40625 stress="0.0012858201516792178 0.0006700586818624288 -0.00040703041304368526 0.0006700586818624288 0.0027892780490219593 0.0009457157284487039 -0.00040703041304368526 0.0009457157284487039 0.0009279671940021217" pbc="T T T"
Mg      12.00096914      11.85107923       0.85374343       0.00056096      -0.00504495       0.00547386
I        0.23909552      10.89812630       3.67936524      -0.00688275       0.00579676       0.01068385
I       10.06945162      11.86985732       8.01211635       0.00421228      -0.00231861       0.00713699
O        9.33191601       8.97894929       1.58032584      -0.00347957      -0.00373767       0.00360328
H        9.71716755       8.35637761       2.24839587      -0.00341161      -0.00368454       0.00259827
H        8.90172491       9.64309823       2.14209215      -0.00280209      -0.00311967       0.00402148
O        3.89744796       4.23038803       9.03044465       0.01759373      -0.00695909      -0.00165445
H        3.39458227       3.66442782       9.63079875       0.00964984      -0.01463359       0.00066237
H        4.83469778       4.11208390       9.27705415       0.01049963      -0.01075552      -0.00135617
O        7.68410679       8.71889181       8.31372593      -0.00847574       0.00232222      -0.00130333
H        7.72486087       8.40385342       9.22396932      -0.01514442       0.01381586       0.00127232
H        7.25118290       9.59321097       8.40774562      -0.00328582       0.00808781      -0.01349755
O        8.85253493       6.68872545       7.02730514       0.00522099       0.00602275       0.00462910
H        8.24801831       7.43563404       7.23516163       0.00360217       0.00845025       0.00336893
H        9.72749235       7.13228809       7.01993777       0.00660692       0.00802581       0.00929929
O       10.01551441       5.21126667       0.10162454      -0.00521210      -0.00481406       0.00604806
H       10.02921587       4.28575398      -0.18851320      -0.00712240      -0.00676951       0.00104246
H       10.90799638       5.41840539       0.45814951      -0.00531735      -0.00818012       0.00492648
O        9.28823983       2.89664020      10.21290817      -0.00323799      -0.00261975       0.00651257
H        8.33299773       3.08991546      10.10765233      -0.00064628      -0.00247305       0.00136509
H        9.48273580       2.20441267       9.55087404       0.00032008      -0.00466403       0.00697150
O        8.37243358       6.02209291       9.66353284      -0.00037980       0.00006568       0.00318685
H        8.69355729       6.22528348       8.75738196      -0.00007194       0.00327494       0.00305023
H        9.14531470       5.78288551      10.21087556      -0.00226771      -0.00076321       0.00158624
O        9.41140204       1.58965207       4.74456322      -0.02513486       0.00342873       0.00509080
H        8.64017671       1.21916849       5.19151319      -0.03459332      -0.00059433      -0.03043843
H       10.05308826       0.85724951       4.69410746      -0.02087333       0.00007220       0.01956186
O        9.75198265       2.84720033       2.42787594      -0.00138785      -0.01111354       0.00003697
H        9.54113210       2.40930726       3.28536067       0.00160412      -0.01144773       0.00198142
H        9.26475910       3.69631063       2.44111387       0.00000136      -0.01303674       0.00141344
O        0.32834135       8.06039156       9.85133697       0.00457582       0.00426432       0.01429472
H        0.29262031       7.11997452      10.05843687       0.00469804       0.00671940       0.01905309
H       -0.08471908       8.15145611       8.95329566       0.00206311       0.00217094       0.01409320
O        3.85552214       7.72328044       7.19377531       0.00577761       0.00269346      -0.00551369
H        3.66682711       6.76994138       7.07900226       0.00863520       0.00267899      -0.00162569
H        3.65782039       7.95136608       8.12613234       0.00399183       0.00572243      -0.00551743
O        0.85821831       0.63458052      10.48233287       0.00540571      -0.00996292       0.00471041
H        1.24746985       1.39405269      10.00663086       0.00549424      -0.00710692       0.00924988
H        0.21705704       0.26983226       9.84074024       0.00614536      -0.00687328       0.00253166
O        1.76193653       1.71480207       5.90854288      -0.00637557       0.00778243       0.00379252
H        1.25893229       0.88859229       5.85330759      -0.00422125       0.00754298       0.00567259
H        1.77446571       1.97612093       6.85648222      -0.00227581       0.00769830       0.00444418
O        7.70311804      10.10831279       3.68296030      -0.00164011      -0.00221144      -0.00334102
H        7.56214582      10.84957058       4.29525796      -0.00186023      -0.00029778      -0.00377199
H        7.31517394       9.35570278       4.15176206       0.00188045      -0.00091632      -0.00171842
O        1.73018733       7.55065528       3.23201214       0.00204031       0.00794008       0.00470293
H        1.31098910       7.08058875       4.00486401       0.00537208       0.00738466       0.00524948
H        1.11336619       8.26972301       3.02994011      -0.00115509       0.00763160       0.00594676
O       10.31104042       7.23937427       3.36499353       0.00188752      -0.00865886      -0.00340408
H        9.70075867       6.48216430       3.23545781       0.00762484      -0.00417525       0.00300871
H       10.26138904       7.48947712       4.29296812       0.00464252      -0.00452534       0.00746051
O        3.63382435       5.31886467       3.62102423       0.00215927      -0.00016195      -0.00245135
H        3.96040740       5.06983331       2.71789262       0.00061698       0.00055034      -0.00158721
H        3.13232140       6.13690258       3.49461071       0.00131654       0.00203360      -0.00195296
O        4.58314254       4.44881097       1.27222312       0.00053631      -0.00077276      -0.00236686
H        5.03145196       3.65876768       1.65823436      -0.00144570      -0.00155544      -0.00378565
H        3.93727509       4.04612148       0.66201443      -0.00120572       0.00005899      -0.00213857
O       10.93184448       8.41261750       7.37030415       0.00373027       0.00382257       0.01611248
H       10.45364518       9.25327668       7.45027947       0.00644625       0.00336009       0.01266753
H       11.79052811       8.64178050       6.92661093       0.00455240       0.00092923       0.01291340
O        3.98540996       9.64692350       3.68072068      -0.00493532       0.00056174      -0.00055325
H        3.67045385      10.48543270       4.08552435      -0.00692146      -0.00570706       0.00142059
H        3.22790798       9.06463053       3.51911438      -0.00604792      -0.00756216       0.00276851
O        2.31925383       2.89319163       3.46942855      -0.00494386       0.00277393       0.00169411
H        2.09035121       2.53567824       4.34620458      -0.00513799       0.00593368       0.00105362
H        2.65958548       3.79847369       3.61294369      -0.00173210       0.00358226      -0.00000793
O        7.35242440       2.41711053       7.23895463       0.00968605       0.00392748      -0.00793108
H        8.13344279       1.92282726       7.54917328       0.01137159      -0.00137946      -0.01134041
H        7.69432249       3.11724363       6.63655799       0.00870040       0.00026603      -0.00725371
O        8.57860988       5.32744139       2.49950673       0.00771213      -0.00965249       0.00168404
H        8.76290208       5.47874918       1.55607659       0.01330085      -0.01237357       0.00503287
H        7.68844251       5.68240586       2.73313653       0.00486809      -0.00458475      -0.00357467
O        1.17351823       2.45356699       8.45785155       0.00253830       0.00197376       0.00995546
H        0.35378967       1.95811730       8.24925582       0.00497013      -0.00221052       0.00992090
H        0.84541534       3.37378947       8.56167707      -0.00235716      -0.00047695       0.01013738
O        6.57394273      11.87267507       5.66043457       0.00197013       0.00782606      -0.00799903
H        6.38269754      11.01894862       6.09639347       0.00382736       0.00608860      -0.01002370
H        6.72335604      12.55000850       6.35246499       0.00379729       0.00529816      -0.00484604
O        1.70490861       9.20631565       6.40461778       0.00067045       0.00047976       0.00709485
H        2.47889273       8.61617121       6.53888551      -0.00131876       0.00283412      -0.00216631
H        1.63373686       9.39567345       5.46177721      -0.00733930       0.00515036       0.00292654
O        3.98135105      10.98317942       7.93334397      -0.00333118       0.01009935      -0.01929100
H        4.24055547      10.50358696       7.13565836      -0.00338033       0.00727740      -0.01328324
H        3.40402223      10.35087273       8.40367256      -0.00428390       0.01026081      -0.01397263
O       12.44201482       6.19877217       5.34909545       0.00774659       0.00238200       0.00345831
H       11.87130247       5.41156317       5.30124937       0.00738855       0.00343747       0.00455499
H       13.17471223       5.90853140       5.92084164       0.00859152       0.00133844       0.00418405
O        2.50490419       0.06421022       1.14371869      -0.00126702      -0.00672001       0.00752938
H        2.74027170       0.17922205       2.07396920      -0.00209345      -0.01320586       0.01118833
H        2.93993844      -0.78166281       0.86980398      -0.00011797      -0.00376442       0.00250096
O        5.21868045       7.19719922       1.14334125       0.00063889      -0.00014727      -0.00992305
H        5.01921561       6.26048708       0.96493206       0.00067532      -0.00158326      -0.00950897
H        6.02667756       7.41965191       0.61203436      -0.00207494       0.00144593      -0.01111145
O        4.02256494       9.53345495       0.34852685       0.00001435      -0.00047247      -0.00752927
H        4.20868943       8.63430624       0.69839635      -0.00167525      -0.00134408      -0.00991495
H        4.82480738      10.02873417       0.60729477       0.00058278      -0.00204191      -0.00497914
O        5.38081957       2.18865488       2.53151193      -0.01337104      -0.00929177      -0.00670943
H        4.71417311       1.96809000       3.20072778      -0.01483619      -0.00435638      -0.00717165
H        5.65108608       1.31574100       2.19931053      -0.01323210      -0.01149280      -0.00152062
O        5.73951283      10.96302762       1.91786191      -0.00445677      -0.00578000      -0.00119077
H        6.56994500      10.67320573       2.34295672      -0.00399727      -0.00378420      -0.00269447
H        5.07429898      10.54228629       2.49894935      -0.00428052      -0.00879751      -0.00212971
O        4.03297232       0.56885393       4.59286532      -0.00754941      -0.00310802       0.00263685
H        3.41035407       0.94496589       5.23704589      -0.00701240       0.00079578       0.00420669
H        4.91505141       0.53732236       5.02423096      -0.00740008       0.00328418      -0.00171930
O        6.66285148       3.81425342       9.53743391       0.00991250      -0.00689287      -0.00736387
H        7.15167748       4.66012705       9.49569508       0.00871727      -0.00450125      -0.00463717
H        6.81518100       3.36706755       8.67937491       0.01233846      -0.00492817      -0.00711017
O        7.42108269       7.93235520      11.40702501      -0.00239491       0.00744885      -0.01042842
H        7.79980733       7.22864057      10.84418406      -0.00122678       0.00540657      -0.00500581
H        8.13399204       8.25343002      11.99617469      -0.00427914       0.00582809      -0.00473813
O        2.95195566       8.89249412       9.45693255       0.00052957       0.01050341      -0.00937982
H        2.03872087       8.59713326       9.64235719       0.00319716       0.00950867      -0.00340115
H        3.36867490       9.09938740      10.31384993       0.00459597       0.01062078      -0.00997234
O        2.80696088       2.82327027      -0.20780319       0.00274378      -0.00524211       0.00304142
H        3.16693665       1.96179547       0.04605719       0.00299907      -0.00347862       0.01325557
H        1.93472644       2.81968484       0.22399773       0.00184177      -0.00262431      -0.00078540
O       11.10068385       3.81857022       5.86856845      -0.01873192       0.00773740      -0.00087696
H       11.70558507       3.06548389       5.79391640      -0.00125399      -0.00666080       0.00092409
H       10.23408008       3.49887795       5.57130146       0.00727923       0.02099556       0.00985249
O        8.28124975       4.42398427       5.64509683       0.01810396       0.02182728       0.02188793
H        7.85412864       4.63095043       4.80949938       0.01500290       0.01466125      -0.01945354
H        8.44338927       5.28942522       6.08867899       0.00458464      -0.00288740      -0.00413581
O        6.36756845       6.48627326       3.51339795       0.00499110       0.00053471      -0.01220815
H        5.94921474       6.89299781       2.71969796       0.00371160      -0.00179737      -0.01129516
H        5.62055610       6.02700311       3.92238654       0.00573910       0.00058930      -0.00805970
O        9.98980305       0.82751912       0.71035711      -0.00196525      -0.01255277       0.00142279
H        9.71459351       1.55619196       1.31551644      -0.00344539      -0.00924765      -0.00221471
H        9.69622022       1.13628128      -0.15815923      -0.00357065      -0.02097054       0.00039755
O       11.47266829       9.96686595      11.86249558       0.00270910      -0.00634870       0.01192841
H       10.67279164       9.60989818      12.32224928      -0.00016551      -0.00398493       0.00981079
H       11.65577716       9.36266301      11.11763654       0.00078427      -0.00367971       0.00988407
O        0.94986189       5.75891120       1.08869973      -0.00972608       0.00660907       0.00887501
H        1.36207421       4.93968512       1.37745910      -0.00491636      -0.00575613       0.01356679
H        1.13061780       6.39383827       1.80980095      -0.00929128      -0.00164381       0.00195909
O        3.11351709       5.13299498       6.66552346       0.00629228       0.00029758       0.01487462
H        3.40406164       4.66412034       7.49087568       0.00865920      -0.00060700      -0.00083286
H        3.60945608       4.78267732       5.91944419       0.01056004      -0.00382975      -0.00378265
O        6.41053460      11.01342646       9.11840490      -0.00135726       0.01982349      -0.03249751
H        5.47639831      11.03330457       8.80261737       0.00005122       0.01615224      -0.02257635
H        6.37067195      10.76015704      10.04475340       0.00477962       0.03168395      -0.02056536
O        0.68635359       2.27771535       1.54393992      -0.00199227      -0.00376448      -0.00157136
H        1.31114541       2.48051935       2.30292472      -0.00224321      -0.00231202      -0.00173555
H       -0.18249289       2.62625733       1.85371521      -0.00281233      -0.00616433      -0.00099586
O        5.68670903       9.33197040       5.87995166       0.00538602       0.00380269      -0.00650683
H        5.08703688       9.29694340       5.11055118       0.00247967       0.00183311      -0.00697127
H        5.34177904       8.63979721       6.47303785       0.00684644       0.00654177      -0.00540008
O       11.20978172       4.73090997       8.57463746      -0.00997275      -0.00584062       0.00325967
H       11.04800852       4.57414397       7.62521142      -0.00660366      -0.00765008       0.00542431
H       10.47978342       4.28359478       9.02729395      -0.01240217      -0.01261993       0.00453173
