147
Lattice="16.3822392544754 0.0 0.0 0.0 16.3822392544754 0.0 0.0 0.0 16.3822392544754" Properties=species:S:1:pos:R:3:forces:R:3 energy=-1101148.5 stress="7.942937372718006e-05 1.297838343816693e-05 -5.8096095017390326e-05 1.297838343816693e-05 -0.00042008733726106584 0.0002994948736159131 -5.8096095017390326e-05 0.0002994948736159131 0.0002361525985179469" pbc="T T T"
Mg      15.67763002      16.44037590       1.21369144      -0.00386727       0.00324643       0.00578880
O        8.06472992      13.92102096       4.04809807       0.00704141      -0.00696564      -0.00966322
N        7.78301591      16.00200128       5.20533244      -0.01442159      -0.01059222      -0.00838745
C        7.91103708      14.96160157       4.62892224      -0.00363014      -0.00922015      -0.00927698
O       14.43158974      15.52755191      16.51057368      -0.01079711      -0.00048721       0.00506526
N       13.45920216      15.18955156      14.32688471       0.00508344      -0.01267110      -0.01419318
C       13.93723690      15.35904672      15.37787130       0.01598975       0.00025604       0.03581190
Cl      12.40607365       8.58842634       5.16262258       0.01242664      -0.00515891      -0.01349220
Cl      11.68314453       9.30033959       2.40824557      -0.00538006       0.00151309      -0.00688948
Cl      13.95587214      10.58759177       3.73184691      -0.00271276       0.00534534      -0.01542341
C       12.98418915       9.09754541       3.57744867       0.00226023       0.00246561      -0.01509216
H       13.64297609       8.32198643       3.20310453       0.00290574       0.00588493      -0.02095023
Cl       7.10865454       6.01188565       1.38791109       0.00426772      -0.00030567      -0.00027816
Cl       5.01304214       7.08891740      -0.33383052      -0.00190184       0.00138614       0.00890562
Cl       5.91591222       4.34286294      -0.69936032      -0.00349028       0.00160348       0.00111055
C        5.64790815       5.63365593       0.47184287       0.00106528       0.00003223       0.00354606
H        4.89466150       5.30176957       1.17594871       0.00429747      -0.00149466       0.00609736
Cl      12.50694268       2.71687449       3.64059342       0.00467858       0.02068916       0.00027957
Cl      13.58784866       4.29340916       1.42611079      -0.03664570       0.01610981      -0.02192820
Cl      13.21971186       1.41252098       1.09803068      -0.01415540       0.00994602       0.00012502
C       12.60689819       2.91236268       1.90308310      -0.01877320       0.00901116      -0.00304171
H       11.60823647       3.03688751       1.50197230      -0.02490377      -0.00243806       0.00890820
Cl       4.76253807       8.14865264       3.57918782      -0.00575820       0.00170061      -0.00086418
Cl       3.86857047      10.75789812       2.62797052      -0.00894088      -0.00715354      -0.01569380
Cl       6.70838086      10.22470381       2.93854079      -0.00332949       0.01182155       0.03303251
C        5.14464230       9.51928786       2.53755222       0.00574928       0.00570709       0.00878219
H        5.18096482       9.16661182       1.51421136       0.02916243       0.01028243       0.00879833
Cl      11.43779683       4.60158606      13.19947604       0.00731602      -0.00085635       0.00681981
Cl       8.77509687       5.70481084      12.72744191       0.01001865       0.00597364       0.00631099
Cl       9.85532812       3.65280604      10.94001620       0.00234755      -0.00127934       0.01020885
C        9.80171410       4.26998955      12.59453068       0.00610280       0.00270046       0.00896093
H        9.36863555       3.50043096      13.22151912       0.00390206       0.00548756       0.01087573
Cl       5.58092128      11.01427047      -0.62931893       0.02765136      -0.01050413       0.00055149
Cl       7.58843915      13.09951045      -0.32076657      -0.00199133       0.02044474      -0.01361346
Cl       4.74737748      13.77848783      -0.19684911      -0.00993285      -0.01954463      -0.00782649
C        5.97877877      12.56571764       0.16050940       0.00786280      -0.00169519      -0.00642634
H        5.98593229      12.39214194       1.22979967       0.01274736       0.00167590      -0.00582099
Cl       1.45877357       7.39242409      14.60778512       0.01104186      -0.00928071       0.00367118
Cl      -0.92491491       6.26185705      15.81960456       0.00107897       0.01294266       0.00786193
Cl       1.70610814       5.20210449      16.52716704      -0.00641816       0.00166035       0.01682983
C        0.79211104       6.65217420      16.06405665       0.00314317       0.00401439       0.00660702
H        0.85945279       7.35642557      16.88558495       0.00492344       0.00989728       0.00109737
Cl       8.00787573       9.53415985       9.75456662      -0.00152093       0.00061861      -0.00127771
Cl       9.76996450       7.24417698       9.29979056      -0.00153339       0.00103188      -0.00384158
Cl      10.71838222       9.93885143       8.74358292      -0.00061303       0.00236389       0.00200623
C        9.67492449       8.95679623       9.77220056      -0.00161257       0.00045144      -0.00091550
H       10.03823241       9.02662191      10.79048879      -0.00287347      -0.00161760      -0.00035056
Cl       2.60588895       3.70113582      13.14885751      -0.00614864       0.00078141       0.00767784
Cl       0.57657926       4.70534456      11.29675171      -0.00784479       0.00334381       0.01075163
Cl       0.08985183       2.25958810      12.80243935      -0.00512172      -0.00034600       0.00532539
C        0.87202254       3.83868054      12.81578924      -0.00632225       0.00033518       0.00874733
H        0.43742632       4.42925820      13.61297703      -0.00649326      -0.00184831       0.01019824
Cl       2.91462464      10.97889043       8.89137274       0.00907780       0.00203098      -0.00019354
Cl       4.96324060      10.89057340       6.81265608       0.01184762       0.01470134       0.00134100
Cl       2.15941202      10.51457209       6.11259299       0.01577961      -0.00921649      -0.00016388
C        3.29508942      11.32943263       7.19729844       0.00809315       0.00198373      -0.00058339
H        3.19357766      12.39671221       7.04476132      -0.00018450       0.00086933      -0.00264971
Cl       8.93818631       8.36381199      15.87469026       0.00325075       0.00514010       0.00441241
Cl      11.22322137       8.66921997      14.08111599       0.00529873       0.01220319      -0.00016573
Cl       8.59860649       9.67147666      13.28771321       0.00180152      -0.01241306      -0.00460568
C        9.69775772       9.38177489      14.64215474      -0.00030026      -0.00149057      -0.00095710
H        9.92424242      10.34198971      15.08613645      -0.00736035       0.00027421      -0.00331835
Cl      10.00594236      15.51283934       1.47799757      -0.00848407       0.01036479      -0.00511736
Cl      11.85833286      15.23684741       3.71452277      -0.00936694       0.00705636      -0.00459144
Cl      11.15499844      12.89919426       2.12049286      -0.01445240       0.00817469      -0.00367312
C       11.41043179      14.64972251       2.09339826      -0.01043000       0.00738467      -0.00446841
H       12.24742453      14.84620734       1.43282914      -0.00979215       0.00549255      -0.00431582
Cl       2.08347568      15.81192597       5.88507733      -0.00087358       0.00066504      -0.00059873
Cl       3.75349124      13.83600821       4.52431447       0.00805414      -0.00095496       0.01174911
Cl       0.84273182      13.59534428       4.45773983       0.01027480      -0.00797515      -0.00038174
C        2.23110755      14.70688843       4.49403672       0.00676979      -0.00367374       0.00456483
H        2.19616697      15.29603389       3.58232276       0.00853498      -0.00625634       0.00338241
Cl       4.52499606       1.25804464       4.23617535      -0.01176172       0.00076216      -0.00433220
Cl       6.04901203       0.28649349       1.93647676      -0.01648381       0.00107786      -0.00737536
Cl       6.63046584       2.91903455       3.06831676      -0.00386666      -0.00540215       0.00191480
C        6.11169453       1.25482929       3.41075364      -0.01197121      -0.00436197      -0.00398681
H        6.82350881       0.78171882       4.10804744      -0.01397645      -0.01004931      -0.00555590
Cl      14.30445040       5.71588703       7.00492176       0.00149888       0.00048147       0.00264370
Cl      11.51766945       4.85538784       7.16725625       0.00147071       0.00010011       0.00024429
Cl      13.06534184       5.28504667       9.61058551       0.00014176      -0.00165276       0.00158003
C       12.80431422       5.79899076       7.94633254       0.00090518      -0.00052230       0.00182173
H       12.48671185       6.83506165       7.96833935       0.00080682      -0.00057116       0.00243701
Cl       5.26224025      -0.40458183      12.26428537      -0.00536549      -0.00670865      -0.00745239
Cl       2.52750527      -0.80447826      11.32007157      -0.02574837       0.01508278      -0.01179174
Cl       3.01028034      -0.05268876      14.09953061       0.00048645      -0.00356123      -0.00094962
C        3.57291513       0.09886777      12.42639406      -0.00330319      -0.00153884      -0.00215800
H        3.51452069       1.14496511      12.15225875      -0.00016050      -0.00053099       0.00089261
Cl       1.00103399       8.72616353       3.25196634      -0.00661910       0.00017354       0.00396420
Cl      -0.87494781       6.49414479       3.37174438       0.00035498      -0.00594196       0.00158703
Cl       0.88429351       7.04941548       5.63390572      -0.00132808      -0.00172955       0.00233881
C       -0.03220984       7.75186050       4.31451693      -0.00398546      -0.00421621       0.00266799
H       -0.78574684       8.40919042       4.73549379      -0.00626698      -0.00714202       0.00329532
Cl       2.85451084       3.72664598       6.91894998       0.01132311      -0.03399438      -0.02530044
Cl       3.36124190       4.77918349       4.24150416      -0.01838030      -0.00417937      -0.01700264
Cl       4.19665059       6.29352964       6.59357206       0.00491216      -0.02734044      -0.01141864
C        3.95589664       4.68898138       5.91046060      -0.00115637      -0.02059406      -0.02452335
H        4.91222139       4.18066477       5.89001700      -0.00037616      -0.01781720      -0.03714965
Cl      17.71544200      15.54255617       1.13243939       0.00092405       0.01402677       0.01141214
Cl      14.65628355      12.14508379      -0.63811018      -0.00269049       0.01064970       0.00149608
Cl      17.24038442      12.07644137       0.68528014       0.01020437       0.01160002      -0.02396267
C       15.61444741      11.80498746       0.66630705       0.01115513       0.00506058      -0.00991243
H       15.14583477      11.42299311       1.56259191       0.02103576      -0.00372910      -0.00822335
Cl       5.53113169       7.84933667      12.34958788      -0.00161952      -0.00922677       0.00286952
Cl       4.83212223      10.65941888      12.02114126       0.01373804      -0.00612926      -0.00481668
Cl       2.78875048       8.59835518      11.69080726       0.00195953       0.00423759       0.00388725
C        4.27639052       9.06771517      12.54803136       0.00540266      -0.00162368       0.00075093
H        4.03057760       9.13221595      13.60159893       0.00714066       0.00321171       0.00093955
Cl       5.33167788      17.21288695       8.12406712      -0.00350523       0.00315323      -0.00905018
Cl       7.68709565      15.88567017       9.24739361       0.00354940       0.01823578      -0.00566334
Cl       5.63613302      14.32603229       7.88166915       0.00024262       0.00118822       0.01845457
C        6.49986816      15.87406166       7.93896986      -0.00225306       0.00328024      -0.00055623
H        7.01780135      15.99847788       6.97590168      -0.00661546      -0.00479650      -0.00386459
Cl      14.45364367       9.69780843       8.16274580       0.00091381      -0.01025043      -0.00578797
Cl      13.96948719       9.23451902      11.00830003       0.00705299       0.00700638      -0.00222778
Cl      16.19352515       7.89869435       9.66494589       0.00672428       0.00180143       0.00215376
C       15.19559413       9.35740944       9.73912935       0.00479047       0.00077263      -0.00513335
H       15.84546942      10.18943601       9.98051049       0.00398844       0.00329852      -0.01169712
Cl       9.04696551       7.48113076       4.03660047      -0.00091007      -0.00050668       0.00174180
Cl       7.40619481       8.01496482       6.38897953      -0.00477171      -0.00936386       0.00042242
Cl       7.72109939       5.28150021       5.39350143       0.01812661      -0.00965568       0.00705520
C        8.48041656       6.87014923       5.59926818       0.00442649      -0.00254709       0.00296113
H        9.34915488       6.73402917       6.23224020       0.00556627       0.00604421       0.00306374
Cl      -0.29888908       3.04368992       4.85472505       0.00155222      -0.01387761       0.01696194
Cl      -0.90973825       0.39677715       3.77650155      -0.01395242      -0.00301278      -0.00022924
Cl       0.34200287       2.43132064       2.07962099      -0.03349349       0.01418138       0.00352818
C        0.22404968       1.81559810       3.75774109      -0.01242095      -0.00359216      -0.00123966
H        1.20060197       1.42838445       4.03779147      -0.00886035      -0.00740976      -0.01876394
Cl      13.68437495       0.40214326      11.42353701      -0.00034223      -0.00754231       0.00816077
Cl      15.45237923       1.16583466       9.22068908       0.01442182      -0.01683719       0.01784164
Cl      12.55857947       1.41265821       8.91642084      -0.00210387      -0.00121297       0.01152092
C       13.92214849       1.49051901      10.05147599      -0.00025342      -0.00576848       0.00949380
H       13.96931241       2.50358613      10.43096155       0.00173320      -0.00639841       0.01144598
Cl       8.73443085      12.64383938       7.19692188       0.00664020       0.01232215       0.00162113
Cl      11.53829994      12.43407585       6.38907364       0.00612950       0.00526810       0.00117511
Cl       9.50371725      10.81524086       5.06213836       0.00483147      -0.00258505       0.01322959
C        9.83703955      12.36164018       5.85581685       0.00581614       0.00281444       0.00282529
H        9.66934273      13.13764606       5.11813394       0.00566465      -0.00206485      -0.00234103
Cl       4.09657381       5.22904502      10.19836051      -0.01092026      -0.00709882      -0.00664935
Cl       6.83667377       5.07467739       9.22352567      -0.00263071       0.00300428       0.01395912
Cl       5.87453162       3.13814080      11.18940536      -0.01310784      -0.00511704       0.00133201
C        5.44249537       4.15934283       9.80701749      -0.00464270      -0.00232844       0.00059678
H        5.12524885       3.49795169       9.01105051       0.00315092      -0.00116587      -0.00336170
Cl      11.60202687      12.19335571      11.81452614       0.01211523       0.00136244       0.01490328
Cl       9.48213126      14.00344421      12.67197408       0.02026296       0.02153144      -0.00690454
Cl      11.15148565      12.67963414      14.66790389      -0.00967130       0.00989407       0.01057863
C       11.09301900      13.38158838      13.02245904       0.01154689       0.00757511       0.00854900
H       11.80735610      14.19778975      13.03327510       0.01933926       0.00087070       0.01389088
