147
Lattice="16.30888008210814 0.0 0.0 0.0 16.30888008210814 0.0 0.0 0.0 16.30888008210814" Properties=species:S:1:pos:R:3:forces:R:3 energy=-1125348.625 stress="-0.0010559138609096408 -0.0005304971127770841 0.00010567597928456962 -0.0005304971127770841 -0.0011109287152066827 0.00013657960516866297 0.00010567597928456962 0.00013657960516866297 -0.000870395393576473" pbc="T T T"
Mg      16.75652106      17.14253502      -0.59499440      -0.01093175       0.00752845       0.01229356
Cl      -0.01721388      16.04300511       6.61758132      -0.01577353      -0.00581729      -0.01330048
O        1.42911511      15.86213960       6.98695071      -0.02440953      -0.01379526       0.00686032
O       -0.35049381      15.55634497       5.22723916      -0.00107262       0.00876206      -0.01402664
Cl      12.93769090      16.31315529      10.77060855      -0.00842124       0.03353739       0.03015065
O       14.41902641      16.44623672      10.66400866       0.00761569       0.01419948      -0.01671367
O       12.29080606      15.38113038       9.81766936      -0.02067155      -0.01420426      -0.03651881
Cl       8.37622901       8.41291039       5.37266768       0.00837655      -0.01220677       0.01500723
Cl       7.63142099      10.58850702       7.16829260       0.00393617      -0.01109397       0.01048373
Cl       6.51558597       7.92619485       7.55916344       0.00439391      -0.01054257       0.01209793
C        7.91483224       8.84002718       7.02764852       0.00475068      -0.01085368       0.01349446
H        8.74873081       8.59499945       7.67626855       0.00351271      -0.00975759       0.01488078
Cl       5.35237918       2.82758445       4.74876407      -0.00207324       0.00212809      -0.00030530
Cl       4.64458240       5.35886066       6.01891878      -0.01153609       0.00311738      -0.00844729
Cl       7.02617314       5.17088695       4.33440046      -0.00236964       0.00236869       0.00538502
C        5.38043904       4.60018936       4.60511522      -0.00319245       0.00141021      -0.00286069
H        4.78641356       4.87223907       3.74130524       0.00157557      -0.00060411      -0.00657925
Cl       5.12915985      14.67027688      10.36046046      -0.00373413      -0.00649543       0.03409663
Cl       2.35608292      13.88283201       9.88569075      -0.00314841      -0.00657046       0.00905225
Cl       3.83037094      12.74242496      12.14395890      -0.01641783      -0.01352882       0.01255897
C        3.59627348      14.16148486      11.11214978      -0.01197766      -0.00987747       0.01577828
H        3.25911463      14.97209319      11.74796395      -0.01397849      -0.01129577       0.01456824
Cl      11.56036635       9.92432458       4.80830838      -0.00085221       0.00296825      -0.01667134
Cl      11.63686242      12.37744247       6.41626681      -0.00586194      -0.00785860      -0.00073557
Cl       9.50608067      11.97575994       4.45173832      -0.00676699      -0.00042444      -0.00072438
C       10.59857532      11.20126487       5.59463282      -0.00337265      -0.00499647      -0.00743445
H        9.99540723      10.72529326       6.35681708      -0.00126599      -0.01183090      -0.01019648
Cl      15.04819496      10.50237126      12.42453816       0.00407949      -0.00210726       0.00049645
Cl      12.21697348      10.42077987      13.08002722       0.00606433       0.00690956       0.01018985
Cl      13.61123920       7.95283724      12.37007569      -0.00606658       0.00430080      -0.00207940
C       13.75139629       9.53780800      13.14113974       0.00278653       0.00098037       0.00197502
H       13.99155050       9.38580711      14.18571480       0.00595504      -0.00289108       0.00070402
Cl       8.90458896       3.56485421       7.13415117      -0.00820041      -0.02537068       0.00130731
Cl       8.48787630       4.99523805       9.64402596       0.00312784      -0.00455180      -0.00872232
Cl       6.95553057       2.56996622       9.06804618      -0.01293355       0.00172880       0.00986315
C        8.50636070       3.41116082       8.84653049      -0.00778051      -0.01020348       0.00266041
H        9.27573650       2.81687999       9.32343613      -0.01141870      -0.01157938       0.00634864
Cl       4.28335210       9.01785230      10.92160931      -0.00487579      -0.00165647       0.00758751
Cl       4.85157692      11.18856738       9.06288940       0.00272757      -0.00254989       0.00953396
Cl       3.23598271       8.92929924       8.19533880       0.00194062      -0.00018373       0.00550079
C        3.67352683       9.98134939       9.54419002       0.00006219      -0.00086961       0.00630038
H        2.77780152      10.48824869       9.88293376       0.00007051       0.00050206       0.00399096
Cl       8.51935337       0.80361138       1.31563033       0.00823454       0.00224774       0.00222811
Cl       7.76764329      -0.04652472       4.01349817      -0.00179891       0.00715090       0.00056034
Cl       9.58821128       2.20950387       3.64144445       0.01485854      -0.00631320       0.00224497
C        8.20199679       1.33249179       2.98521021       0.00871521       0.00395322       0.00142939
H        7.35494983       2.00854364       2.96954491       0.01330183       0.00951833       0.00029230
Cl      10.72396711      14.93531342      13.28467630       0.01757729       0.00072078      -0.01299863
Cl      13.44703396      13.89740523      13.07965229       0.02189414       0.00943549      -0.00174206
Cl      12.93982664      16.41839070      14.46680478       0.00776099       0.00433819       0.00003284
C       12.29946015      14.79560895      14.06155462       0.01440291       0.00485353      -0.00543691
H       12.16870473      14.26729171      14.99825427       0.01108432       0.00172015      -0.00814477
Cl      15.16298256      10.30396881       7.13298251       0.00887190       0.00635539      -0.00306651
Cl      15.21925058      12.79298975       5.56661135       0.00485615       0.00371221      -0.00657250
Cl      15.67260813      10.22899741       4.25374898      -0.00457965       0.00102466      -0.00406525
C       14.82744386      11.06964741       5.57910581       0.00228317       0.00469394      -0.00212652
H       13.76754815      10.96824878       5.38750104       0.00153786       0.00631415       0.00228824
Cl       7.68581781       6.91695801       1.07300604       0.00701295      -0.00333089       0.00679904
Cl       5.48445172       5.01235318       0.79710962       0.01157999      -0.00634767      -0.00367233
Cl       5.31512358       7.61707364      -0.51007920       0.01502417      -0.00748580      -0.00466615
C        6.40511848       6.32218467       0.02401627       0.01364951      -0.00600337       0.00059227
H        6.87137271       5.90923575      -0.86307317       0.01873337      -0.00577597       0.00321344
Cl      13.04606122       3.09675897       2.53043443      -0.01039539       0.01423538      -0.02994629
Cl      14.99908982       2.32954503       0.50779068      -0.02710821      -0.01030341      -0.03082430
Cl      14.95970950       1.00604419       3.20047206      -0.01556375       0.00893794      -0.02348069
C       13.98100276       1.73386763       1.97496833      -0.02207348       0.00289670      -0.02022725
H       13.33344262       0.99389313       1.51927139      -0.03025310       0.00294218      -0.00811828
Cl       5.15329387       8.00402693       3.15257745      -0.00862035      -0.00069925      -0.00618130
Cl       2.76826873       8.89903360       4.56248365      -0.00659823       0.00261262      -0.00466856
Cl       5.23043498      10.42714672       4.75168045       0.00122905      -0.01267035       0.01081130
C        4.23559565       9.41025599       3.71919324      -0.00229010       0.00000250       0.00183268
H        3.93944190       9.98453149       2.84933966       0.00284220       0.00738686       0.00506860
Cl       9.47354512       3.46597474      14.80980477       0.00606706      -0.00287361      -0.00953329
Cl      11.58110957       4.91035243      13.38629892       0.00178549       0.00683254      -0.00440206
Cl      10.43413694       2.47855866      12.23110343       0.01550400       0.00252378      -0.00761054
C       10.12521021       3.91958397      13.22245020       0.00695475       0.00100309      -0.00739134
H        9.37524213       4.50738191      12.70742060       0.00514367      -0.00259493      -0.00891465
Cl       5.90613679      13.16036385      -0.84293631       0.01976146       0.00182033       0.01149097
Cl       6.48152796      11.20534246       1.25237339      -0.01212187      -0.01024300       0.00868031
Cl       3.71230067      11.78238976       0.50562253      -0.00098717       0.00285020      -0.02195844
C        5.39165445      11.66040564      -0.06821219       0.00524450      -0.00033907      -0.00237591
H        5.42366791      10.87201848      -0.81029341       0.01211185       0.00327946      -0.00580920
Cl      -0.69835398       5.17493648      15.04963802      -0.00337791       0.03523343       0.01958906
Cl       1.44563594       3.16430695      14.98551390      -0.02461815       0.01640144      -0.00227013
Cl       2.08159661       5.96948376      15.45182406       0.00438873       0.00680810       0.02256606
C        0.86193676       4.74632514      15.72116382      -0.00589192       0.01460066       0.01321572
H        0.76269614       4.55331781      16.78504352      -0.00567626       0.00743572       0.01160806
Cl      10.37735936      10.88661089       9.65960112       0.00737390      -0.00386333       0.01004809
Cl       8.02103528       9.48881288      10.68489983       0.00725484       0.00171915       0.01534323
Cl      10.40827989       7.98439874       9.93013258      -0.00282964      -0.00465450      -0.00226413
C        9.78860224       9.50455702      10.59805432       0.00663189      -0.00492687       0.00720748
H       10.17463487       9.59998127      11.60534111       0.01194657      -0.01082685       0.00565928
Cl       6.67895368       5.55004673      12.88834851       0.00394328       0.02023363      -0.00871119
Cl       4.02905452       4.77101844      12.00412293       0.01274445      -0.00946381      -0.00963280
Cl       5.67536233       2.87346644      13.50239556       0.02659758       0.01717727       0.01056283
C        5.24846020       4.57092397      13.27220776       0.01148105       0.01101027      -0.00525741
H        4.82421653       4.94176326      14.20047881       0.00549836       0.01556633      -0.00989528
Cl       2.07867210      11.75733747       6.67922495       0.00691146       0.00336233      -0.00081015
Cl       4.20757706      13.63851053       6.06560570       0.01148808       0.00171987       0.00260719
Cl       2.42527868      12.66456085       3.93754554       0.01943966       0.00799562       0.00149021
C        2.56408556      13.10051480       5.66377885       0.01153047       0.00476450       0.00273448
H        1.89579626      13.93589883       5.83680256       0.01093858       0.00381830       0.00465806
Cl      10.94219796       8.31703338      15.84162724      -0.00677943       0.00201085       0.00593807
Cl      10.28900406      11.15293985      16.15826405      -0.00224149       0.00205782       0.00989437
Cl       8.75047736       9.48947854      14.30071290       0.00314388       0.00947380      -0.00069299
C        9.65669924       9.53532914      15.82996330      -0.00418313       0.00422278       0.00336742
H        8.95852504       9.28711575      16.61937497      -0.00833182       0.00417614      -0.00042704
Cl       0.48726853       8.16788952      10.27725148      -0.00487944      -0.00736450      -0.00385964
Cl       0.42793328       5.75514363      11.90160490       0.00382505      -0.00286263       0.00257856
Cl       1.93878364       5.76451126       9.41335328      -0.01106083      -0.00946864      -0.00636469
C        1.38931879       6.74286199      10.78745205      -0.00237743      -0.00631167      -0.00574292
H        2.27228169       7.08295306      11.31583425       0.00072552      -0.00530426      -0.01200132
Cl      11.51696611      15.14687868       3.98171248       0.01049775       0.00104983       0.00314666
Cl      12.58918654      12.65109670       2.88161827       0.00251133      -0.00410917       0.00863942
Cl      12.48879069      15.04595849       1.24594737      -0.00078759      -0.01113735      -0.00022756
C       12.69687849      14.40777708       2.90658214       0.00491010      -0.00474211       0.00152247
H       13.69000306      14.68579223       3.24069323       0.00665358      -0.00450533      -0.00369242
Cl       3.43758175      16.19331401       3.90309069       0.02386543       0.00692251      -0.00382030
Cl       1.30920155      16.11843045       1.17773292       0.01665178       0.01633584       0.00236046
Cl       5.02490176      16.12293445       1.49916964       0.01527530       0.00524315      -0.00917751
C        3.82918735      15.51605822       2.46102700       0.01746288       0.00644982      -0.00332232
H        3.35673849      14.58456518       2.18201525       0.01567897       0.00797135      -0.00244410
Cl      12.03341740       6.13964921       6.85296207      -0.01874653       0.01115593       0.01508863
Cl      14.28288728       6.47952669       8.69037293      -0.00398207      -0.00319481      -0.00010000
Cl      12.31106362       4.39151579       9.18642971      -0.00108138      -0.00623451      -0.00217795
C       13.16725258       5.32914669       7.94379196      -0.00956070       0.00324329      -0.00057466
H       13.75261863       4.63525902       7.35296974      -0.01399772       0.00738597      -0.00984553
Cl       0.88912323       0.15181125      13.63290234      -0.01238507       0.02052736       0.00944682
Cl       3.38591889       1.29443880      10.79825383      -0.01173520      -0.00521722       0.00872159
Cl       0.57919485       1.87935725      10.51005799      -0.01158118      -0.01276130      -0.00573990
C        1.99198800       2.00896647      11.31861653      -0.01970901      -0.00197803      -0.00311095
H        2.03445242       2.61229865      12.21402924      -0.02132826       0.00547120      -0.00869787
Cl       0.51304865       6.61603930       5.67278201      -0.01123577      -0.00614080      -0.01288964
Cl       1.77426475       5.68752755       3.18623593      -0.00219828       0.00121598      -0.01013221
Cl      -1.12665292       5.80913667       3.40575008      -0.00060040      -0.00288460      -0.02140507
C        0.39551846       6.55168004       3.91069155      -0.00627075      -0.00205665      -0.01326471
H        0.42610336       7.56951571       3.54175867      -0.00604847      -0.00136700      -0.01122710
Cl       1.49222525       2.46220697       5.03255692      -0.00302583      -0.00844246      -0.00156415
Cl       0.01348263       3.30498242       7.39192993      -0.00919470      -0.00982977      -0.00528136
Cl       2.84704688       2.62114345       7.61825332      -0.00833905      -0.00423704       0.00001416
C        1.59586773       3.31015514       6.58120914      -0.00801910      -0.00726122      -0.00240576
H        1.85767569       4.34122002       6.37361850      -0.00992858      -0.00695914      -0.00232606
Cl      14.05856780      11.46474195      -0.29211956       0.00803728      -0.00201268       0.00526682
Cl      16.50784988      10.07278379       0.49807722      -0.00046922      -0.00858228       0.01717961
Cl      16.38624396      12.99695088       0.58725267       0.00729619      -0.00804266       0.01676891
C       15.47326700      11.49557896       0.77297047       0.00265865      -0.00590880       0.01215742
H       15.11886397      11.44659681       1.79540398      -0.00239429      -0.00521490       0.01049399
