146
Lattice="12.517101460769188 0.0 0.0 0.0 12.517101460769188 0.0 0.0 0.0 12.517101460769188" Properties=species:S:1:pos:R:3:forces:R:3 energy=-78549.3203125 stress="-0.0013790163211524487 -0.00012837072063121013 -0.0003021046723006293 -0.00012837072063121013 -0.0012209299020469189 -0.00018633898434927687 -0.0003021046723006293 -0.00018633898434927687 -0.0012264769757166505" pbc="T T T"
Mg      12.68630954      12.28500405       0.57594756       0.01464678      -0.01527411       0.03650533
S       11.17395970      10.29899072       0.47402390      -0.00171351       0.00061860       0.00039094
S        9.36638051      10.10106802       1.13644135      -0.01602316       0.03483979      -0.02911144
O       12.13173546      10.75890124       1.59568923      -0.01669681      -0.00679359       0.02001166
O       11.27745931      11.52906917      -0.46532763       0.04178128       0.00233388       0.00281858
O       11.70840163       9.13069834      -0.18799684      -0.01571870      -0.00215971       0.02067244
C        5.41899821       3.25608810      11.71214223      -0.00011697      -0.00568420       0.00317387
C        6.72650888       4.03608629      11.75118388      -0.00041790      -0.00347632       0.00962849
C        4.17923997       4.13656712      11.82096694      -0.00182668      -0.00851524       0.01316750
C        7.95764624       3.14600635      11.63339327      -0.00116354      -0.00345510       0.00209081
C        2.87728991       3.34244123      11.83529486       0.00054663      -0.01083308       0.02123073
C        9.26459077       3.92316764      11.68691040      -0.00015593      -0.00777003       0.00956016
H        5.37315873       2.67696342      10.78343810      -0.00210918       0.00363375      -0.00255665
H        5.41439132       2.51751154      12.52061247       0.00193207      -0.01224498      -0.00291127
H        6.78019897       4.61363530      12.68186967      -0.00099117      -0.01265223       0.01572916
H        6.73624887       4.77455590      10.94030462      -0.00068812       0.00187649       0.01468927
H        4.24715102       4.74245558      12.73120269       0.00304326      -0.00879227       0.01141506
H        4.17373180       4.84861438      10.98871984      -0.01116858      -0.00839758       0.01424167
H        7.93974591       2.39992764      12.43429583      -0.00619434      -0.01216446      -0.00664398
H        7.90104197       2.58080974      10.69684493      -0.00105732       0.00483790      -0.00207213
H        2.77555219       2.73123914      10.93654143       0.00046450      -0.00596718       0.01927130
H        2.00643477       3.99742156      11.89277104      -0.00087249      -0.01261686       0.02512946
H        2.84779310       2.66968937      12.70058600       0.00477455      -0.01106545       0.02071404
H        9.31191677       4.66926985      10.89205066       0.00105176       0.00071922       0.01815264
H        9.36777957       4.45436801      12.63520637      -0.00561083      -0.01474750       0.01307245
H       10.12701626       3.26383026      11.57559533      -0.00114521      -0.01065707       0.00763298
C        5.12108877       8.18088268       3.00871649      -0.00245535       0.00351855      -0.00989345
C        3.92438534       8.79608381       2.29919447      -0.00232428       0.00117940      -0.01344844
C        4.81935226       6.83130719       3.64538068      -0.00318968       0.00239924      -0.01208891
C        4.22663697      10.16453693       1.70162485      -0.00715470       0.00417054      -0.00945360
C        5.99771167       6.28591649       4.43322296      -0.00841382       0.00380912      -0.00320831
C        3.00243384      10.77634305       1.02871670      -0.00448242       0.00454868      -0.01515514
H        5.95656156       8.08099688       2.30654390      -0.00021648       0.00506906      -0.00721988
H        5.46624083       8.86884188       3.78810916      -0.00514083       0.00249572      -0.00784853
H        3.09195353       8.88994734       3.00604880      -0.00543782      -0.00657608      -0.01627955
H        3.57311361       8.12135484       1.51008233       0.00520634       0.00157538      -0.01684996
H        3.95951651       6.94554483       4.30621661      -0.00828615       0.00015996      -0.01849055
H        4.51481600       6.11468527       2.87358262       0.00403512       0.00180177      -0.01416233
H        4.58534441      10.82949460       2.49350562      -0.01104640       0.00400101      -0.00792235
H        5.04878800      10.07728340       0.98436047      -0.00715238       0.00866412      -0.00945050
H        6.85947363       6.11996150       3.78623360      -0.00323835       0.00351362       0.00398035
H        5.76478041       5.34360018       4.93194577      -0.01177227       0.00394771      -0.00470766
H        6.30790515       6.99793098       5.19948843      -0.01490420       0.00385693      -0.00068381
H        2.61497271      10.12357877       0.24147996       0.00189707       0.00549148      -0.01883945
H        2.19324316      10.89376851       1.75835552      -0.00964406       0.00324464      -0.01957068
H        3.23198395      11.75355707       0.58905846      -0.00044348       0.00458992      -0.01247439
C        2.91157955       2.20125641       3.79336046      -0.00445390       0.00305095      -0.00855619
C        4.35603235       2.59254976       4.08524286      -0.00188582      -0.00560513      -0.00251687
C        1.98142522       2.45987758       4.97133048      -0.00521264      -0.01249291      -0.00534338
C        5.28943974       2.36403245       2.90376072      -0.00178444      -0.00647390      -0.00185457
C        0.52130022       2.13554166       4.69346040      -0.00698921      -0.00038181      -0.00965947
C        6.73211181       2.77163596       3.17140199      -0.00326985      -0.00122933      -0.00403927
H        2.56129949       2.76269565       2.91867709      -0.00575006       0.00826143      -0.00453851
H        2.86895791       1.13951126       3.51859752      -0.00728657       0.00948581      -0.03036609
H        4.72097295       2.02990156       4.95267098      -0.00167901      -0.00800559      -0.00382355
H        4.38503657       3.65029001       4.37290421       0.00740760      -0.00722626       0.00243103
H        2.32814336       1.88103878       5.83048226      -0.00949520      -0.02597860      -0.01316777
H        2.06754187       3.51027254       5.26040907      -0.00166019      -0.01773170       0.01336670
H        5.25057464       1.30731519       2.61774067       0.00036162      -0.00682357      -0.00007023
H        4.90706070       2.92630456       2.04605014      -0.00508270      -0.00948407      -0.00155526
H        0.11859342       2.77990779       3.90942650      -0.00365512       0.02164240       0.00734608
H       -0.09531586       2.28162172       5.58240559      -0.00376243      -0.01143639      -0.00626761
H        0.40378451       1.09705251       4.37316401      -0.01769198       0.00544228      -0.02720089
H        6.81233752       3.84555182       3.33924759      -0.00873956      -0.00051269      -0.00615659
H        7.12675991       2.27320176       4.05861296      -0.00287002       0.00186937      -0.00263131
H        7.38281853       2.51493866       2.33398448      -0.00199091      -0.00035186      -0.00337550
C        8.31216804       9.32780836       4.62210790       0.00834692       0.00516388      -0.00514176
C        9.62964953       8.58865395       4.80083485       0.00759888       0.00238913      -0.01091459
C        8.40393592      10.84074267       4.74950067       0.00987321       0.00452995       0.00171350
C        9.46977341       7.09391232       4.55067103       0.00244519       0.00216123      -0.00763626
C        7.09527241      11.52063321       4.36943408       0.00748613       0.00438017       0.00962111
C       10.75925287       6.30899626       4.70188418       0.00075042      -0.00083378      -0.00862594
H        7.92309645       9.08728456       3.62791987       0.00508405       0.00920758      -0.00472957
H        7.57617069       8.94704627       5.34155894       0.00938438       0.00419806      -0.00439763
H       10.02561174       8.75718183       5.80971021       0.01063943       0.00172878      -0.01174366
H       10.36365963       8.99624230       4.09810376       0.00534943      -0.00080401      -0.01681557
H        8.68851202      11.11124315       5.77167788       0.01091013      -0.00135847       0.00293902
H        9.19813268      11.19882990       4.08914389       0.00995317       0.01026787       0.00405970
H        8.71617857       6.69181608       5.23531997       0.00196105       0.00490458      -0.00625062
H        9.07127133       6.95448636       3.54101613       0.00030151       0.00180824      -0.00651839
H        6.86102419      11.32507176       3.32055935       0.00295249       0.00932671       0.00971833
H        7.14550133      12.60165162       4.49980355       0.00455689       0.00360769       0.01590434
H        6.25999716      11.15143875       4.97178468       0.01134440      -0.00134750       0.01126167
H       11.51804702       6.67072620       4.00673761       0.00248389       0.00075024      -0.00599541
H       11.16036240       6.41478673       5.71084434      -0.00101539      -0.00513303      -0.00759807
H       10.61359849       5.24276027       4.51430171      -0.00097398       0.00027521      -0.01292996
C        2.26534740       9.55003023       7.34824012       0.00053433      -0.00133045       0.00111932
C        2.37091879       8.53601418       6.21954434       0.00048751       0.00104600      -0.00114495
C        3.31541857      10.64965841       7.26989787      -0.00219610       0.00133549       0.00383598
C        1.36560373       7.39912729       6.34530112       0.00280508      -0.00086473       0.00034884
C        3.30481801      11.55327566       8.49214907       0.00166719      -0.00726879       0.01038337
C        1.55690720       6.30343876       5.30880001       0.00544214      -0.00402933       0.00437111
H        1.26427016       9.99487780       7.35703614      -0.00037792      -0.00382952       0.00418434
H        2.36767780       9.02746310       8.30663415       0.00312514      -0.00386271      -0.00066715
H        3.38733785       8.12681109       6.20874182       0.00111732       0.00312905      -0.00402819
H        2.23703605       9.03866805       5.25466428      -0.00276601       0.00211424      -0.00013122
H        4.30352789      10.19355267       7.16701586      -0.00179958       0.00434309      -0.00394051
H        3.15986859      11.24197847       6.36101989      -0.00750203       0.00734185       0.00869372
H        1.43858719       6.96782291       7.34966543       0.00272503       0.00231910       0.00159952
H        0.35613289       7.81249209       6.26554714       0.00212887      -0.00327167      -0.00167367
H        2.35903223      12.09180338       8.57692332       0.00110169      -0.00981383       0.01866913
H        4.10705186      12.28874750       8.45416047      -0.00076085      -0.00486498       0.01123165
H        3.43050214      10.96790083       9.40578891       0.00795147      -0.01259905       0.00603494
H        1.49488818       6.70142046       4.29358255       0.00576266      -0.00832419       0.00287430
H        2.53662233       5.83463190       5.41648578       0.00579867      -0.00252548       0.00713937
H        0.80309076       5.52136878       5.40366693       0.00635588      -0.00457977       0.00669030
C       10.77644041       7.47538572       8.87233047       0.00490415       0.00161574       0.00064716
C        9.99456919       6.23869729       8.45058254       0.00372887       0.00106505       0.00485435
C        9.91608755       8.73267047       8.91736498       0.00529253       0.00154091       0.00383161
C       10.82941392       4.96753443       8.35795713       0.00358021       0.00105336       0.00413388
C       10.72845748       9.99999043       9.12887156       0.00688136       0.00208679      -0.00527091
C       10.01994366       3.76889515       7.87898004       0.00342298       0.00171047       0.00332166
H       11.23353988       7.32193418       9.85527964       0.00965771       0.00261651      -0.00158036
H       11.60406393       7.63037660       8.17174419       0.00151914       0.00094388      -0.00331500
H        9.52656276       6.42784431       7.47692570       0.00146805      -0.00044288       0.00562707
H        9.16465209       6.07724588       9.14775971       0.00554869       0.00184234       0.00710255
H        9.35127940       8.80897882       7.98176739      -0.00180237      -0.00091670       0.00810727
H        9.17888879       8.63202299       9.72032513       0.01149383       0.00337559       0.00935844
H       11.67082044       5.13803919       7.67704577       0.00361824       0.00131217       0.00440171
H       11.27206787       4.75210592       9.33553356       0.00367681       0.00012371       0.00382450
H       11.33383485       9.92111079      10.03001724       0.01420797       0.00430270      -0.01004621
H       10.08795430      10.87445097       9.24437645       0.00729965       0.00171983      -0.00151854
H       11.39493486      10.17919599       8.28126738      -0.00064439       0.00064931      -0.01143524
H        9.17418930       3.57744829       8.54381131       0.00370136       0.00092389       0.00333643
H        9.61508307       3.94648476       6.87980721       0.00307524       0.00288489       0.00389118
H       10.62144871       2.85922478       7.83770973       0.00331143       0.00181213       0.00182736
C        4.94755155       4.54252914       8.10857816      -0.00168371       0.00443786       0.00267790
C        4.92037386       6.06207360       8.10864642      -0.00209379       0.00437409      -0.00206996
C        3.55273096       3.93343809       8.11538179      -0.00125611       0.00353792       0.00215281
C        6.29402798       6.70852410       8.19993581      -0.00270480       0.00514278       0.00149527
C        3.57241661       2.41845767       8.19060607      -0.00121816       0.00348693       0.00137395
C        6.22045346       8.22470778       8.11423026      -0.00298171       0.00490093      -0.00129356
H        5.49969349       4.18357684       7.23154593      -0.00003839       0.00201445       0.00490826
H        5.50642240       4.18414143       8.98040122      -0.00298850       0.00756112       0.00471717
H        4.30201537       6.41326258       8.94414133      -0.00531465       0.00682040      -0.00566933
H        4.41703359       6.40928059       7.19886857       0.00144757       0.00145849      -0.00490919
H        2.98862781       4.33664794       8.96270040      -0.00159925       0.00296342       0.00208366
H        3.01455241       4.25389047       7.21800853      -0.00105160       0.00364726       0.00223112
H        6.77270991       6.41158065       9.13839739      -0.00599555       0.00709166       0.00365978
H        6.93341035       6.31871495       7.40159104       0.00035334       0.00423691       0.00445649
H        4.10471031       1.98792217       7.34011918      -0.00061469       0.00408719       0.00155798
H        2.56729100       1.99569409       8.20021812      -0.00110975       0.00357050       0.00032445
H        4.07980847       2.07807671       9.09461896      -0.00199401       0.00316156       0.00156575
H        5.75934110       8.53133288       7.17274056       0.00506774       0.00358425      -0.00554277
H        5.61093473       8.63149408       8.92446259      -0.01023220       0.00541888      -0.00723904
H        7.20387321       8.68774990       8.17269157      -0.00388110       0.00552426       0.00665501
