143
Lattice="12.961143856676976 0.0 0.0 0.0 12.961143856676976 0.0 0.0 0.0 12.961143856676976" Properties=species:S:1:pos:R:3:forces:R:3 energy=-443850.25 stress="-0.0005407561548054218 -2.3697059987171087e-05 7.215416189865209e-05 -2.3697059987171087e-05 -0.00023279775632545352 3.015076435985975e-05 7.215416189865209e-05 3.015076435985975e-05 0.00010872836719499901" pbc="T T T"
Mg      12.61521935      12.60737849       0.71078761       0.00926726      -0.00820525       0.00066817
I        7.22310128      13.27438376       4.53183720       0.00491633      -0.00796089       0.00475146
I        1.03172937      13.96302695       2.44027722       0.02891290       0.02197026      -0.03214479
C        5.32879347       3.93602598       5.02392771       0.00107223      -0.00401628      -0.00234675
C        3.96642387       4.19973542       5.64821375       0.00079775      -0.00313270      -0.00274637
C        6.26518323       5.13715012       5.03730112       0.00184677      -0.00463736      -0.00019339
C        3.07838010       2.96064547       5.64482754       0.00072917      -0.00328970      -0.00348529
C        7.64336529       4.78850342       4.49189883       0.00245520      -0.00593498       0.00190224
C        1.72780342       3.17104950       6.31428363       0.00206268      -0.00319812      -0.00078794
H        5.81007750       3.09871255       5.53875658       0.00006625      -0.00449103      -0.00303695
H        5.19800732       3.58937503       3.99358410       0.00147917      -0.00237147      -0.00286075
H        3.46202737       5.01523643       5.11314245       0.00128798      -0.00325778      -0.00266550
H        4.10021368       4.54927722       6.67952804       0.00062215      -0.00395826      -0.00268230
H        5.82594021       5.95666205       4.45616003       0.00389324      -0.00403154      -0.00064188
H        6.35862141       5.51427717       6.06210803       0.00051492      -0.00506472      -0.00012517
H        2.92633923       2.63359930       4.61155345      -0.00069083      -0.00149826      -0.00345442
H        3.61413744       2.14327423       6.13532109       0.00078191      -0.00379863      -0.00529821
H        8.08704167       3.97103468       5.06285854       0.00140839      -0.00588709       0.00313339
H        8.32247256       5.64135182       4.52205149       0.00245798      -0.00619029       0.00307448
H        7.57627817       4.44781831       3.45733721       0.00403074      -0.00535819       0.00180537
H        1.84543501       3.45943412       7.36124599       0.00450042      -0.00618374      -0.00035420
H        1.16066497       3.96403049       5.82110393       0.00137360      -0.00253727       0.00197029
H        1.12115809       2.26450241       6.28493323       0.00134450      -0.00300467      -0.00154651
C        9.83997931      10.37517030       4.63073927       0.00844172      -0.00282989      -0.00370067
C        9.30268556       9.74142575       3.35512385       0.00609624      -0.00426495      -0.00372684
C       10.71215711      11.59414315       4.36064426       0.00794165      -0.00174779      -0.00910649
C        8.41218137       8.53001660       3.59666892      -0.00226270       0.00107358       0.00368071
C       11.17750507      12.29215111       5.62964599       0.01071532      -0.00220245      -0.00906348
C        7.91849016       7.89582620       2.30324078      -0.00173177      -0.00076686       0.00335154
H        8.99281480      10.68992685       5.25011479       0.01064390      -0.00068536      -0.00346564
H       10.40686570       9.63175103       5.20741061       0.00885601      -0.00168179      -0.00507860
H       10.13880325       9.43673623       2.71333220       0.00199434      -0.00765910      -0.00252214
H        8.74010447      10.50146119       2.80154045       0.00652814      -0.00363606      -0.00402597
H       11.58200142      11.29936689       3.75707206       0.00904575      -0.00582477      -0.00759357
H       10.12805305      12.30174768       3.76388910       0.01028052      -0.00485098      -0.00928320
H        8.96829262       7.79074823       4.18245851      -0.00409921       0.00005034       0.00523782
H        7.55857989       8.82718173       4.21448176       0.00178349       0.00724456       0.00097284
H       10.31338115      12.64241713       6.19809975       0.00949246       0.00368035      -0.01181626
H       11.80479424      13.15630244       5.40590572       0.01268438      -0.00297384      -0.01200617
H       11.75206975      11.61426116       6.26575400       0.00623878       0.00014637      -0.00755714
H        7.32244127       8.60701406       1.72901161       0.00012030      -0.00120944       0.00199223
H        8.75773309       7.58871721       1.67409556      -0.00466548      -0.00658686       0.00694060
H        7.30344001       7.01374094       2.48773749      -0.00732604       0.00048035       0.00701942
C        1.62007625       8.15925075       9.69665636      -0.00067890       0.00264108       0.00384498
C        1.80977787       9.60060792      10.15107712      -0.00189590       0.00310677       0.00489956
C        2.03675824       7.90905991       8.25486581      -0.00001752       0.00328717       0.00349572
C        1.42465253       9.79744016      11.61136557      -0.00002697      -0.00201565       0.00653625
C        1.87110600       6.45513372       7.84296607       0.00021040       0.00266933       0.00429480
C        1.62675630      11.22144240      12.10428970      -0.00418995      -0.00253305       0.01113430
H        2.19295362       7.49807763      10.35334369       0.00004111       0.00323507       0.00343540
H        0.57087391       7.87221845       9.82327457      -0.00010040       0.00203355       0.00363092
H        1.21595085      10.26884351       9.51747969      -0.00417858       0.00280467       0.00736137
H        2.85611636       9.89545808      10.00887402      -0.00279823       0.00466794       0.00412644
H        1.45432459       8.55639621       7.59020602      -0.00055104       0.00254656       0.00343782
H        3.08196668       8.20772643       8.12341658      -0.00059721       0.00339428       0.00367991
H        0.37727284       9.50814428      11.74904154       0.00173941      -0.00607019       0.00799675
H        2.01346658       9.11270481      12.23129393       0.00411445      -0.00125210       0.00273792
H        2.48351513       5.80313451       8.46996649       0.00118507       0.00332302       0.00371039
H        2.16849790       6.28762690       6.80845260       0.00005188       0.00278238       0.00368184
H        0.83432581       6.12771085       7.94613238       0.00089337       0.00221146       0.00468559
H        2.65953440      11.56460347      12.00515568      -0.00807405       0.00569767       0.00215531
H        0.99792958      11.92538356      11.54054818      -0.01556927      -0.00355737       0.02272858
H        1.39370130      11.29596433      13.18158643       0.00800514      -0.01139172       0.01465963
C       11.05678373       9.30026157       9.13390966      -0.00259316       0.00326595      -0.00081426
C       10.07840803       8.18153889       8.80034267      -0.00437421       0.00330514      -0.00348361
C       10.44496438      10.69126545       9.03019575      -0.00911045       0.00382870      -0.00642502
C       10.65000079       6.78638006       9.02275295      -0.00146425       0.00344341      -0.00514434
C       11.41831556      11.79618538       9.41324926      -0.00710350       0.00302738       0.02236004
C        9.64739602       5.67726567       8.73651712      -0.00164849       0.00417864      -0.00674371
H       11.43693922       9.15232193      10.15232420      -0.00666361       0.00404737       0.00021496
H       11.92947840       9.23307250       8.47260738      -0.00405723       0.00549021       0.00142841
H        9.74703536       8.28230070       7.76072606      -0.00191976       0.00438965      -0.00396314
H        9.17971599       8.30108215       9.41537032      -0.00330120       0.00204529      -0.00516063
H       10.07635997      10.85305448       8.01371026      -0.00219463       0.00411530       0.00158688
H        9.56980097      10.74082811       9.68477194      -0.00874260       0.00119351      -0.00197312
H       11.53608754       6.65441469       8.39332824      -0.00168952       0.00537203      -0.00430724
H       11.00072866       6.70633824      10.05768003      -0.00264923       0.00307722      -0.00479886
H       11.74502967      11.66344865      10.45346427      -0.00863522       0.00265248      -0.00598548
H       10.96679563      12.78566497       9.33081766      -0.01074509       0.00449616       0.00685858
H       12.30906720      11.78266294       8.78104903      -0.00431949       0.00745956      -0.00151908
H        8.75575141       5.78882867       9.35755563      -0.00074638       0.00157759      -0.00636710
H        9.32316671       5.69404348       7.69389573      -0.00166146       0.00601208      -0.00672087
H       10.06737028       4.69060820       8.93580857      -0.00029303       0.00348841      -0.00945310
C        5.39219064       4.75647912      10.27915552       0.00137979      -0.00441341       0.00323829
C        6.46881111       3.69616065      10.08623878      -0.00082898      -0.00306402      -0.00000465
C        5.28834772       5.25464533      11.71672628       0.00198156      -0.00300117       0.00145984
C        6.61266961       3.21756270       8.64643255       0.00135556      -0.00419389       0.00337780
C        4.15134516       6.24465552      11.92034974       0.00266138      -0.00416967       0.00444520
C        7.69286252       2.15946988       8.47516965      -0.00207353      -0.00516504      -0.00104773
H        5.59028702       5.60682202       9.61460519      -0.00006117      -0.00331360       0.00157037
H        4.42357755       4.34951216       9.96430700       0.00019455      -0.00402674       0.00301551
H        6.24581739       2.83760109      10.73046897       0.00165208      -0.00334296       0.00255115
H        7.43104317       4.08853310      10.43537282       0.00166431      -0.00266528       0.00030336
H        5.15266234       4.39822917      12.38499957       0.00306870      -0.00429255       0.00253874
H        6.23787137       5.71718295      12.00539398       0.00265580      -0.00389537       0.00117871
H        5.65294863       2.82053260       8.29885821      -0.00171739      -0.00568481       0.00255300
H        6.83326941       4.07436059       8.00082618      -0.00134944      -0.00512233       0.00062573
H        4.26188463       7.10532396      11.25673556       0.00188398      -0.00326535       0.00432150
H        4.11161280       6.61872159      12.94486897       0.00409286      -0.00433984       0.00433141
H        3.18749988       5.78222591      11.69628139       0.00225960      -0.00346680       0.00522631
H        8.67122137       2.55142541       8.76188414       0.00091653      -0.00314449       0.00140260
H        7.48928124       1.29207586       9.10704063       0.00032506      -0.00401407       0.00383285
H        7.75421817       1.80897586       7.44299612      -0.00097298      -0.00526136       0.00434324
C        5.42672583      11.25314240       8.67522420      -0.00160812       0.00298548      -0.00164643
C        5.89146799       9.98410978       9.38011396      -0.00018027       0.00251043      -0.00165908
C        4.66330005      11.00914894       7.37854177      -0.00174828       0.00056183      -0.00195038
C        6.61293799      10.26721792      10.69290230      -0.00177877       0.00402069      -0.00003633
C        4.09852526      12.29234729       6.78786080      -0.00722738       0.00007156       0.00162154
C        6.96559429       9.01300811      11.48124071      -0.00100500       0.00263903      -0.00157234
H        4.78960542      11.82508317       9.36190679      -0.00330788       0.00141487      -0.00215633
H        6.29080876      11.89193754       8.46201991      -0.00360876       0.00380594      -0.00185250
H        6.55036765       9.41158347       8.71649482       0.00137436       0.00477043      -0.00094986
H        5.02677896       9.33740347       9.57574623       0.00106367       0.00177500      -0.00251173
H        5.33117176      10.53889303       6.65015911       0.00092962       0.00635833      -0.00340846
H        3.85199466      10.29753207       7.56591684       0.00247630      -0.00313540      -0.00355987
H        7.51904925      10.84242266      10.48098818      -0.00219512       0.00455740       0.00093228
H        5.98647075      10.91939249      11.31070011      -0.00275207       0.00196379      -0.00073963
H        3.42428657      12.78327034       7.49465116      -0.01056662      -0.00584154       0.00252579
H        3.54268155      12.10215193       5.86890585      -0.00640798      -0.00066005       0.00046036
H        4.90462846      12.98194799       6.53185355      -0.01121014       0.00424872       0.00395255
H        6.06682038       8.51593218      11.85166582      -0.00038075       0.00225896      -0.00154873
H        7.50290307       8.29219356      10.86055856       0.00034011       0.00444239      -0.00018921
H        7.59291337       9.24059649      12.34389789      -0.00152297       0.00396578       0.00019865
C        3.60411611       9.73346689       3.14504632      -0.00127888       0.00326821      -0.00061393
C        2.45454661       8.73629325       3.21324108      -0.00155686       0.00220177      -0.00255263
C        4.30005987       9.76136135       1.78932029       0.00349802      -0.00110838       0.00040731
C        1.79111392       8.66659048       4.58372129      -0.00276808       0.00385645      -0.00221288
C        5.38532376      10.82313922       1.70402112      -0.00211692       0.00577620       0.00516036
C        0.61047372       7.70537131       4.62498782      -0.00223964       0.00252610      -0.00420530
H        3.23171482      10.73646820       3.38024641      -0.00263102       0.00296253      -0.00576021
H        4.34121390       9.49882996       3.92107228      -0.00441411       0.00550774       0.00157300
H        2.81646500       7.73808011       2.93708321      -0.00102679       0.00292051      -0.00080732
H        1.69956701       9.00141261       2.46183365      -0.00065374       0.00215562      -0.00275773
H        4.72526881       8.77185052       1.58515884       0.00427766      -0.00018325       0.00580335
H        3.55086973       9.93349802       1.00814634       0.00501978      -0.00514286      -0.00159284
H        2.53979186       8.36923580       5.32540005      -0.00339213       0.00380312      -0.00186640
H        1.46115067       9.66977254       4.87414518      -0.00328414       0.00313455      -0.00333239
H        4.97041092      11.82363483       1.83201762      -0.00928435       0.00199884       0.00228059
H        5.90424946      10.79145979       0.74435701       0.00325484       0.00454198       0.00532551
H        6.12784416      10.70116350       2.49360787      -0.00418133       0.00662458       0.00693953
H       -0.16448009       8.00908484       3.91782622      -0.00205427       0.00314970      -0.00377610
H        0.91983549       6.69150744       4.36039001      -0.00163916       0.00361893      -0.00459710
H        0.15601032       7.66311927       5.61625557      -0.00285973       0.00175196      -0.00359485
