143
Lattice="12.530856618650745 0.0 0.0 0.0 12.530856618650745 0.0 0.0 0.0 12.530856618650745" Properties=species:S:1:pos:R:3:forces:R:3 energy=-88523.8359375 stress="0.0007992886821739376 0.00011746802556444891 0.00022333160450216383 0.00011746802556444891 0.00012614384468179196 0.0002494499203749001 0.00022333160450216383 0.0002494499203749001 -0.001263497630134225" pbc="T T T"
Na      12.55909584      14.38523281      -0.52117285      -0.01924863       0.03448161      -0.00469837
P        9.83475501       2.07967027       1.43099229       0.00327949      -0.02320022      -0.01438451
O        9.00338269       0.93466262       2.22861521       0.00824113      -0.02753812      -0.01995602
O       10.37825196       3.03798605       2.62960480      -0.01590508      -0.00248641      -0.02479005
O       11.04357635       1.39042342       0.83089919       0.00704193      -0.02175617       0.00876516
O        8.91386096       2.87211810       0.59976720       0.00571775      -0.02882016      -0.03674936
H        9.51288383       0.12061647       2.28898919       0.03060278      -0.01593332      -0.02445352
H       11.12170558       2.62484878       3.07857998      -0.03327852      -0.00622684       0.00017215
C        4.83899347       4.34414888       5.34802203       0.00682013       0.00258092      -0.00553832
C        4.98556282       2.95858168       5.41944369       0.00802891       0.00251585      -0.00685191
C        5.89940423       5.09642652       4.84091123       0.00588458       0.00335056      -0.00656264
C        3.58679224       5.01802167       5.82398441       0.00667700       0.00138818      -0.00427769
C        6.15833763       2.34449596       4.99583121       0.00725138       0.00347725      -0.00909566
C        7.07245305       4.48397498       4.41612732       0.00497022       0.00423183      -0.00923800
C        7.20723533       3.10288032       4.49125252       0.00586605       0.00427347      -0.01101960
H        4.16636347       2.35953349       5.80424584       0.00894754       0.00183820      -0.00583407
H        5.79168096       6.17292590       4.76463958       0.00507724       0.00333317      -0.00600197
H        3.39343660       5.93300013       5.26259283       0.00642734       0.00233985      -0.00274245
H        2.72046610       4.36132173       5.73013724       0.00700495       0.00113103      -0.00525847
H        3.67763591       5.28751135       6.87913253       0.00608705      -0.00068485      -0.00371987
H        6.25158826       1.26619113       5.03759100       0.00810474       0.00330423      -0.00932425
H        7.88041728       5.07843291       4.00639561       0.00405911       0.00526559      -0.01020491
H        8.10814157       2.62262454       4.13263430       0.00539511       0.00516929      -0.01336767
C        9.75376244       8.94717514       3.66875581       0.00853527      -0.00570910      -0.00096108
C        9.02959835       9.71723442       2.76024519       0.01134364       0.00494681       0.00584707
C       10.88101099       8.26436881       3.21206470       0.00357658      -0.00846094      -0.00765549
C        9.30034075       8.84603773       5.08832859       0.01091878      -0.01378520      -0.00036877
C        9.41438511       9.80159925       1.42964810       0.01064601       0.01288752       0.00563046
C       11.26279127       8.33519002       1.87798353       0.00314789      -0.00039750      -0.00764838
C       10.53089268       9.10571859       0.98199950       0.00651927       0.01088759      -0.00070901
H        8.14798809      10.24904698       3.10066322       0.01465192       0.00693440       0.01061316
H       11.45488984       7.66931358       3.91460088       0.00130568      -0.01712741      -0.01334119
H       10.14236361       8.84937399       5.78256060       0.01244190      -0.01453792      -0.00210609
H        8.64318680       9.67244724       5.34608249       0.00918657      -0.01691750       0.00488662
H        8.73684990       7.92314018       5.25614382       0.01446728      -0.01646054      -0.00384059
H        8.82681365      10.39603373       0.74506975       0.01298705       0.02096698       0.01084195
H       12.13246857       7.78799661       1.53465813      -0.00020151      -0.00205892      -0.01233220
H       10.82646177       9.15743861      -0.05891487       0.00631882       0.01753913      -0.00045879
C        0.75453514      10.44634884       7.38878207      -0.00723235       0.00119609       0.00330859
C        0.98136184       9.76431725       8.58586400      -0.00268882       0.00220383       0.00323474
C        0.92171582       9.75335630       6.18994345      -0.00866737      -0.00021252       0.00360003
C        0.38767776      11.90252866       7.39979487      -0.00916664       0.00047630       0.00375271
C        1.37202188       8.43191437       8.58612973      -0.00060887       0.00349439       0.00343677
C        1.31176975       8.41825471       6.18721089      -0.00645625       0.00077899       0.00376806
C        1.53649085       7.75222276       7.38501179      -0.00216300       0.00209606       0.00403574
H        0.85505324      10.28844846       9.52774988      -0.00189407       0.00400477       0.00224665
H        0.75148574      10.26579297       5.24905500      -0.01243240      -0.00164509       0.00312021
H       -0.04989679      12.21257270       6.45125090      -0.01152916      -0.00292726       0.00363570
H       -0.32573737      12.12543430       8.19694076      -0.00373176       0.00411309       0.00785258
H        1.27207819      12.52432738       7.57315564      -0.00980431       0.00208415      -0.00092050
H        1.53596748       7.91918145       9.52561457       0.00185051       0.00474424       0.00378399
H        1.45283748       7.90105298       5.24610344      -0.00893054      -0.00104571       0.00427289
H        1.83041718       6.71063701       7.38123756      -0.00037899       0.00248060       0.00489099
C       10.40481649       5.18473507       8.19154411       0.00088293      -0.00711370       0.00095800
C       10.19279729       6.56037031       8.29016791      -0.00183198      -0.00754230       0.00377961
C       11.18084193       4.56868643       9.17391484       0.00195781      -0.00743584       0.00029941
C        9.80934048       4.40358422       7.05788509       0.00364815      -0.00631602      -0.00065398
C       10.72424052       7.29755762       9.33963403      -0.00329075      -0.00796777       0.00419692
C       11.71800252       5.30234118      10.22598839       0.00063034      -0.00822178       0.00126741
C       11.48622306       6.66909054      10.31752251      -0.00151935      -0.00835076       0.00326027
H        9.59956124       7.05164767       7.52803563      -0.00296132      -0.00712346       0.00444091
H       11.34643391       3.49789193       9.10752939       0.00416455      -0.00722370      -0.00186683
H        9.65446089       3.35902579       7.32929063       0.00942663      -0.00785980      -0.00363255
H        8.84738473       4.81565270       6.75209276       0.00109178      -0.01065300       0.00163486
H       10.45703708       4.42321626       6.17693441       0.00231872      -0.00042160      -0.00134137
H       10.55390028       8.36684721       9.38855705      -0.00542843      -0.00852859       0.00680151
H       12.32228781       4.81584377      10.98509997       0.00215554      -0.00740448       0.00057556
H       11.90148335       7.23995280      11.13859188      -0.00239444      -0.00927437       0.00385340
C        5.80056727       4.17651835       9.91924798      -0.00364110      -0.00352776       0.00105171
C        5.45089968       2.85322365       9.64148379      -0.00104521      -0.00288868      -0.00472297
C        4.79124214       5.14100559       9.88068196      -0.00184628      -0.00224194      -0.00418080
C        7.22194471       4.54188224      10.23339692      -0.00579503      -0.00454300       0.00709971
C        4.13950609       2.49964680       9.34695709      -0.00205743      -0.00289868      -0.00170928
C        3.47679870       4.79464832       9.58571228      -0.00235346      -0.00395066      -0.00089449
C        3.14330737       3.47041294       9.32459562      -0.00354682      -0.00412130       0.00246957
H        6.22440952       2.09365938       9.65236631      -0.00178874      -0.00486254       0.00949274
H        5.04099490       6.17683309      10.08434147      -0.00224352      -0.00402670       0.01018956
H        7.28198102       5.50325209      10.74305936      -0.00691166       0.00173098      -0.00474713
H        7.70531874       3.79794445      10.86943067      -0.00806743      -0.00112224       0.01381950
H        7.81030811       4.62878708       9.31571874      -0.00931996      -0.01682962       0.00420704
H        3.90103462       1.46398501       9.13089530      -0.00700880      -0.00364354       0.01028853
H        2.71065968       5.56170464       9.55738445      -0.00651415      -0.00827815       0.01042255
H        2.12063283       3.21052783       9.07423487      -0.00409780      -0.00600287       0.00390336
C        5.67942679      10.70599185       7.32935866       0.00084610       0.00752955      -0.00255872
C        6.35396497      11.91845295       7.20217682      -0.00039700       0.00806531      -0.00151083
C        6.41650833       9.57051313       7.66616318       0.00180344       0.00809294      -0.00211204
C        4.20163309      10.61464384       7.11168949       0.00106296       0.00602446      -0.00462008
C        7.73236865      11.99428625       7.37177292      -0.00013756       0.00927559      -0.00033915
C        7.78605820       9.64643326       7.86334712       0.00155843       0.00962212      -0.00168180
C        8.45394873      10.85509692       7.70127638       0.00024010       0.00941609      -0.00069968
H        5.79147655      12.81676519       6.97697966      -0.00074909       0.00776191      -0.00165939
H        5.90367127       8.62319720       7.79354041       0.00240254       0.00752950      -0.00290338
H        3.72999001       9.95958484       7.84430947       0.00020658       0.00710797      -0.00426354
H        3.73006557      11.59570940       7.17526725       0.00027988       0.00584070      -0.00736823
H        3.97065370      10.20115150       6.12655685       0.00307981       0.00396793      -0.00429440
H        8.23557171      12.94641592       7.24896641      -0.00131746       0.00977497       0.00098587
H        8.33442767       8.75707286       8.14591215       0.00241461       0.00917065      -0.00198502
H        9.52914232      10.90284122       7.83044860       0.00065269       0.01087761       0.00018468
C        4.59802613       9.40746768       2.11134466       0.00181569      -0.00329620       0.00359481
C        3.23812184       9.38785815       2.42325264       0.00182994      -0.00244714       0.00193749
C        5.25335323       8.18895916       1.93268243       0.00155312      -0.00449704       0.00560763
C        5.33332919      10.70651270       1.97991096       0.00315072      -0.00435969       0.00268544
C        2.55300475       8.18696924       2.55880491       0.00060841      -0.00127262       0.00285980
C        4.57154493       6.98513077       2.06176636      -0.00009098      -0.00357032       0.00626369
C        3.21727281       6.97904405       2.37765267       0.00019571      -0.00213560       0.00500565
H        2.70928613      10.32607286       2.55448633       0.00224440      -0.00156640      -0.00003456
H        6.30719184       8.18925060       1.67794658       0.00144812      -0.00538438       0.00681047
H        6.22849243      10.59915636       1.36745617       0.00453925      -0.00615831       0.00506555
H        4.70701362      11.46749271       1.51553692       0.00461274      -0.00499231      -0.00040680
H        5.63778754      11.08877742       2.95921761       0.00097843      -0.00263288       0.00263327
H        1.49707205       8.19949367       2.79931028       0.00040653      -0.00043005       0.00172939
H        5.09617123       6.04794999       1.92321207      -0.00061512      -0.00428320       0.00746094
H        2.69040905       6.03819691       2.48065471      -0.00086963      -0.00173356       0.00585951
C        4.29532186       2.25935923       1.27895761      -0.00063163       0.00387295      -0.00229684
C        3.17664359       1.58294346       1.77566681       0.00078803       0.00629859       0.00450087
C        4.08218035       3.44031709       0.56359103      -0.00280319       0.00438827      -0.00060539
C        5.68183500       1.74044189       1.49279317      -0.00062272      -0.00154093      -0.01396215
C        1.89034962       2.07731454       1.58449908       0.00107402       0.00902939       0.01228547
C        2.80432564       3.94445443       0.36796734      -0.00241895       0.00842826       0.00910999
C        1.69837992       3.27203788       0.88650934      -0.00086266       0.01101228       0.01601673
H        3.32091431       0.67377725       2.34786581       0.00067445       0.00437457       0.00147849
H        4.93744504       3.97361700       0.16692654      -0.00454545       0.00064365      -0.00886792
H        6.42102716       2.53994995       1.52080422       0.00266454      -0.00454646      -0.02526727
H        5.75331319       1.17489674       2.42024128       0.00600425       0.00165561      -0.01242584
H        5.97918638       1.07121143       0.68013360      -0.01190199      -0.00648534      -0.01389545
H        1.03919125       1.54772147       2.00305424       0.00297216       0.00821619       0.01457945
H        2.67536922       4.87600454      -0.16788979      -0.00367763       0.00975426       0.01204158
H        0.70911792       3.72452904       0.83325084       0.00110385       0.01547362       0.02723010
C        7.58414697      10.98183276      11.03178221      -0.00610219       0.00594833       0.00347293
C        7.63517813       9.58983211      11.11533511      -0.00471888       0.00605890       0.00711877
C        6.32977320      11.58651825      10.93776520      -0.00664281       0.00384325       0.00130180
C        8.83241112      11.81864388      11.02498103      -0.00746268       0.00787225       0.00225884
C        6.47391312       8.82756793      11.12030581      -0.00397560       0.00521256       0.00802707
C        5.16631879      10.82773604      10.92367063      -0.00564959       0.00370409       0.00280359
C        5.23285861       9.44272430      11.02096022      -0.00484717       0.00333069       0.00598437
H        8.59646142       9.09229602      11.17944696      -0.00436856       0.00713277       0.00905277
H        6.26900391      12.66728968      10.88116550      -0.00785952       0.00402491      -0.00190021
H        8.74473733      12.68194430      11.68856439      -0.00474621       0.00254858       0.00930187
H        9.70472162      11.24186385      11.33604644      -0.00423644       0.00685579      -0.00922847
H        9.02923913      12.20088899      10.02013878      -0.01505887       0.01686900       0.00313541
H        6.54304797       7.74967662      11.20296391      -0.00347745       0.00525571       0.01056708
H        4.20404710      11.32020844      10.84796575      -0.00607835       0.00247820       0.00132074
H        4.32606336       8.85034005      11.03035118      -0.00402158       0.00305246       0.00706693
