137
Lattice="12.370945832332685 0.0 0.0 0.0 12.370945832332685 0.0 0.0 0.0 12.370945832332685" Properties=species:S:1:pos:R:3:forces:R:3 energy=-101009.359375 stress="-0.001098555396310985 0.0002703696663957089 -0.00011329277913318947 0.0002703696663957089 -0.002822011476382613 -3.905909943568986e-05 -0.00011329277913318947 -3.905909943568986e-05 -0.0052732317708432674" pbc="T T T"
Na      12.41035254      12.54739186       0.25323243       0.03524685       0.02313646      -0.01481259
F       12.57541955      13.03389185       2.12903550      -0.02862723      -0.01475391      -0.01413235
O        3.34152055       2.82435437       6.19203352      -0.01442161      -0.01739100      -0.00249661
O        2.01622308       4.38895832       6.85476629      -0.01393975      -0.02009702       0.00279994
O        4.04223227       4.97497040       6.02026314      -0.01830679      -0.01703084      -0.00382981
C        4.54910218       2.36784377       5.52911181      -0.01232263      -0.01325285       0.00061104
C        4.72855512       0.91306771       5.84994918      -0.00461124      -0.01033759       0.00788714
C        3.22078216       4.14467133       6.32031257      -0.01584440      -0.01734239      -0.00153589
C        1.76529601       5.77841141       7.13199424      -0.01666187      -0.01951426      -0.00449131
H        4.42955624       2.53078155       4.46054474      -0.01160254      -0.01722738      -0.00012875
H        5.38447851       2.98507960       5.85489627      -0.01589698      -0.00860691      -0.00018390
H        5.63850524       0.55791019       5.36591892       0.00512274      -0.00406276       0.02256201
H        4.81156092       0.74460006       6.92297377      -0.01694896      -0.00376731       0.00964463
H        3.90299134       0.31808048       5.47088981       0.00631320      -0.02009267       0.00039176
H        2.63911150       6.24341863       7.57063322      -0.02321562      -0.02045105       0.00891908
H        0.93004731       5.78701392       7.82796232      -0.02852388      -0.01748679      -0.01918828
H        1.50724524       6.30785680       6.21785797      -0.00017167      -0.02095595      -0.00960097
O        4.90131998       2.81069588       8.90208430       0.00113431      -0.01557287       0.00175773
O        2.86996883       2.69588563       9.64621265       0.00398365      -0.02423029       0.00845079
O        3.77501650       4.73655757       9.27284932      -0.00639993      -0.02100980       0.00896964
C        6.04220882       3.58336243       8.45274108      -0.00097474      -0.01176220       0.00249769
C        7.13607726       2.58976456       8.16171589       0.00040656      -0.00831369      -0.00173590
C        3.85027087       3.53225142       9.27121223       0.00011556      -0.01951754       0.00627858
C        1.63882927       3.36092651       9.94909249       0.00552290      -0.02478373       0.01529039
H        5.74921337       4.16710906       7.57875375      -0.00282168      -0.01047710       0.00420824
H        6.32496837       4.28807674       9.23372255      -0.00125356      -0.01419246       0.00421914
H        8.06039315       3.11273742       7.92396015      -0.00122286      -0.00570570      -0.00129202
H        7.30345463       1.95974500       9.03309149       0.00355292      -0.01053020      -0.00424317
H        6.87626816       1.94961025       7.32023657       0.00094374      -0.00574894      -0.00351289
H        1.77295425       4.09695699      10.74032082       0.00846270      -0.03081875       0.01991385
H        0.95564682       2.57813165      10.26927790       0.00783388      -0.02555852       0.01506412
H        1.25365632       3.84559779       9.05477797      -0.00066190      -0.02243209       0.01917481
O        3.15655485      10.40935256       6.12477777      -0.00957051      -0.00219417      -0.00354199
O        5.04255795       9.38850092       6.47120091      -0.01294842      -0.00414613      -0.00079244
O        3.14112531       8.17272044       6.41254552      -0.01623434       0.00017107       0.01272548
C        1.72097966      10.32912834       5.92598176      -0.01092552       0.00575215       0.00964783
C        1.17288050      11.72405748       5.82792672       0.00194743       0.01005560       0.00177518
C        3.73273853       9.22106310       6.34648929      -0.01470876      -0.00549805       0.00362913
C        5.78464616       8.16058237       6.61230003      -0.01443280      -0.00438759      -0.00196111
H        1.53686822       9.77077327       5.01100789      -0.02431667      -0.00194168       0.01747352
H        1.28200451       9.75707952       6.74373444      -0.00800528       0.01793060       0.01889476
H        0.09763666      11.65867878       5.66195642      -0.00115006       0.02136420       0.01889548
H        1.35257253      12.29401312       6.74058140       0.02293715       0.01800821      -0.00751331
H        1.59544262      12.26555755       4.98407087      -0.00460514      -0.00432488      -0.01057020
H        5.35532428       7.55371296       7.40583889      -0.00567919       0.00213738       0.00715262
H        6.79204141       8.47113612       6.85971482      -0.01066726      -0.00525698      -0.01658019
H        5.76498253       7.62006393       5.66961278      -0.02654374      -0.00984040       0.00190884
O        5.95003421       9.38237040       9.33293857      -0.00379965       0.01552197      -0.00116550
O        3.93013005      10.06729907       8.98037849      -0.00414880       0.01755995       0.00564868
O        4.76091601      10.21655833      11.07567658       0.00561774       0.02232853       0.00082552
C        7.00048647       8.98902050      10.24572884      -0.00048220       0.01825975      -0.00381577
C        8.15940747       8.45814494       9.44937829      -0.00319549       0.01790026      -0.00646412
C        4.87583727       9.91796807       9.91354354       0.00014610       0.01860392       0.00162435
C        2.69498602      10.59956695       9.46039936      -0.00024708       0.01997127       0.01264720
H        7.26656693       9.84795606      10.86333554       0.00062149       0.01916590      -0.00612828
H        6.61657146       8.20539258      10.89322640       0.00179617       0.01967940      -0.00148591
H        8.91421270       8.08719668      10.14473736      -0.00231581       0.01651121      -0.00873818
H        7.84490881       7.62492820       8.82393767      -0.00551225       0.01938629      -0.00684682
H        8.59767334       9.22325316       8.80966064      -0.00324347       0.01772681      -0.00629582
H        2.22158314       9.88930535      10.14027714       0.00376536       0.02155408       0.01653571
H        2.08386079      10.74254847       8.57577383      -0.00596522       0.02018642       0.01719546
H        2.86140503      11.54552656       9.97270396       0.00495832       0.01952264       0.01084541
O        9.33555932       7.53210064       6.52282637       0.00637323       0.00347768      -0.00268504
O        8.92182804       9.60907343       6.10920706       0.00486267       0.00272391      -0.00419347
O       11.08508894       8.94150553       6.21605214       0.00454187       0.00328584      -0.00776639
C       10.26144122       6.46638683       6.83197067       0.00831413       0.00518861      -0.00423133
C        9.45045706       5.30145559       7.33641916       0.01242873       0.00587392       0.00234471
C        9.90202524       8.71542383       6.27147536       0.00516438       0.00316162      -0.00505434
C        9.37205006      10.95512477       5.89273868       0.00556383       0.00199307      -0.00506305
H       10.82243670       6.21950580       5.92789838       0.00432907       0.00341144      -0.00583360
H       10.97092473       6.82715177       7.57727370       0.01088080       0.00799224      -0.00861058
H       10.10517713       4.44036658       7.47900830       0.01504180       0.00907804       0.00761612
H        8.97336483       5.53282990       8.28911746       0.01190655       0.01019858       0.00064212
H        8.67698718       5.02759020       6.61916308       0.01380621      -0.00108085       0.00382853
H       10.03345888      11.26804626       6.69940602      -0.00011922       0.00392550      -0.00152582
H        8.47033251      11.55930949       5.88167286       0.00612004       0.00200277      -0.01226508
H        9.90137201      11.03428379       4.94537911       0.01145531      -0.00023788      -0.00152245
O        3.05161839       9.62350431       2.94950734      -0.01795217       0.02467982      -0.00385219
O        4.89796118      10.69246837       3.36525911      -0.01009418       0.02397601      -0.01054156
O        4.80199506       8.47386546       3.78693441      -0.01470298       0.02262127      -0.00767156
C        2.32236863       8.37563259       2.94873584      -0.00283521       0.01337001       0.00071102
C        0.94639795       8.66874594       2.41691210      -0.00294185      -0.00055707      -0.00112160
C        4.30582449       9.50544723       3.41182142      -0.01127273       0.01899725      -0.00517631
C        6.25622375      10.68220619       3.84082557      -0.01163206       0.02082209      -0.00475308
H        2.85242978       7.65999424       2.31810474       0.00501972       0.01718813       0.00520650
H        2.30430941       7.97596256       3.96449403       0.00131020       0.01748733       0.00110453
H        0.34441636       7.75892574       2.42195845       0.00227929      -0.00342730       0.01006116
H        0.44768542       9.42389389       3.02437431      -0.00480976       0.00403607      -0.00809842
H        1.00938223       9.03534746       1.39153304      -0.00548169      -0.01189230      -0.00552113
H        6.25869761      10.57086981       4.92246446      -0.01519986       0.03436159      -0.00358385
H        6.67142026      11.63893206       3.53928556      -0.01053036       0.01688913      -0.01122183
H        6.81052246       9.86948026       3.38294313      -0.01051007       0.01532283       0.00641751
O        8.34653057       9.72666597       1.24246877       0.00710210      -0.00274665       0.00586291
O        6.26327693       9.22712887       1.07997862       0.00515214       0.00568353       0.00122204
O        7.79600620       7.62591130       0.58887133      -0.00103527       0.00207472      -0.00286540
C        9.73447986       9.37372392       1.12725897       0.00688373      -0.00478655       0.00492764
C       10.51492757      10.64468401       1.33844041       0.00863256      -0.00432971      -0.00529239
C        7.48748012       8.73409900       0.94472542       0.00495909      -0.00039601       0.00049558
C        5.19398279       8.30534162       0.83224327       0.00422718       0.00833780      -0.00211104
H        9.97172240       8.61295253       1.87349833       0.00632307       0.00067085       0.01029101
H        9.91007256       8.93547873       0.14234143       0.00362873      -0.01118365       0.00782293
H       11.58694934      10.44751211       1.30421736       0.00834312      -0.00340448      -0.00551889
H       10.23275777      11.37414575       0.57470781       0.01245279      -0.00850218      -0.00982733
H       10.31885648      11.09895639       2.30840388       0.01099406       0.00356274      -0.00900811
H        5.27732130       7.88447345      -0.16424247       0.00805636       0.00571217      -0.00031620
H        4.29362103       8.90550487       0.88491509       0.00580314       0.01055360      -0.00652737
H        5.21917351       7.52917404       1.59029938      -0.00124286       0.01038399      -0.00061134
O        5.27208822       4.39741646       3.24527481      -0.00094128       0.00088973      -0.01686759
O        7.37768948       4.30946891       3.78036866      -0.00258684      -0.00915873      -0.01536276
O        6.53849723       6.25406140       2.99472663       0.00451401       0.00122225       0.00374910
C        4.10379250       5.20247260       2.94488722      -0.00035921       0.00506181      -0.00348750
C        2.89668267       4.30637975       2.94458282      -0.00244600       0.00159621      -0.00670488
C        6.39796346       5.10119627       3.31083635       0.00149492       0.00289285      -0.01033637
C        8.65592984       4.96211272       3.79251390      -0.00223020      -0.01093167      -0.01173610
H        4.03909543       5.99028022       3.69336456       0.01131544       0.01072356      -0.00821739
H        4.25502992       5.65842151       1.96871127       0.00454400       0.01327126       0.00032932
H        2.02877970       4.87491240       2.60538149      -0.00093875       0.00629275      -0.00415660
H        3.02369214       3.45138654       2.28231741       0.00794001       0.00060128      -0.00342105
H        2.68095284       3.94169291       3.94496342      -0.02045345      -0.02711688      -0.02039135
H        8.95437656       5.22509876       2.77818206      -0.00382099      -0.00737784      -0.01058555
H        9.34526568       4.24302148       4.22668580      -0.00346742      -0.01375476      -0.01538311
H        8.61199026       5.87047961       4.39282459      -0.00275697      -0.01420283      -0.00807071
O        7.44008614       2.61220861      11.57429881       0.01306455      -0.00635713       0.00576020
O        5.72040922       3.91154033      11.77808946       0.01678114      -0.00342143       0.01340676
O        7.73345836       4.84232109      11.32313967       0.01478088      -0.00790811      -0.00049530
C        8.85617039       2.45849096      11.37401259       0.01159342      -0.00876009      -0.00031519
C        9.11631515       0.98103908      11.23341213       0.00904781      -0.00859126      -0.00016868
C        7.03252175       3.88722550      11.54432299       0.01521164      -0.00570327       0.00554462
C        5.19838980       5.24745731      11.87219102       0.01980913      -0.00238274       0.01231655
H        9.15355244       3.01759868      10.48561645       0.00856830      -0.01064372      -0.00196314
H        9.37503431       2.89138527      12.23254543       0.01571171      -0.00957331      -0.00283870
H       10.19130704       0.80826726      11.12617044       0.00764910      -0.01125718      -0.00642922
H        8.75250742       0.43791141      12.10440066       0.01729987      -0.00696936       0.00344008
H        8.62895029       0.57829169      10.34565589       0.00026214      -0.01031419       0.00565329
H        5.69850312       5.76759771      12.68341838       0.03241634       0.00309256       0.00092709
H        4.13440282       5.12898505      12.05561683       0.02298337      -0.00056988       0.02995951
H        5.34801240       5.78213887      10.93659190       0.00611683      -0.00896922       0.00667962
