144
Lattice="13.370651622111927 0.0 0.0 0.0 13.370651622111927 0.0 0.0 0.0 13.370651622111927" Properties=species:S:1:pos:R:3:forces:R:3 energy=-902028.0 stress="-0.0004290566430427134 9.379995026392862e-05 -0.00015405205340357497 9.379995026392862e-05 -0.0006983705097809434 0.00017003626271616668 -0.00015405205340357497 0.00017003626271616668 -0.0008035292266868055" pbc="T T T"
Nd      13.14687547      13.80767287       0.18357843      -0.00000000      -0.00000000      -0.00000000
I        1.04841049      13.47789875       5.44156831      -0.00005699       0.02569224       0.02738198
I        4.01554542      13.78044081       5.61021776       0.00515191      -0.02765546      -0.02670345
I       11.53826306      13.16265866       5.38688180      -0.01246656       0.00932347      -0.01214539
C        1.63811329       7.05647517       8.51856694      -0.00953507       0.00518715       0.00149609
C        2.72395250       7.73575825       7.69559245      -0.00550920       0.00028628       0.00440404
C        1.98327146       5.63355356       8.93637051      -0.01142699       0.00594312       0.00776623
C        2.37756729       9.16972539       7.31675692      -0.00447866      -0.00104037      -0.00274636
C        0.88248655       4.97776480       9.75753969      -0.01578972       0.00920318       0.00767648
C        3.46581340       9.85039547       6.50381159      -0.00143784      -0.00317436      -0.00320764
H        1.43764993       7.65573164       9.41442474      -0.01308984       0.00771771      -0.00161073
H        0.70219346       7.04958870       7.94730566      -0.00610286       0.00217734      -0.00312896
H        2.91151044       7.15533123       6.78402927      -0.00268374      -0.00282811       0.00763214
H        3.66715988       7.72611080       8.25529693      -0.00800923       0.00205312       0.00780174
H        2.18892464       5.03363213       8.04414222      -0.00998343       0.00109890       0.01063690
H        2.91576112       5.64474415       9.50993507      -0.01300937       0.00616342       0.01148415
H        1.43696046       9.17762688       6.75652740      -0.00279415      -0.00244404      -0.00667235
H        2.18564130       9.74534348       8.22773349      -0.00623673       0.00333655      -0.00524914
H        0.68233125       5.54946904      10.66617330      -0.01590384       0.01264137       0.00631867
H        1.14748943       3.96291691      10.05192171      -0.01866706       0.00867876       0.00960548
H       -0.04865253       4.92510923       9.18937430      -0.01466985       0.01040514       0.00479610
H        4.40198433       9.89164253       7.06428519      -0.00250253      -0.00204774      -0.00082864
H        3.66195607       9.30602662       5.57650886       0.00130905      -0.00803714      -0.00068255
H        3.19512914      10.87244724       6.24021157      -0.00134493      -0.00321570      -0.00459100
C        9.77717679       8.53946968      12.59583520      -0.00003219       0.00165921       0.01317152
C        8.46703734       9.31876151      12.58143442      -0.00065631      -0.00117865       0.00898429
C        9.58850669       7.02604042      12.58337967      -0.00065529       0.00159377       0.01243552
C        8.65784333      10.83083626      12.53055603      -0.00087124      -0.00100520       0.00926986
C       10.90549410       6.26367363      12.52172362       0.00083035       0.00170699       0.01205912
C        7.34317132      11.59462389      12.44764173      -0.00098458      -0.00150217      -0.00523802
H       10.37737433       8.83250686      11.72709751       0.00223483       0.00159536       0.01489168
H       10.36435976       8.82578723      13.47632260      -0.00326890       0.00192934       0.01485249
H        7.87330923       9.05715381      13.46518252      -0.00314474      -0.00108732       0.00611058
H        7.87068243       9.00575714      11.71610105       0.00351736      -0.00192557       0.00676677
H        9.02724580       6.72388717      13.47334055      -0.00086406       0.00109047       0.01288787
H        8.96667451       6.74981506      11.72588170      -0.00077480       0.00200935       0.01187718
H        9.22123084      11.15265679      13.41230937      -0.01013155       0.00068656       0.01547232
H        9.28047208      11.08391290      11.66629881       0.00832453      -0.00118198       0.01559553
H       11.47274486       6.53231496      11.62755789      -0.00072011       0.00356740       0.01060650
H       10.74861035       5.18408750      12.49803198      -0.00112978       0.00185406       0.01219567
H       11.53269604       6.49319188      13.38552611       0.00079419       0.00268076       0.01231825
H        6.79529669      11.33286441      11.53994173       0.00991375      -0.00249202      -0.01206785
H        6.69807336      11.36240441      13.29675102      -0.00958579      -0.00325048      -0.01160568
H        7.50232500      12.67372939      12.43955184       0.00086465      -0.00176960      -0.00415562
C        6.90047205       2.92336811       8.81585264       0.00483444      -0.00440979       0.00295377
C        5.58753642       2.26949674       9.22463496       0.00667658      -0.00678235       0.00276175
C        8.11296625       2.34450355       9.53458316       0.00472381      -0.00477010       0.00368541
C        4.37640757       2.85707511       8.51391014       0.00687110      -0.00647902       0.00251406
C        9.42310336       3.00562998       9.12952117       0.00547829      -0.00435857       0.00000799
C        3.07786666       2.17194186       8.91039064       0.00358382      -0.00788608       0.00176688
H        7.03295489       2.81021715       7.73426618       0.00543574      -0.00477607       0.00344905
H        6.84429043       4.00271565       9.00411877       0.00484594      -0.00481156       0.00398532
H        5.45556345       2.36256074      10.30963195       0.00656199      -0.00591119       0.00192168
H        5.63899370       1.19579388       9.01281771       0.00546754      -0.00643194       0.00131803
H        7.96884628       2.44228271      10.61583127       0.00621196      -0.00278535       0.00398970
H        8.16516774       1.27054193       9.33105867       0.00612026      -0.00519061       0.00482405
H        4.32024378       3.92969044       8.72320548       0.00006193      -0.00799495       0.01189779
H        4.51396116       2.75551620       7.43414750       0.00653880       0.00189078       0.00175974
H        9.58856619       2.91493902       8.05424581       0.00229073      -0.00461624      -0.00113520
H       10.27800564       2.55446995       9.63506607       0.00722642      -0.00165321      -0.00033772
H        9.41837864       4.07071849       9.37304353       0.00292169      -0.00371556      -0.00098605
H        3.12891754       1.10462159       8.68934715      -0.00041964      -0.00228065      -0.00363129
H        2.88188146       2.28824498       9.97889524       0.00078407      -0.01187510       0.00522690
H        2.22274942       2.56980134       8.36242754       0.00798959      -0.00780654       0.00326976
C        8.56004654      10.60041908       5.63574579       0.00313774      -0.00167000      -0.00436571
C        8.84278485       9.16910949       5.20055075      -0.00191689      -0.00132251      -0.00517538
C        7.32146298      10.76124364       6.50698721       0.00270480       0.00431138      -0.00503774
C       10.10436417       9.04872730       4.35407316       0.00002402       0.00158849      -0.00480986
C        7.15505746      12.18680975       7.00974278       0.01176998       0.00342482       0.00688650
C       10.45368706       7.60995016       4.00238507      -0.00195602      -0.00401613      -0.00744855
H        9.43381140      10.98914683       6.17104546       0.00240159      -0.01104029       0.00243412
H        8.46222541      11.23861043       4.75116986       0.01125364       0.00277855      -0.00241944
H        7.98507394       8.77072951       4.64403625      -0.00003853       0.00104052      -0.00750065
H        8.94604078       8.53362965       6.08842971      -0.00198264      -0.00238135      -0.00940236
H        6.43196737      10.46337034       5.94411797       0.00136134       0.00994752      -0.00575016
H        7.38012085      10.07571434       7.35889530      -0.00310418       0.00105940      -0.00576195
H        9.97891757       9.63750753       3.43996851       0.00191908      -0.00096309      -0.00575155
H       10.93646840       9.51407428       4.89181703      -0.00045404      -0.00192933      -0.00569895
H        8.01938895      12.49011474       7.60514425       0.01547249      -0.00567796       0.01179893
H        6.25595419      12.30064899       7.61601702       0.01095076       0.00727649       0.00512613
H        7.06936977      12.88321991       6.17341518       0.01144600       0.01023977       0.01291251
H       10.62268412       7.01820223       4.90506758      -0.00414252      -0.00159664      -0.00532350
H        9.64544316       7.13125377       3.44502628      -0.00524417      -0.00314700      -0.00518745
H       11.35809640       7.54958728       3.39479404      -0.00289021      -0.00264721      -0.00749305
C        4.34608891       4.18204218       4.53654795       0.00207651       0.00672102       0.00283766
C        3.26233568       5.00220074       3.85277757       0.00079636       0.00571156       0.00457299
C        5.68001094       4.17939291       3.80014846       0.00021717       0.00623661      -0.00149059
C        1.92232511       4.93300425       4.57684369       0.00158037      -0.00484571       0.00460613
C        6.72973985       3.33125166       4.50617435       0.00430954       0.00774789      -0.00310269
C        0.85147243       5.79696956       3.92811652      -0.00413212      -0.00567740       0.00968839
H        4.49578338       4.56046903       5.55502782       0.00666750       0.01073666       0.00028530
H        4.00197689       3.15010212       4.65070409       0.00256833       0.00654149       0.00636116
H        3.13281847       4.65007562       2.82206220       0.00176508       0.00998536       0.00409183
H        3.58353006       6.04818824       3.77800043      -0.00435167       0.00747699       0.00966867
H        5.52677876       3.80136947       2.78402753      -0.00111937       0.00586845      -0.00185576
H        6.04258305       5.20740227       3.69068679      -0.00055723       0.00636071      -0.00308761
H        1.59161213       3.89050741       4.62154352       0.00654045      -0.00697735      -0.00307916
H        2.06320186       5.24849941       5.61567522      -0.00023587      -0.01178224       0.00799492
H        6.90429520       3.69634122       5.52013775       0.00942259       0.01208588      -0.00523673
H        7.68497620       3.33903890       3.97884121       0.00141825       0.00671709      -0.00869779
H        6.39469801       2.29529666       4.58864765       0.00106035       0.00866739       0.00232485
H        1.15620869       6.84583405       3.90789765      -0.00884315      -0.00367068       0.01654347
H        0.67236304       5.49143972       2.89489136      -0.00231723      -0.00263060       0.00842755
H       -0.09868147       5.73924183       4.46091533      -0.00234781      -0.01651371       0.01157525
C        2.80197703       9.57435773       1.92565921      -0.01027381       0.01441735      -0.02283812
C        4.27627117       9.82662886       2.21300662      -0.00445992      -0.00733083      -0.02802148
C        2.50815994       8.17443754       1.40324934       0.00846130       0.00802588      -0.03120784
C        4.54571385      11.24376625       2.69897917       0.01300126       0.00897449      -0.00370698
C        1.03825475       7.95972825       1.07084320      -0.01145381      -0.00512660      -0.01939858
C        6.00968144      11.50134059       3.01808243      -0.00301197       0.00516373      -0.00103597
H        2.22333064       9.75307876       2.83898258      -0.01456256       0.00637594      -0.00447613
H        2.44936871      10.31381373       1.19646067      -0.00176538      -0.01027790       0.01517645
H        4.86198307       9.62635371       1.30703713       0.00256218       0.00154144       0.00116014
H        4.63194421       9.11060553       2.96415569      -0.00948207      -0.00772725      -0.00386146
H        3.11806590       7.99013256       0.51238833      -0.01347458      -0.00531990      -0.00703463
H        2.83040390       7.43682589       2.14310004       0.00164299      -0.00464407      -0.00006416
H        4.19941562      11.95554741       1.94285586      -0.00149316       0.01064496      -0.01745540
H        3.94482529      11.44461992       3.59031014       0.00614734      -0.00866139      -0.02025813
H        0.40632301       8.14231002       1.94297217       0.01500495      -0.00412083      -0.02246484
H        0.84639364       6.94066818       0.73080955      -0.00384356       0.01361990      -0.00111591
H        0.71217474       8.64050394       0.28243217      -0.00743994       0.01852183      -0.01909626
H        6.36426084      10.80860437       3.78168457       0.00409709      -0.00606200      -0.00346516
H        6.64764455      11.37242595       2.14095133      -0.00432577      -0.00792982      -0.01021729
H        6.15787116      12.51332738       3.39848844      -0.00503273      -0.01727104       0.00202796
C       11.29880744       9.77884511       8.95664900       0.00441247      -0.00329950      -0.00256223
C        9.86656526       9.26356091       8.92980262       0.00090718      -0.00006115      -0.00024793
C       11.38758457      11.30021973       8.99210070       0.00063166      -0.00411391      -0.00063907
C        9.75311613       7.74430574       8.91864875       0.00780874      -0.00219792      -0.00770361
C       12.81908279      11.80955434       8.93911614      -0.00450045       0.01389268       0.00026271
C        8.31233074       7.24965633       8.93278502       0.00460202       0.00187530      -0.01103871
H       11.82673793       9.36142156       9.82329482       0.00509448      -0.00472924      -0.00810653
H       11.83310144       9.40923779       8.07362135      -0.00171494      -0.00383544      -0.00786966
H        9.36522143       9.67022685       8.04879844      -0.00390555       0.00054738       0.00140440
H        9.31872922       9.65989300       9.79265869       0.00737889      -0.00682449       0.00347909
H       10.83265011      11.71549921       8.14517907       0.01026756      -0.00385153       0.00116873
H       10.89016125      11.66929478       9.89627783       0.00865093      -0.00770228       0.00657836
H       10.27000888       7.35068994       8.03686484       0.00402564       0.00070947      -0.00969917
H       10.28758766       7.33858910       9.78319116       0.00096422      -0.00725625      -0.00607166
H       13.41384321      11.40165429       9.76015441       0.00322343      -0.00560404      -0.00562218
H       12.85923011      12.89706465       8.99878039      -0.00578766       0.01591206      -0.00083992
H       13.29555332      11.52809387       7.99833456       0.01035933      -0.01567617       0.02305630
H        7.77383424       7.64113222       9.79847181       0.00139175       0.00073109      -0.01099153
H        7.77257392       7.57219173       8.04038437       0.00605976       0.00926146      -0.00960912
H        8.25995694       6.16089790       8.97653506      -0.00402524       0.00357172      -0.01715782
