150
Lattice="12.442833889931444 0.0 0.0 0.0 12.442833889931444 0.0 0.0 0.0 12.442833889931444" Properties=species:S:1:pos:R:3:forces:R:3 energy=-385546.25 stress="0.0009182004141621292 -2.724284877331229e-05 -0.0010774340480566025 -2.724284877331229e-05 0.0010527587728574872 0.0008827741839922965 -0.0010774340480566025 0.0008827741839922965 0.00019571730808820575" pbc="T T T"
Nd      13.57287762      11.34683388       1.56146188      -0.00176491      -0.00129588      -0.00068531
O        7.18145251      11.89292684       0.60558462      -0.00200310       0.00173306      -0.00095424
O        5.24048507      11.18240800       1.39340520      -0.00391549      -0.00139213      -0.00831615
C        6.91493874       9.54526100       1.04203346       0.00217280       0.00192821      -0.00036705
C        6.46189673      10.95278701       0.97789701      -0.00110215       0.00129238      -0.00316402
H        7.43358528       9.45004046       2.00424558       0.00744322       0.00490962      -0.00304246
H        7.62416800       9.34696585       0.24046834      -0.00030473       0.00190146      -0.00281261
H        6.07849454       8.85366207       1.00246073       0.00366423      -0.00040746       0.00406480
O       13.41428590      11.23866077       3.60309370       0.00021887       0.00704983       0.00025636
O       13.09117883       9.60134150       5.08586510       0.02178356       0.00622153       0.00235686
C       12.02193511      11.70816824       5.50227425      -0.00727063      -0.00949305      -0.00054163
C       12.88287227      10.74041057       4.74870254       0.00694320      -0.00023949       0.00119203
H       10.99600131      11.32736991       5.47938097      -0.00242755      -0.02150233      -0.00527936
H       12.05860918      12.71099420       5.08256516      -0.01815600      -0.00841589       0.00082961
H       12.33089005      11.73524251       6.54713890      -0.01058795      -0.00729916       0.00047266
O        8.72822867      10.34528025       3.54176204       0.02930850       0.01324445       0.00081754
O        9.09046820       9.71874350       5.66300189      -0.00508189      -0.04703236      -0.01273322
C        7.18136959      11.09370826       5.18295844       0.02647185       0.00176990       0.00285062
C        8.43616432      10.31221915       4.78116842       0.01612914      -0.01178908      -0.00404248
H        6.87525669      10.87492184       6.20405261       0.02708805       0.00223333       0.00331344
H        6.36171268      10.88362284       4.49124875       0.02271258       0.01012615       0.00450548
H        7.38503688      12.16503425       5.09995429       0.03760120      -0.00072727       0.00166538
O        9.60428235      11.61311109       0.31084263      -0.00020941       0.00130042       0.00055237
O       11.54606192      12.11682289       1.16895950       0.00084461       0.00389249      -0.00294537
C        9.61007708      12.91623251       2.32803398       0.00121516       0.01523715      -0.00863531
C       10.27898309      12.19975027       1.21871937      -0.00034712       0.00615029      -0.00374635
H        8.73899653      13.46800087       1.98115900       0.00244740       0.01467514      -0.01293201
H        9.23551899      12.11049064       2.98904754       0.00032380       0.01991537      -0.00331944
H       10.29554627      13.56095497       2.86867098       0.00233462       0.01785542      -0.01305728
H        8.53464599      11.69390123       0.43431510       0.00044909       0.00244318       0.00014277
O        4.58994844       1.21220148       1.25626247      -0.00178355      -0.00258649      -0.01112556
O        2.48028249       0.52225627       1.08321826      -0.00173393      -0.00387570      -0.00911747
C        2.94274491       2.84662171       0.71794910      -0.00212264      -0.00420874      -0.01530424
C        3.40490128       1.45644124       1.03428931      -0.00210333      -0.00345501      -0.01155508
H        2.37096697       3.22059776       1.57230163      -0.00160289      -0.00156182      -0.01611182
H        3.80220762       3.48316184       0.53137406      -0.00190458      -0.00490533      -0.01729383
H        2.28806575       2.84659119      -0.15359150      -0.00235032      -0.00672215      -0.01515305
H        5.03009087      -0.25961324       1.35696679      -0.00510912      -0.00114414      -0.00981943
O        8.01642274       5.43006304       1.85983517      -0.01130545       0.01436631       0.00530773
O        7.60615318       4.42986002       3.80484701      -0.00237575       0.00479481       0.00187033
C        5.97932777       4.24122833       2.04621174      -0.00431752       0.00217369       0.00343733
C        7.25589643       4.69111881       2.66466033      -0.00544313       0.00715829       0.00345540
H        5.81412329       4.73126723       1.09089516      -0.00531092       0.00033438       0.00263441
H        5.98930788       3.15735718       1.91285259      -0.00101570       0.00197959       0.00508736
H        5.16723481       4.48034709       2.73381978      -0.00560801       0.00066867       0.00261599
H        8.81533190       5.70618767       2.36029363      -0.01042318       0.01613844       0.00495106
O       10.06271754       3.26651072      12.15477845      -0.00363034       0.00769573       0.00157455
O       10.16505997       1.89334894      10.40090588       0.01775032       0.00641140       0.00469655
C        8.04331219       2.22839607      11.50478817       0.00925022      -0.01220876      -0.00716250
C        9.50622388       2.40979391      11.27851208       0.00925827       0.00110587      -0.00061381
H        7.79020218       2.29517208      12.56025914       0.00426383      -0.02181953      -0.00770551
H        7.50954858       3.03469920      10.99508915       0.00420028      -0.01281270      -0.00270903
H        7.71178822       1.27928089      11.09410323       0.01896073      -0.01202983      -0.01510750
H       10.98749117       3.37931518      11.88700404      -0.00313073       0.01570819       0.00646779
O       10.92963482       4.58913679       7.07628716       0.00364393       0.00431287       0.00626409
O       11.10585457       5.06972401       4.94047488      -0.00970510      -0.01118770       0.00339186
C        9.64238880       6.41439959       6.31006078       0.00783366       0.00703841       0.00475761
C       10.60770738       5.33312040       6.05466289      -0.00074074       0.00006020       0.00518738
H        9.40397835       6.47824586       7.36675954       0.02400635       0.02146597       0.00728962
H        9.98569861       7.38362338       5.93845210       0.00422513       0.00159982      -0.01280560
H        8.73845936       6.16291949       5.75025355      -0.00219861       0.00414082       0.02177389
H       11.43314441       3.82240564       6.75570036      -0.00520539      -0.00105876       0.00542378
O        2.48644195       6.49869997       2.35747271      -0.00485126       0.00781071       0.00444829
O        4.41498253       7.26715819       1.51463103      -0.01294327       0.00948785      -0.01463026
C        3.40549348       8.37452030       3.41415392       0.00681260       0.00456417      -0.00050765
C        3.52799893       7.35488311       2.32883208      -0.00584900       0.00739222      -0.00375652
H        2.39006509       8.76552587       3.48407721       0.00832504       0.00722994       0.00923957
H        3.59667703       7.87234418       4.36328844       0.01286303       0.00133057      -0.00331125
H        4.12591127       9.17423550       3.26355582       0.00777164       0.00320314      -0.00402594
H        2.57880070       5.87271740       1.62510439      -0.01392363       0.01039657       0.00036126
O        6.26540572       9.65984218       8.36301226      -0.00416765      -0.00481027      -0.01382332
O        5.76669365       9.56084184      10.54577391      -0.00453970      -0.01826751      -0.01399612
C        5.52505376      11.65244940       9.36493628       0.00572853      -0.00788373      -0.00013446
C        5.86260166      10.20523028       9.52552843      -0.00170021      -0.01073849      -0.01032007
H        6.37639096      12.16165033       8.91538870       0.00884621      -0.00906633       0.00433494
H        4.67266451      11.75315457       8.68992112       0.00694534       0.00146556      -0.00019473
H        5.28654274      12.09346884      10.32806534       0.00726469      -0.01270090       0.00265637
H        6.54927667       8.75316840       8.54783007      -0.01690508      -0.01065376      -0.02253917
O        0.90366421       9.14568424       1.16793546      -0.00200662      -0.00090116       0.00819221
O        1.53696667       7.60981203      -0.35023878      -0.01753290       0.01097012       0.01349422
C        2.64832469       9.75411383      -0.30632922      -0.01445717      -0.00661087      -0.01017079
C        1.65075030       8.70321705       0.14524847      -0.01525858      -0.02476919      -0.00553370
H        2.11672172      10.60103372      -0.77480902      -0.01763517      -0.00808955      -0.00755378
H        3.22538906      10.13900989       0.55099021      -0.00672725      -0.00496285      -0.01729570
H        3.37494221       9.38353231      -1.02573471      -0.02279887      -0.01137893      -0.01599854
H        0.18848537       7.99055172       2.08918295      -0.00603669      -0.00601199       0.01493415
O        1.88265422       9.93547021       8.03551764      -0.02352613      -0.00785458       0.02656057
O        1.12826168       7.85710108       8.43619720      -0.02198201      -0.01208764       0.00210190
C        3.28160378       8.14234629       7.39990828      -0.02519137       0.00002611       0.00185481
C        1.98309751       8.58830547       7.99619673      -0.02598774      -0.00897831       0.01067048
H        3.66700852       8.87042417       6.68897570      -0.03333677       0.00404902       0.00154278
H        4.01643239       8.04853557       8.20300804      -0.02027634       0.00200681      -0.00222695
H        3.15222301       7.16890657       6.93224152      -0.02262387       0.00082591      -0.00059955
H        1.00366289      10.14451909       8.38527790      -0.02299815      -0.01034127       0.02987808
O       10.91120944       6.39036848      10.17223316       0.00750303      -0.00752103      -0.01333790
O        9.98119017       8.15686080      11.20035151       0.02328368      -0.01433194      -0.00391835
C        8.62270599       6.22546988      10.75274260       0.00886333       0.00678283      -0.00165685
C        9.87734266       7.04639105      10.74014471       0.01779170       0.00919324       0.00042099
H        8.57630315       5.55884362       9.89286099       0.00125250       0.00891753      -0.00233227
H        8.62096519       5.60966835      11.65564366       0.00620163       0.00623524      -0.00239804
H        7.75665582       6.88242971      10.79333853       0.01502256       0.01451695       0.00123493
H       11.69374565       6.96564165      10.21253426       0.01280805      -0.01093066      -0.01678360
O       10.23266065       6.44961378       3.18616442      -0.00638190      -0.01281098      -0.00375462
O       12.18628310       7.30038309       2.67743272      -0.00555098      -0.00543988       0.01173198
C       10.19826417       8.36763135       1.81505775      -0.00185099      -0.00814226       0.00107670
C       10.89658825       7.32958002       2.57328604      -0.00708652      -0.01004627       0.00277802
H        9.32743014       7.94421776       1.32072163      -0.00420144      -0.00416434       0.00139315
H        9.81098826       9.09959441       2.56128347       0.00358313      -0.00380591      -0.00012350
H       10.82720042       8.85622087       1.07809690       0.00055297      -0.01260373       0.00017338
H       10.75422627       5.74747879       4.06806523      -0.00497847      -0.01933494       0.01301290
O        6.72664124       3.24633477       6.02017280       0.00822195       0.00679947       0.00469142
O        8.90217862       2.67833424       6.00058284       0.00892031       0.00854851       0.00319374
C        7.72748924       2.75535058       8.09467608       0.00279241      -0.01920687       0.00089341
C        7.87409362       2.86641047       6.60735396       0.00599307       0.00005341       0.00277191
H        7.50942103       3.75015588       8.49288868       0.01368195      -0.02235220       0.01434845
H        6.88759206       2.11459967       8.36757340      -0.00455832      -0.01330726      -0.00865121
H        8.64227477       2.37579336       8.53606525      -0.00200969      -0.03433188      -0.00221536
H        6.93459646       3.52401300       5.08855164       0.00803725       0.01195304       0.00544614
O        4.63889339       4.22738759       8.02764185       0.01147079       0.01533985      -0.00045522
O        4.56800259       3.06004543       9.94223801       0.01565879      -0.00164425      -0.00290653
C        4.00373760       5.41168253       9.96831913      -0.00279590      -0.00006956       0.00461823
C        4.42130355       4.10790619       9.37126043       0.00712037       0.01492393      -0.00424230
H        4.76293639       6.17020627       9.76690213      -0.00767004       0.00763018       0.01293760
H        3.07674732       5.76332311       9.51043766      -0.00385025      -0.00311512       0.00319874
H        3.86720925       5.31322071      11.03997761      -0.00671512      -0.00628059       0.00370917
H        4.94326893       3.37528028       7.67611088       0.02033338       0.02182299      -0.00549795
O        1.60481702       5.59816927       4.90647716      -0.00485924      -0.00146127      -0.00113797
O        1.39961559       3.93308428       3.41579091       0.01089358      -0.00340527      -0.00192988
C        2.42745133       3.48406717       5.53935632       0.00175959       0.00253713       0.00414491
C        1.75301118       4.32905552       4.50506208       0.00348821      -0.00084399       0.00055927
H        3.49527900       3.71153967       5.49467288       0.00175107       0.00315477       0.00538202
H        2.09107923       3.73664373       6.54385288      -0.00040314       0.00511167       0.00279896
H        2.26895149       2.43170269       5.32160516       0.00332212       0.00164375       0.00698032
H        1.28811340       6.10467680       4.13897433      -0.00157423      -0.00236746      -0.00323558
O       10.84624841      11.96417012       9.06048278       0.00508657       0.00355357       0.01202239
O        8.76768492      11.19339493       9.39517480      -0.00291204       0.02108464       0.00469112
C       10.44133752       9.72792413       8.45121136      -0.01328221       0.00765270       0.00733104
C        9.89914202      11.00297820       9.01383868      -0.00279987       0.01150221       0.00800720
H       10.82202449       9.89073252       7.44357221      -0.01449983       0.00415670       0.00609177
H       11.25181009       9.36117913       9.08398503      -0.01472005       0.00142148       0.00538555
H        9.65278373       8.98571471       8.39605387      -0.01826072       0.01280814       0.00938593
H       10.45263603      12.75571312       9.47819270       0.01095870       0.00681151       0.01165628
O        6.15100804       6.25191398       6.78959892      -0.00014955       0.02059776       0.00996271
O        4.95980615       5.84463689       4.93623189       0.00181687       0.00624019       0.01180542
C        6.61006047       7.59695775       4.90112081       0.00459245       0.00326705      -0.00036857
C        5.81495142       6.48665728       5.50611227       0.00146574       0.00967968       0.00739875
H        7.14380167       8.18726169       5.64127733       0.00857614       0.00524588      -0.00490275
H        7.34244779       7.17025201       4.21241015       0.00212835      -0.00367577       0.00118886
H        5.96012875       8.23116364       4.30427679       0.00615811       0.00247674      -0.00296032
H        5.60716724       5.50286451       7.10802714      -0.00153476       0.02301651       0.01568544
