147
Lattice="11.66949697689392 0.0 0.0 0.0 11.66949697689392 0.0 0.0 0.0 11.66949697689392" Properties=species:S:1:pos:R:3:forces:R:3 energy=-1126294.625 stress="0.001301766955293715 0.00011798882769653574 -6.947149813640863e-05 0.00011798882769653574 0.002033812692388892 0.0002525304298615083 -6.947149813640863e-05 0.0002525304298615083 0.0011061863042414188" pbc="T T T"
No      12.92401974      11.01091929       0.45542784       0.03416897      -0.02411817       0.00595230
O        4.99352819      10.06935736       1.59894064       0.02053360       0.00632304      -0.01252562
N        5.23939326      11.58020654      -0.25927557      -0.00598538       0.00030839       0.00068444
C        5.11752502      10.83766405       0.65987275       0.00456643      -0.01419011       0.01537298
O       11.16590922      11.46960884       2.20613615       0.02045809      -0.01954266      -0.01664829
N       10.28935852       9.64447961       3.51789797       0.01217043       0.01145422      -0.01478538
C       10.71398904      10.54474165       2.88135220       0.00523141      -0.02815592       0.00130391
N        9.07637928       7.24111958      10.89107018      -0.01131707       0.01070671       0.01420861
H        8.86814221       7.66719240      11.78828205      -0.01997259       0.02298562       0.00650667
H        9.88736314       7.74529810      10.54086034      -0.01664720       0.01481613       0.00820130
H        9.41974733       6.31095408      11.11404556      -0.00007271       0.01866253       0.03062776
N        2.93418209       4.71492046       1.15182974      -0.00569859      -0.00642613       0.00040349
H        2.86653945       4.86066319       2.15728579      -0.00368886      -0.00602131       0.00061512
H        2.89649022       5.62900785       0.71557623      -0.00697238      -0.00673326      -0.00048735
H        3.87328654       4.36814696       0.99052013      -0.00585170      -0.00617846      -0.00154782
N        6.35710499       3.68102610       8.49787355      -0.00075465       0.00856048      -0.00515564
H        7.32497190       3.43485601       8.31723577       0.00031756       0.00949586      -0.00129838
H        6.06500447       4.28295363       7.73471349       0.00142027       0.00767434      -0.00687341
H        5.82864052       2.81593241       8.41674752       0.00038145       0.00796109      -0.00657248
N        2.94682303       8.63574134      -0.20748696      -0.00459310       0.02010137       0.01813582
H        2.26002702       8.06926368       0.28726575      -0.00418857       0.01473182       0.01292855
H        3.68041061       8.87459542       0.45669759       0.01204287      -0.00663157       0.00953780
H        3.39365907       8.04135882      -0.90214462      -0.02566493       0.03748813      -0.00931346
N        6.92486223       6.71585562       6.45516785       0.00538401       0.00977746      -0.00408667
H        7.72108463       6.09159980       6.54227214       0.00538134       0.00992516      -0.00124919
H        7.09209456       7.48069857       7.10588509       0.00255334       0.00959823      -0.00296445
H        6.98321155       7.11762845       5.51921948       0.00906546       0.01040004      -0.00388318
N        0.64822837       3.51764711       9.93108483      -0.01031382      -0.00018382      -0.00329374
H       -0.00788680       3.01413810       9.33473585      -0.01193425      -0.00060549      -0.00169308
H        0.99235275       2.87231241      10.63216086      -0.00795902      -0.00039173      -0.00462931
H        1.44938585       3.79879907       9.37670695      -0.01188569       0.00036845      -0.00546054
N        1.08301977       8.90160445       5.61359679       0.00009083      -0.00104666       0.01199489
H        0.34749551       9.19900769       4.97655242       0.00283515      -0.00419851       0.00655849
H        1.81482424       8.45741555       5.06752021       0.00382027      -0.00080331       0.01668717
H        1.49392468       9.73942662       6.01205762      -0.00403125       0.00213670       0.00977090
N        8.16790629      11.26684924       1.28945144       0.01224668       0.02753704      -0.00843157
H        7.45964384      11.24010525       0.56447181       0.00466770       0.01834768      -0.00011180
H        8.20779104      10.34631278       1.71174606      -0.00110115       0.04065783       0.02069454
H        9.06332572      11.42671404       0.84594443       0.01105808      -0.00531158      -0.02186795
N        2.15818306       9.88135443       2.55656029       0.02454410      -0.01463571       0.02433968
H        3.17296188       9.80678164       2.52162690       0.02444683      -0.02012435       0.02684690
H        1.88720573      10.12361750       3.50234760       0.02567562      -0.00307415       0.02180994
H        1.74580436       8.96940632       2.35731444       0.02164701      -0.01513392       0.03547711
N        4.65071941       1.96331235       2.68807545       0.00834355      -0.00021645       0.00662842
H        5.04119395       1.34366597       3.39632405       0.01241669       0.00249521       0.00677878
H        5.06420319       2.88150059       2.85400114       0.00576718       0.00155363       0.00459367
H        5.01085650       1.62921283       1.79791486       0.00749269      -0.00030319       0.00637882
N        9.89549436       4.27820659       5.71767537      -0.00747935       0.00876942       0.00592941
H        9.04974873       3.94909865       5.26848261      -0.00919157       0.01857050       0.00180987
H       10.43382589       3.44905711       5.93914394      -0.01650048       0.00243876       0.00445559
H       10.43604318       4.84330119       5.05607893      -0.00035170       0.00397823       0.00760791
N        2.63886177       0.00743977      10.05358050      -0.00213084      -0.00435968      -0.01624811
H        2.47895491       0.82694780       9.47733501      -0.00982749       0.00387281      -0.00259233
H        2.65154324      -0.79713691       9.43839972      -0.00121031       0.00762358      -0.03190427
H        3.57900620       0.07586705      10.47665151      -0.00176528      -0.00438858      -0.01984584
N        0.09310189       6.15497494       4.19157805       0.00381559      -0.00080645       0.00135186
H       -0.19892102       6.58442271       3.32263037      -0.00648760      -0.00260238       0.00378186
H        1.06339001       5.87661203       4.07850940       0.00326036       0.00119003      -0.00739162
H        0.08046651       6.88489577       4.89696511       0.00822933      -0.00047283       0.00118306
N        2.42779465       3.92087281       4.21002725       0.00506623      -0.00674416       0.00158656
H        2.93103688       3.19041654       3.71173109       0.00132103      -0.00814337      -0.00043831
H        1.44047488       3.70375882       4.13168221       0.00370921      -0.00142279       0.00242151
H        2.67315034       3.80776361       5.19807280       0.00503560      -0.00987111       0.00121312
N       11.79348416       7.99191105       1.11194355       0.00541654       0.00174623      -0.00709914
H       11.56444758       6.99128598       1.04876818       0.01160882       0.00026867      -0.00556918
H       11.52035091       8.37785599       0.21014357      -0.00886093       0.00226183      -0.00242049
H       11.16202031       8.38809586       1.80687126       0.00976013      -0.00382491       0.00060075
N        2.81499618       5.82823014       9.11182183      -0.00831562       0.00224873       0.00066057
H        2.74097672       6.60146020       8.46157102      -0.03266206      -0.00564855      -0.00563740
H        3.66823758       5.97467019       9.65230314      -0.00161361       0.02033361      -0.01434892
H        2.01506933       5.87562556       9.73082485       0.00095189      -0.00521058       0.01311571
N        5.39994967      11.10702467       4.60395031       0.01012127      -0.00488786       0.01024856
H        4.46353931      11.06247129       4.99907608       0.00854182       0.01085990       0.00837906
H        5.96115671      10.44105678       5.12241717      -0.00453860      -0.02063985       0.00616965
H        5.34299835      10.74880984       3.65401772       0.00420821       0.00232865       0.00761496
N       10.60130920       6.11266059       8.39529809      -0.00068414       0.00403222       0.02049962
H        9.66316495       6.33040693       8.71611763      -0.00308602      -0.00605304       0.02077127
H       10.95980441       5.38917361       9.01386809       0.00369352       0.00154160       0.01525301
H       10.48847421       5.67797735       7.47999096       0.00380578       0.01055660       0.01688727
N        5.08822863       0.68559085       7.92944019       0.00356270       0.00512505      -0.00143206
H        4.35223434       0.10084380       7.54737155       0.00605429       0.00141621      -0.00070710
H        5.32519200       0.32633571       8.84979178       0.00631481       0.00670484      -0.00161125
H        5.89118510       0.54591751       7.32598714       0.00358330       0.00929169      -0.00265696
N        5.43174398       4.93052862       3.85216512       0.00387232      -0.00101674       0.00426009
H        5.73047599       4.71708593       4.79862232       0.00476471       0.00046177       0.00442979
H        4.42499591       5.06036114       3.91900196       0.00295117      -0.00682862       0.00353224
H        5.81502853       5.85214730       3.66432936      -0.00105793       0.00123885       0.00477592
N        1.78062460       1.72818889       1.61157802       0.01314660      -0.01510704      -0.01929533
H        2.69190595       1.69166098       2.08907766       0.00629239      -0.01448158      -0.00691274
H        1.05073767       1.65154688       2.31236614       0.00319876      -0.01030973      -0.02929148
H        1.74080032       2.67492085       1.23322441       0.02015731      -0.01693130      -0.02489624
N        9.74998247       2.52929349       8.33928935      -0.00362985       0.00104539       0.00232624
H        9.66474689       3.50471694       8.07468995      -0.00504986       0.00259961       0.00809050
H        9.22781622       2.38134410       9.20587567      -0.00599797      -0.00557902      -0.00021742
H        9.31574370       1.99135816       7.58914250      -0.00017353       0.00417276      -0.00208763
N        7.15079657       8.04241865       3.34658046       0.01851695       0.00415343       0.00331661
H        7.48002114       7.38881048       2.64576247       0.00847150      -0.00479924       0.00689099
H        7.93061607       8.66700197       3.53252004       0.02746952      -0.00469911      -0.00268573
H        6.41779171       8.59256970       2.90942193       0.02458222       0.01035535       0.00072771
N        3.08619052       3.26886415       7.21877966      -0.00557925      -0.01193820       0.00912538
H        3.11848442       4.08286065       7.83526036      -0.00113421      -0.01137580       0.00808952
H        3.82664214       2.63036160       7.50130190      -0.01254399      -0.01829766       0.01382992
H        2.21202925       2.79248034       7.41283141      -0.01140866      -0.00306476       0.00495151
N        7.37874367       9.19382257       8.95100843      -0.00158472      -0.00217521      -0.00574327
H        6.53136039       9.43099279       9.45738131      -0.00248117       0.00587544      -0.01111294
H        7.93300969      10.04336906       8.94693079       0.00514493      -0.00649821      -0.00624691
H        7.87859786       8.52748860       9.53909974      -0.00963288      -0.00371447      -0.00062241
N        9.88903633       9.42733395       6.75267806      -0.00347725      -0.00176233      -0.00591425
H       10.56568852       8.70706367       6.98573613       0.00012239       0.00122617      -0.00675693
H        9.80493489       9.38848236       5.73820091      -0.00192986       0.00010015      -0.00645018
H        8.99696281       9.13621468       7.14003077      -0.00239873      -0.00699866      -0.00771032
N       11.29871677       4.92795061       0.96592257      -0.00494339      -0.00042275      -0.00192392
H       12.11120394       4.74589650       1.54587472      -0.00097677      -0.00652171      -0.00916958
H       11.55674696       4.57848218       0.04253420      -0.01445509      -0.00282437      -0.00376805
H       10.55503757       4.32448619       1.31180430      -0.00538836       0.00349089       0.00450551
N        8.02187372       2.44967687      11.01249614      -0.01292248      -0.01211852      -0.00219648
H        8.49152796       2.71516389      11.87382537      -0.00857337      -0.01555353      -0.00344320
H        7.34363372       1.73624636      11.26038684      -0.01553787      -0.00875622       0.00004774
H        7.47876937       3.24628158      10.69504036      -0.00960142      -0.00868489       0.00053096
N        5.74281759       6.43485777       9.91105122      -0.00884739       0.00739843      -0.00870984
H        6.51329427       6.78291900      10.47314771      -0.01544479       0.00471813       0.00201239
H        5.86376374       6.87079339       9.00126575       0.00390585       0.00877191      -0.00639681
H        5.94931287       5.44831749       9.74228771      -0.00895946       0.00712778      -0.00774909
N        9.21110658       0.78891730       5.65457977      -0.00731251       0.00402087       0.00299755
H        9.98089305       1.05326940       5.04972247      -0.01074083      -0.00799759      -0.00662926
H        8.42943855       0.61888925       5.02912110      -0.01706584       0.01429754       0.01231667
H        9.46976725      -0.11733494       6.03978279      -0.01535546       0.00086899       0.00124294
N        9.28868387       2.69284401       2.42056942      -0.00156085      -0.00557633       0.00067210
H        8.29499195       2.63526266       2.61691440      -0.00210920      -0.00205160      -0.00180336
H        9.72079952       3.11090334       3.23741213       0.00006610      -0.02049256       0.00717438
H        9.60867440       1.73024086       2.36289865      -0.00983882      -0.00700337      -0.01348264
N        0.26307362       8.77079493       9.60891314      -0.00204223       0.00831871      -0.00655681
H        0.21451869       9.43582937       8.84506721      -0.00116834      -0.00190382      -0.01560794
H       -0.00606323       7.87613405       9.18315242      -0.01406883       0.00506738       0.00703366
H        1.24214265       8.69448679       9.86781216      -0.00034866       0.00035022      -0.01658480
N        3.74198454       7.31523502       5.80465740       0.00513511      -0.00508824      -0.00265743
H        4.65440895       6.90365681       5.98781052       0.00983915       0.00347365      -0.00550482
H        3.04448607       6.64459242       6.10601186       0.01473152      -0.01784985      -0.00816562
H        3.65429000       8.12012916       6.41315715      -0.00382894      -0.01428595       0.00847871
N        0.14796056       0.23784768       7.99832829      -0.00833082      -0.00738859      -0.01491904
H       -0.45925475      -0.47616478       7.59268637      -0.01257972      -0.00419222      -0.01485644
H       -0.43118682       1.07890492       8.07387993      -0.00355691      -0.00427525      -0.01537756
H        0.31144111      -0.04878428       8.95786395      -0.01238787      -0.00790832      -0.01420620
N        2.45086312       0.31790482       5.83083132      -0.00093694       0.00685337      -0.00827063
H        1.75478205       0.40339441       6.57795598      -0.00346395      -0.00153352      -0.00944682
H        1.92344243       0.29549267       4.96440431       0.00073300       0.01155844      -0.00955468
H        2.97308462       1.18812628       5.80620642      -0.00612368       0.01033795      -0.00023063
