147
Lattice="11.410474831195016 0.0 0.0 0.0 11.410474831195016 0.0 0.0 0.0 11.410474831195016" Properties=species:S:1:pos:R:3:forces:R:3 energy=-1149177.25 stress="0.002578076208010316 -0.0002614517870824784 -0.000567657029023394 -0.0002614517870824784 0.0027702765073627234 0.0006094743439462036 -0.000567657029023394 0.0006094743439462036 0.0023115866351872683" pbc="T T T"
No      10.28602911      12.02553512      -0.83012264       0.00338776       0.00067756      -0.01468866
P        4.18646916       5.01468326       6.54217873      -0.01269467      -0.00472668       0.00271085
O        3.79930440       4.67616384       8.08885414      -0.02047890      -0.00700122      -0.00216621
O        3.05541726       4.19249169       5.80128984      -0.00102651      -0.01209104      -0.00612684
O        4.06321301       6.49211127       6.30010410      -0.01415498      -0.00632542      -0.00043854
O        5.55098151       4.40962730       6.30904211      -0.00501883      -0.00108941       0.00763264
H        2.84202829       4.53685927       8.20498030      -0.01794714      -0.04155522      -0.01072215
H        3.05288113       4.13696027       4.73647792      -0.00182898      -0.00222181      -0.00546539
P        6.61756368       2.44383208       3.32612848       0.01773042       0.01331913       0.00316494
O        6.18472726       2.26442633       4.84730269      -0.01893309       0.01031311      -0.00457311
O        7.02474582       0.91967980       2.94056340      -0.01643461       0.00319189      -0.00211330
O        5.43704964       2.81652741       2.46376353      -0.01423207       0.01498932      -0.01353323
O        7.84572483       3.28890644       3.20212599      -0.01702732      -0.00274846       0.00216160
H        5.93815014       3.10227504       5.33348988      -0.01157557       0.00763799      -0.00168692
H        6.21307916       0.42483155       2.72005757      -0.01322722       0.00658534      -0.00109155
N        9.33531466      10.04751823       9.17388150       0.00140879       0.00051767       0.00269008
H        9.79080794       9.31582538       9.73238562      -0.00009439       0.00219652       0.00639766
H        8.32701505       9.94261233       9.30667304       0.00142354      -0.00635806      -0.00479937
H        9.54104641       9.84366845       8.18934574       0.00795935      -0.00603660       0.00601356
N        9.01329373       7.89721185       3.47815215       0.01046732       0.00117919       0.00596301
H        9.00256010       8.09728482       2.48235579       0.01061655       0.00822592       0.00750078
H        8.18141341       7.32191425       3.62791758       0.01370943      -0.00475362       0.00103957
H        9.81965679       7.29917803       3.62566735       0.01372212       0.00462877       0.00326610
N        4.78365251       5.20351678       0.70023485      -0.00412365       0.00384063       0.00076510
H        5.47937763       5.56224075       0.05466142      -0.00492824       0.00397126      -0.00042832
H        4.04898176       4.79100706       0.13448515      -0.00387962       0.00174331       0.00274217
H        5.20974532       4.42257678       1.20223275      -0.00291625       0.00539481       0.00188304
N        8.29168111       2.23119745       0.00223722       0.00209588       0.00359833       0.00061193
H        7.71608112       1.74966367       0.68679171       0.00425385       0.01597778       0.01070870
H        7.66682310       2.58480803      -0.72275230      -0.00326103       0.00704019       0.00778298
H        8.68701494       3.02522266       0.49884650       0.01477090       0.00365254      -0.00738108
N        8.14968836       6.55342558      11.70920217      -0.00709468       0.00408991       0.00953578
H        7.61729586       6.69886492      12.56185099      -0.00765630       0.01867852       0.00736122
H        8.36725162       5.56338903      11.67692646      -0.02083097       0.00063025       0.02058179
H        7.50702620       6.71537703      10.93218613      -0.00197001       0.00299751       0.00588978
N        1.32178060       7.18963542       2.46773204      -0.00755009      -0.00079599      -0.00079963
H        0.79758296       6.44080620       2.03088867       0.00678997      -0.00722531      -0.00741956
H        1.79661095       6.78262499       3.26585014      -0.01324122       0.00493833       0.00555401
H        2.03599087       7.48660541       1.79610357      -0.00221743       0.00772466       0.00935087
N        6.56013984       2.81382301       8.70460116      -0.00658222      -0.00601080       0.00712639
H        7.23197829       2.24077504       8.20234652      -0.00791350      -0.01927289       0.02093741
H        6.16464049       3.42949649       7.98722502      -0.00469296      -0.01939871      -0.00491655
H        5.80949135       2.18723023       8.97020118      -0.00890180       0.00394414       0.02484222
N        3.39267455       8.32048009       0.43008850       0.01116323      -0.00220949       0.00813569
H        3.20112737       8.59959439      -0.52862896       0.00025889      -0.02931023       0.00283583
H        3.93408289       7.45948542       0.39543607      -0.00863536      -0.01494722       0.02966296
H        4.00948183       9.01242688       0.83767525       0.03849709      -0.00638734      -0.03075218
N        0.19321234       2.83503131      11.05011479       0.00579387      -0.00384706       0.00406702
H       -0.34058161       3.45218215      11.67266595       0.00356461      -0.01013832       0.01055582
H        0.35973087       3.31224791      10.16597412       0.00286500       0.00366817       0.00801061
H        1.12669088       2.72716109      11.43920091       0.00642368      -0.01128389       0.00049892
N        6.29850181       6.27270776       9.19840791       0.00412488      -0.00731604      -0.00126472
H        6.23447301       5.26678591       9.33091850       0.00555213      -0.00887899      -0.01056542
H        5.43109799       6.51829385       8.72933624       0.00201701      -0.00353084       0.00489442
H        7.02794852       6.38479621       8.49304823       0.00067416       0.00019721      -0.00378802
N        0.95742731       3.59834643       7.88618034       0.01505271       0.00884531      -0.01115532
H        1.58365826       3.09615005       7.26511411      -0.01284782      -0.00508992      -0.02643923
H        0.60597103       4.38897450       7.34231238       0.00529005       0.00815247      -0.00691725
H        0.15136440       2.99888200       8.03302131       0.01487809       0.01890500       0.02331758
N        1.91487671       8.80020962       5.43869803       0.00771287      -0.00876440       0.00036830
H        2.42610084       7.94221174       5.64512467       0.00562307      -0.01220207      -0.00758526
H        2.61514302       9.52881427       5.54032050       0.00983003      -0.01192766       0.00864033
H        1.66795012       8.75634926       4.45430682       0.00848576       0.00273011      -0.00045391
N        3.28779629       2.65746023      10.40791100       0.00371650      -0.00349288       0.01259679
H        2.72288585       2.15619880       9.73087890       0.02599745      -0.02541443       0.01121259
H        3.89310783       1.99196862      10.87303685       0.01653888       0.01833528       0.02603714
H        3.88003646       3.27820438       9.86445705      -0.00885531       0.00870088       0.01248804
N        8.78947744      10.56059873       0.76408734       0.00414038       0.00853080       0.00513339
H        7.99473100       9.99179220       0.48330588      -0.00185236       0.01194564       0.01500794
H        8.49678698      11.05868117       1.60134811       0.01583344       0.01001415       0.00745344
H        9.53010385       9.92666105       1.04312929       0.00446530       0.00431824      -0.00128685
N        0.28122686      10.43913144       2.16702907       0.00082777       0.00194120       0.00608754
H        0.75616322      11.18451433       2.67249285       0.00240668       0.00605602      -0.00105818
H        0.96589219       9.70232322       2.02144910       0.00062224       0.00135756       0.00876049
H       -0.37820634      10.04320796       2.83175620       0.00250620       0.00698274       0.01080684
N        4.29400828       0.21110958       1.87514411       0.00166515       0.01026203       0.00973120
H        4.22951423      -0.03436891       0.89420297       0.00762403       0.00069752       0.01236632
H        4.49837447       1.21480737       1.93476984      -0.00543989       0.01117691       0.00193832
H        3.37211579       0.06767398       2.27284031       0.00184837       0.00614093       0.00787801
N       10.38707716       3.30455056       4.74465959       0.00285490       0.00171535      -0.00815564
H        9.46652557       3.25287196       4.29959296      -0.00552653       0.01042107      -0.00176762
H       10.23599537       3.56877085       5.71252047       0.01239035      -0.00140432      -0.00811758
H       10.73541349       2.35361909       4.78631006      -0.00844190      -0.00112513      -0.01655577
N        0.72259218      -0.00625637       8.71420242      -0.00482032      -0.00195405      -0.02151459
H        1.00463434      -0.97105713       8.86384773      -0.01190967      -0.00488639      -0.02539786
H        1.54905804       0.47405350       8.34656535      -0.00027186      -0.00469251      -0.01476683
H        0.03185607      -0.00948073       7.96744390      -0.00125368       0.00606783      -0.02498171
N        0.34813113       5.94729779       5.82166666       0.01086796      -0.00380123      -0.00135499
H       -0.07677227       5.37588921       5.09627930       0.01869184      -0.00377641      -0.00664355
H        1.34765464       5.77252810       5.76486884       0.01243055       0.00507380       0.00423745
H        0.20529997       6.92701144       5.60810400       0.00331901      -0.00405849       0.00376228
N        2.95533366       3.87105394       3.26575222      -0.00380626       0.00677877      -0.00869238
H        2.80493552       4.67437722       2.66608315       0.00297036       0.01137100      -0.00318958
H        2.21919194       3.20016258       3.07705076      -0.00748253       0.01339786      -0.01278187
H        3.85441516       3.45287351       2.98054269      -0.00660004       0.00376754      -0.00942542
N       10.84124741       8.05708735      -0.37640545      -0.00559728       0.00317088       0.00312200
H       10.01537036       7.51124348      -0.11246768      -0.00419589       0.00603905       0.01381169
H       11.45448521       7.44870565      -0.90563497      -0.01639463       0.00218707      -0.00812296
H       11.34456624       8.29246662       0.47167059       0.00658847       0.00216931      -0.00415336
N        2.44373984       7.99286317       8.65597298      -0.00291502      -0.01173110      -0.00086857
H        3.08927629       7.68159365       7.92957803       0.00320533      -0.01307924       0.00512248
H        1.55433092       8.08775607       8.17472671       0.00540252       0.00090607      -0.01365906
H        2.34120890       7.18907999       9.26692804      -0.01995330      -0.01821190      -0.01212539
N        5.04211865       9.52845653       5.83193526      -0.01369590       0.00065161      -0.00797781
H        5.08235015       9.44411126       4.82075565      -0.00354648       0.00662170      -0.00787249
H        4.93878947       8.57120869       6.16860213      -0.01902891      -0.00198490      -0.01489113
H        5.96259452       9.85886808       6.10105284      -0.01629215      -0.00213736       0.00270130
N        8.13586666       6.20527602       6.55336896      -0.00037209      -0.00719419      -0.00767377
H        8.98605742       5.91927224       6.08083941      -0.00815809      -0.01061983      -0.02049551
H        7.37977103       5.58678458       6.26039300      -0.00763557      -0.00205488       0.00021824
H        7.92236136       7.12951724       6.19545388       0.00092270      -0.00503034      -0.00264401
N        6.27778214       6.11619267       3.52996039      -0.00865424       0.00091733      -0.00700004
H        5.56364608       5.94398135       2.82557433      -0.00686427       0.00057508      -0.00787077
H        5.79562704       6.15628446       4.42419656      -0.00828069       0.00044898      -0.00832918
H        6.83957479       5.26607884       3.55116106      -0.00653639      -0.00101931      -0.00693945
N        1.83408092       0.86970161       4.47094273       0.01374225       0.00852074      -0.00841928
H        1.44073420       0.12059313       5.03378933       0.00214721       0.01423116      -0.00871310
H        1.59622894       1.72912861       4.95773940       0.01826791       0.01278242      -0.01322949
H        2.84134206       0.78418785       4.57047459       0.01205243      -0.00106518      -0.00202759
N        9.37648327       1.30688640       7.05977429      -0.00106922      -0.00114281       0.00055376
H        8.85665065       1.51168022       6.21043547      -0.03103314      -0.01109284       0.01783422
H        9.39425414       2.17892332       7.59296315       0.00776033       0.00284566      -0.00496726
H        8.82921998       0.62833867       7.57924213       0.02318774      -0.00368914       0.02084851
N        6.36575853       9.11273264       2.32854717       0.00182368      -0.00202286       0.00068720
H        6.11291891       8.20381377       2.71097075       0.01041743      -0.00605091      -0.00006402
H        5.55998816       9.72993214       2.35574774      -0.00118557      -0.00760179       0.01315535
H        7.04990700       9.49542242       2.97317769       0.00638116      -0.00125834      -0.00481957
N        3.45187717       1.02255387       7.35447021       0.00621635       0.00059685       0.00697024
H        3.76891253       0.21039228       6.82766514       0.00725621      -0.00052655       0.00918812
H        4.10992452       1.11719679       8.11948528       0.00750865       0.00443147       0.00606941
H        3.62145064       1.83329232       6.76350804       0.00441773      -0.00060364       0.00466995
N        6.18821913       9.44088483       9.31431359      -0.00287440       0.00326282      -0.00849418
H        5.25331604       9.80763901       9.45797350       0.00001239       0.00563466       0.00297356
H        6.20863860       8.55070288       9.80823896       0.00435401       0.00352034      -0.00771222
H        6.21223712       9.18275005       8.33317930      -0.01317990       0.00018279      -0.00747050
N       10.16343237       9.69022438       6.10032085       0.01229391       0.00509597       0.00491230
H        9.67116327       9.26659525       5.31534842       0.00920193       0.00266914       0.00801639
H       11.13882361       9.40646963       6.01434056       0.01261770       0.00735185      -0.00012567
H       10.13570401      10.69549013       5.96251385       0.00628007       0.00527196       0.00494493
N       10.11407641       4.55157849       1.80041689      -0.00243770      -0.00399539      -0.00600192
H        9.22672887       4.26417877       2.22515853      -0.00975722       0.00526311      -0.00733671
H       10.05205981       5.55577419       1.66710258       0.00595884      -0.00619296      -0.01341658
H       10.78212578       4.39084369       2.55056685      -0.01021566      -0.00556403      -0.00015572
N        9.36882674       4.16780980       8.65641283       0.00064132      -0.00510967       0.00670475
H        8.56292359       3.92492583       9.22341718      -0.01304369      -0.00036603      -0.01118226
H        9.05294934       4.93988898       8.06692567       0.01318775      -0.01026067      -0.00673907
H       10.06984510       4.56225373       9.27284692      -0.01661079       0.00307261       0.02125715
