149
Lattice="11.389212273652523 0.0 0.0 0.0 11.389212273652523 0.0 0.0 0.0 11.389212273652523" Properties=species:S:1:pos:R:3:forces:R:3 energy=-1238703.125 stress="-0.001108331372961402 -0.000428291255957447 0.0015522604226134717 -0.000428291255957447 0.0009014885872602463 0.0012695601326413453 0.0015522604226134717 0.0012695601326413453 0.0008701446349732578" pbc="T T T"
No      12.03709253      10.33436882      -0.91990614      -0.00348830       0.00446427      -0.01329109
O        3.78418073       7.24976569       9.20969017      -0.00870407       0.00411284      -0.00876746
O        2.52795105       8.66615019       7.41989369      -0.00070444      -0.01001447      -0.01504910
O        2.78599075       9.59464607       9.86520982      -0.00242299       0.00319374      -0.01889855
O        1.17487376       7.60487859       9.34605943      -0.00693238       0.00023484      -0.00702825
Mn       2.58254648       8.25132900       8.94943690       0.01629810      -0.01395261      -0.00010467
O        4.25185155       2.53127874       2.77430906      -0.01772755       0.01065767       0.01511252
O        5.07298620       0.05404255       2.55636337      -0.00255667       0.00749493       0.01180393
O        6.52591282       2.00350736       1.58516136      -0.02100885       0.01125151      -0.00042579
O        4.29204228       1.36940691       0.43734856      -0.01503581      -0.00084773       0.01535475
Mn       5.02628616       1.49007464       1.84993156       0.00175136       0.00165683      -0.01159411
O        9.13873887       3.24212663       7.09008435       0.00304216       0.01783375       0.00079635
H        9.94941436       3.05454158       6.54623614      -0.00318934       0.00231957       0.00550400
H        9.36434432       3.84409250       7.81257964       0.01940032       0.01265397       0.01087328
O        2.85522145       7.04030321       3.33538631       0.00655594       0.00569305       0.00399021
H        3.08456997       6.24944844       2.81695739      -0.00121862       0.00235331       0.00062791
H        3.22910186       6.91859136       4.23670981       0.02167422       0.00612026      -0.00311871
O        1.30818316       2.41457816       2.11887840       0.01371379      -0.00103335       0.00748360
H        0.43263114       2.82692590       2.32027780      -0.00940715      -0.00233409      -0.00959344
H        1.77313063       2.20832716       2.94012620      -0.01191948       0.00935797      -0.01120898
O        9.91878677      -0.06397516       9.80856959       0.00609307       0.02155104       0.00419092
H        9.86465383      -0.16200474       8.79434479      -0.00212886       0.01954044       0.00438015
H        9.74503599       0.86430505      10.05152531       0.00842407       0.01834367       0.01092367
O        7.51138185      10.60605593       1.28449930      -0.01799728      -0.00693646      -0.00112674
H        7.66469561       9.71112705       0.89740701      -0.02087302       0.00610860      -0.00425591
H        6.56708952      10.65448090       1.48516158      -0.03477661      -0.01245425       0.00609617
O        3.79164816       4.93471070       7.51755735       0.01746693      -0.00380472      -0.01323947
H        4.04268481       5.31260178       8.36902578       0.02202560      -0.00095922      -0.00147856
H        4.43039227       4.21473088       7.30772714       0.01585655       0.00400518      -0.01281991
O        7.43290354       9.71085936       9.41451300       0.00463380       0.01137199       0.00070432
H        8.15710671      10.32357967       9.61514259      -0.00210240       0.01001935      -0.00729200
H        6.62686912      10.25389091       9.45086670      -0.00231782       0.01207570       0.00522002
O        9.45089484       6.99160491       7.68550291      -0.00436905      -0.02577767       0.00608591
H        8.96249745       6.96371865       6.84305308      -0.02357207      -0.02399683      -0.00143386
H       10.30021723       6.55591882       7.51184866      -0.03267106      -0.03168713       0.00437101
O       10.97377262       5.99105497       0.05514694      -0.02255962       0.01485310      -0.02631781
H       10.23459218       5.83041007      -0.56223839      -0.00128556       0.01237246       0.02818762
H       10.76880773       5.45147809       0.82553929      -0.00768857      -0.00304205       0.02641778
O        9.87446451       2.79563081      10.73422749       0.00078741      -0.00226208      -0.02151784
H       10.75411868       2.87719003      10.29062856      -0.00183169      -0.01132249      -0.02791975
H        9.38245486       3.52795581      10.31713116       0.00647354       0.00673351      -0.01235866
O        8.89493287       5.16445501       9.56259715      -0.00283633      -0.00426351       0.00822793
H        7.94229535       5.18479131       9.79106426      -0.01415166      -0.02434977      -0.00758255
H        9.02212203       5.86690471       8.87328603      -0.01079269      -0.00966907       0.00430629
O       10.94195308       0.26468341       3.97181998       0.01031898      -0.00151499      -0.00586847
H       11.39976151      -0.18345012       4.71029380       0.00512166       0.00111911       0.00066100
H       10.09734015      -0.23326277       3.87531690       0.00471067       0.01136485       0.00193291
O       10.26227829       3.47615537       1.99566236      -0.00340883       0.00182491      -0.00876725
H        9.62735464       2.94394168       2.52577036      -0.00207938       0.00464344      -0.00682567
H       10.08222998       3.23354935       1.05497820      -0.00234921      -0.00045661      -0.00559746
O        0.34177974       5.27130115       7.85846173      -0.01051483       0.00501556       0.00811414
H        0.76736971       5.96180401       8.38840376      -0.01498824       0.00157812       0.00147685
H        0.66449208       5.38877225       6.91879316       0.00043797      -0.00239148       0.00708465
O        4.27003453       6.89787994       5.60934147       0.01315040       0.00021020       0.01236737
H        4.09997344       6.16724709       6.24377742      -0.00760954       0.00294946       0.01305273
H        4.39985027       7.69413053       6.16286416       0.02366094      -0.00189850       0.01137416
O        1.45294928       0.47357703       8.81004824      -0.01669639      -0.00659193      -0.02202934
H        2.15012871       0.31824422       8.13268976      -0.01423378      -0.01133062      -0.01721964
H        1.23590183       1.43743279       8.82254631      -0.00860552      -0.00365095      -0.02011945
O        3.40186565      -0.03919429       6.90383388      -0.00854657      -0.01133393       0.00455774
H        3.13900803       0.14341780       5.98011617      -0.00261935      -0.02559654       0.00170163
H        3.82948927      -0.91641644       6.86383632       0.00873270      -0.00584540       0.01655180
O        8.60529318      10.35464327       3.64440431      -0.02028334       0.01145225       0.00118868
H        8.96594657       9.45076323       3.47827312      -0.01636961       0.01099603       0.01226924
H        8.17566867      10.54491975       2.76046877      -0.02084224      -0.00011162      -0.00277083
O        0.80956514       8.79817688       3.65400953       0.00087148      -0.00067210      -0.00449102
H        1.39361547       8.02064777       3.54525535       0.00123675       0.00172056      -0.00289946
H        0.00758161       8.60697346       3.13407519       0.00701453       0.00448493      -0.02170763
O        6.61895836       1.98634719      10.14047895      -0.01159206      -0.00248100      -0.01106793
H        7.02759895       1.80570955      10.99889368      -0.00336119       0.01061195       0.01510130
H        5.86244030       1.36715563      10.09795299      -0.00150121       0.01239663       0.00499560
O        9.67285571       8.13754532       2.59848136      -0.00710830       0.00780766      -0.00723884
H        9.29811823       8.07119311       1.70355505      -0.00802167       0.00828467      -0.00047167
H        9.85005735       7.21692067       2.89482195      -0.00523679       0.00345629      -0.00849470
O        1.05090260       5.51887533       5.35305670       0.01663826       0.00909065       0.00216669
H        0.27571641       5.53686124       4.75608398       0.01709564       0.01400326       0.00526234
H        1.50330660       4.67936425       5.18481094       0.00864059       0.00179045      -0.00036504
O        3.95358370       5.08135968       1.62529955       0.00302754       0.00007769       0.01415343
H        3.42114656       4.69089831       0.89744261       0.00322759       0.00588302       0.00408827
H        4.19852562       4.29870994       2.14882485      -0.01161058       0.00886920       0.01278276
O        9.75067409      10.85480268       7.31344509      -0.00879303       0.01464546       0.00479096
H        8.93886951      10.38753668       7.05728421       0.01528701       0.02013371       0.00714060
H       10.49790178      10.41630814       6.85149242       0.00926436       0.01635950       0.00314619
O        2.67289890      11.43031700       4.12382074       0.00335915      -0.01068359       0.01174814
H        2.09158164      10.70921722       3.84139466       0.01126017      -0.00629466       0.03559516
H        3.46849599      11.33450905       3.57649359       0.00500719      -0.01127701      -0.00880254
O        2.32026989       3.07756722       6.00934742       0.00178903       0.00968450       0.00651821
H        3.21552927       2.74995560       5.81942978       0.00165304      -0.01241015       0.00243825
H        2.47412853       3.66482375       6.76808611       0.01797879       0.00316140      -0.00375804
O        7.15004575       1.39214374       7.47879995       0.01080034       0.00471041       0.00209400
H        7.05625794       1.42163136       8.44973354       0.01514462       0.00524820      -0.00106630
H        7.92473931       1.97310871       7.32185027       0.01537277       0.00206680      -0.00046142
O        8.13275987       6.62644011       5.20312703       0.01175842      -0.01250921      -0.00919543
H        7.55580965       7.26350790       4.74374494       0.00463402      -0.01930077      -0.00131879
H        7.63647455       5.78014535       5.22206630       0.02011246      -0.02232666      -0.01475827
O        0.79830943       3.03855164       9.32020671       0.00607254      -0.00175936      -0.00918508
H        0.65330088       3.81788700       8.73052655       0.00486614       0.00004092      -0.00026327
H        1.47077939       3.31756141       9.98210856       0.00325209      -0.00230166      -0.00105186
O        7.26720625      10.45417061       5.99951050       0.02038617      -0.00748608       0.01645168
H        7.21315673      11.34091810       6.41096598       0.01794822      -0.00281098       0.01190767
H        7.69529879      10.51450517       5.11971091      -0.00370599      -0.00530981       0.00638951
O        0.50315628       9.98198589       5.95828392       0.00353274      -0.00413341       0.00064687
H        0.58378152       9.34613555       5.20156485      -0.00623571      -0.00715340       0.00415190
H        1.28660362       9.82977223       6.50490956      -0.00550951      -0.01910646       0.00712277
O        5.20567813       9.13433440       6.90982390       0.00722566       0.00948179       0.01718166
H        5.51378980       8.83235718       7.77096820      -0.01186622       0.00159033       0.01744831
H        6.00196301       9.56787885       6.50773742       0.01440283       0.01469900       0.03343556
O       10.21790500       5.76098825       3.70301165       0.00518500       0.00591376       0.00034056
H       10.07101840       4.95506051       3.18086239       0.00774365      -0.00739675      -0.00110041
H        9.42611919       5.92767730       4.26602583       0.00916146       0.00168650      -0.00577168
O        0.52870197       0.01566874       1.23419018       0.01417740      -0.01035998      -0.00459948
H        0.21432071      -0.33766417       2.08320561       0.01108371      -0.01599795      -0.01219875
H        0.85232451       0.91683384       1.48522381       0.01147467      -0.00955187      -0.00038360
O        5.67370176       7.20200304       1.22675876      -0.00799546       0.01199453       0.00476823
H        5.09553605       6.42219554       1.33420734       0.01022073      -0.00827678      -0.00843261
H        5.82812533       7.51369473       2.14072149      -0.01074356      -0.00826736       0.00645731
O        3.13076822       8.80409036       1.35626845      -0.01174459       0.00056589      -0.00565969
H        3.16840574       8.28059703       2.18700089      -0.00448453       0.00367428      -0.01446082
H        3.89580047       8.48802633       0.85745862       0.00268723       0.00635704      -0.01147339
O        8.38179489       2.17608188       3.45697113       0.01272030      -0.02870691       0.01098577
H        8.66712692       1.32639040       3.81349648      -0.01303152       0.02398245      -0.01414046
H        7.69085340       1.98313437       2.78162230      -0.00302716      -0.00783761      -0.01841730
O        6.08084876       8.03958328       3.86507912       0.01267990      -0.01161999       0.00811744
H        5.91349933       8.97968026       3.99597496       0.02490573      -0.01791690       0.00285377
H        5.43007076       7.57097805       4.43202746       0.01304902      -0.00786532       0.02075292
O        5.11453059       2.94869117       6.35068497       0.00893349      -0.00208203       0.00437574
H        5.66564150       2.28434654       6.80784167      -0.00320926      -0.01001224       0.00340203
H        5.78753233       3.42710002       5.82191357       0.01764594      -0.02713549      -0.01137647
O        6.22593688       4.79821606      10.18308311       0.00601205      -0.03739155      -0.02050719
H        6.24362508       3.82417898      10.25858725      -0.00642673      -0.00757016      -0.01260716
H        5.93869344       5.13393428      11.03738126      -0.03030273      -0.01764715      -0.00035138
O        0.64148751       8.51401468       0.52591819      -0.00380144       0.00539589      -0.00681397
H        0.32305804       7.60559179       0.31735988      -0.00359821       0.00315690      -0.00151867
H        1.58997865       8.47226056       0.83664364      -0.00281702       0.00623029      -0.00910669
O        8.04027313       8.14506136      11.62863376      -0.01774925       0.01011914      -0.00382379
H        7.24312058       7.63046461      11.86726485      -0.02767742       0.01711708      -0.00177130
H        7.85921309       8.49394408      10.73193927      -0.01079032       0.00605617      -0.00437745
O        5.02551494      11.31097181       9.29363121      -0.00378746       0.00950425       0.00613075
H        4.70935194      11.50728584       8.39721369      -0.00473493       0.01500722       0.00191757
H        4.26869567      10.87531176       9.71642700       0.00238555      -0.00086547      -0.00420696
O        2.55580110       3.44512014      -0.04323399       0.00182943       0.00596583      -0.00770239
H        2.06614859       3.12509493       0.74967981       0.00205933       0.01103457      -0.00866289
H        3.23737815       2.75725558      -0.14824336       0.00413601       0.00127736      -0.00112803
O       11.05907745       2.68321534       5.33102989      -0.00461146       0.00423047       0.00317778
H       11.99292578       2.66932978       5.61110776      -0.00805412       0.01037524       0.02052243
H       10.92092320       1.83400755       4.86651732       0.00937322       0.00149415       0.00688659
O        7.35173560       4.05077253       5.25147977       0.00116360      -0.00662115       0.00097957
H        7.64666067       3.45702210       4.53562739       0.01449966      -0.00231326       0.00000066
H        7.97798521       3.83071619       5.98339657       0.00622873       0.01391657       0.00139229
