144
Lattice="12.740224479057803 0.0 0.0 0.0 12.740224479057803 0.0 0.0 0.0 12.740224479057803" Properties=species:S:1:pos:R:3:forces:R:3 energy=-1194536.75 stress="-0.0007809505332261324 0.0011301568592898548 0.00035787677916232497 0.0011301568592898548 -0.0003066285571549088 -0.000343892679666169 0.00035787677916232497 -0.000343892679666169 -0.0006111380644142628" pbc="T T T"
No      11.55929197      11.37805345       2.40590686      -0.01503555      -0.01631666      -0.00185800
Cl      11.72465307      11.87772003       5.44150850       0.01285994       0.00573277      -0.00822312
O       12.73651446      12.25552546       4.33709900       0.00760967      -0.01188824      -0.01881593
O       10.55292464      11.37232629       4.59599614       0.00599349      -0.00187823       0.00605422
O       11.32690124      13.08696459       6.13493743       0.02041340       0.01596987      -0.02128661
Cl       5.86808250      12.02492462      10.10036883       0.03008199       0.00469637       0.00510752
O        6.47991469      12.39966149       8.79516815       0.03855610      -0.03138933      -0.00125575
O        6.99361341      11.77463589      11.05755404       0.02464175      -0.00704032       0.00810397
O        5.13936954      10.74408411       9.89846589      -0.00309217       0.02121282       0.02845371
O        2.57944852       9.72071288       7.07499273       0.00142808       0.00506178       0.00997936
O        2.34738829       7.59843025       7.29801401      -0.00051396       0.00462751       0.00451212
O        0.93409761       8.68980053       5.89780600       0.00618267       0.00829646       0.00143695
C        2.14116577      11.01593403       6.59990523       0.00292301       0.00607064       0.01175433
C        3.28005459      11.98431799       6.78464482       0.00149071       0.00593278       0.02034979
C        1.85775436       8.67730496       6.67869835       0.00220972       0.00608387       0.00451130
C        1.79356367       6.35815851       6.86185808      -0.00079583       0.00603250       0.00033243
H        1.83554235      10.92451821       5.55822266       0.00850838       0.00911750       0.00992948
H        1.26842714      11.30274806       7.19353819      -0.00018573       0.00371651       0.00827157
H        2.92878505      12.99033565       6.55067175       0.00279555       0.00611614       0.01949893
H        3.65927708      11.96208433       7.80519657      -0.00518997       0.00430391       0.02267668
H        4.10438366      11.75263087       6.11335256       0.00573041       0.00673998       0.02519175
H        0.75774107       6.27302142       7.18317469      -0.00522611       0.01154645      -0.01253930
H        2.40261400       5.58821560       7.32772648      -0.00982508       0.00459859       0.00964780
H        1.85323369       6.28376726       5.77821081       0.01277962       0.00370678       0.00125998
O        8.74687870       7.43052329      11.19606917       0.00212012      -0.00321920       0.00574656
O        6.71771217       8.00961219      10.77708912       0.00340512       0.00112678       0.00781658
O        7.25544926       5.81180990      10.65225126       0.00165418       0.00132501      -0.00773531
C        9.80184303       6.45494673      11.17892046       0.00185865      -0.00338784       0.00291126
C       11.10197349       7.21164699      11.06036785       0.00193596      -0.00307891       0.00604787
C        7.53569472       6.97155906      10.84570330       0.00252765       0.00033784       0.00115889
C        5.39805682       7.72864358      10.27248621       0.00537428       0.00698681      -0.00056861
H        9.75276973       5.86946967      12.10081495       0.00137347      -0.00632268       0.00090188
H        9.64232540       5.77977135      10.33846426       0.00200544      -0.00055259       0.00073904
H       11.94184601       6.51634247      11.09831075       0.00186466      -0.00300145       0.00506436
H       11.14775529       7.75983177      10.11906345       0.00258331      -0.00066577       0.00751421
H       11.20859134       7.92893270      11.87530685       0.00117389      -0.00518210       0.00791623
H        5.46926625       7.39063985       9.23988579       0.00978538       0.01982625      -0.00452214
H        4.88192548       8.68197700      10.31628716       0.00454129       0.00607932       0.00910920
H        4.91600601       6.96342178      10.88099596       0.00322261      -0.00078157      -0.01195498
O        9.55066760       6.37047251       7.77666134      -0.00630503       0.00339472       0.00217503
O        8.40145190       8.11680789       8.31433034      -0.00629675       0.00341740       0.00240342
O       10.47959080       8.41583780       7.46348487      -0.00468743       0.00246030       0.00871569
C       10.77079245       5.77190867       7.29272908      -0.00559901       0.00449413       0.00277771
C       10.49066977       4.32442311       6.98018211      -0.00352454       0.00305825       0.00789059
C        9.55918338       7.71931017       7.81951347      -0.00420600       0.00424403       0.00438181
C        8.20141104       9.54866458       8.37486436      -0.00390057       0.00367412       0.00603146
H       11.11432781       6.32787102       6.41881120      -0.00840589       0.00211978       0.00031647
H       11.52948460       5.88019999       8.07391687      -0.00471365       0.00890210       0.00103435
H       11.40471910       3.83695620       6.63745962      -0.00320719       0.00374570       0.00795265
H       10.14122905       3.79178032       7.86544555      -0.00124469       0.00557702       0.01012912
H        9.73507192       4.22724424       6.20135970      -0.00446385      -0.00040800       0.00931530
H        8.79382204       9.97231923       9.18238564      -0.00096965       0.00147445       0.00490949
H        7.14785798       9.69398389       8.58855438      -0.00285614       0.00470402       0.00919463
H        8.48078549      10.00103106       7.42528158      -0.00662598       0.00552481       0.00612867
O        2.64626238       9.21492518       3.03163408      -0.00484245      -0.00040720       0.00435710
O        4.35729845       9.83130898       4.20787193      -0.00513977       0.00472565       0.00121579
O        3.49919587       7.77125993       4.55624239       0.00345871       0.00202674       0.00139707
C        1.68926485       8.20402988       2.65795531      -0.00477365      -0.00108457       0.00616258
C        0.45170722       8.91481022       2.17455708      -0.01560396      -0.00137338       0.03278802
C        3.50683868       8.83558708       3.99295898      -0.00191578       0.00083899       0.00274014
C        5.37190327       9.51938614       5.19319486      -0.00121786       0.00720851      -0.00246888
H        2.12906339       7.57210093       1.88640135      -0.01246583       0.01181009      -0.00884008
H        1.46118610       7.58941754       3.52490113       0.01128630      -0.01343298       0.00145504
H       -0.23251524       8.21562170       1.69118178      -0.02217461      -0.00138596       0.04149486
H       -0.05935842       9.34983075       3.04486329      -0.00035628      -0.00484706       0.04361364
H        0.70665317       9.69612570       1.44904181      -0.02798408       0.00128387       0.03048784
H        4.91150602       9.34874068       6.16331890       0.00255454       0.00594123      -0.00106588
H        6.01540088      10.39313552       5.22648634      -0.00334032       0.00883302      -0.00477431
H        5.92396839       8.63654945       4.88715069      -0.00010297       0.00858617      -0.00422008
O        9.89045995       1.89617066       1.63230639       0.00401284      -0.00612199      -0.01678198
O        7.89602574       1.14931300       1.40214861       0.00075239       0.00242579      -0.01643565
O        9.56999126      -0.34072126       1.56809475      -0.00814028      -0.00474246       0.00237200
C       11.25644836       1.74619962       2.06100046      -0.00006588      -0.01043785      -0.00413829
C       11.81574111       3.13691848       2.21035559       0.00356407      -0.01216537      -0.00185832
C        9.14079407       0.81872496       1.53675367      -0.00165355      -0.00256389      -0.00977393
C        6.91965240       0.07812470       1.29500232      -0.00383994       0.00616413      -0.01208279
H       11.27318638       1.21140706       3.01981290      -0.01044344      -0.00855814      -0.00312689
H       11.80420494       1.16616375       1.30312683       0.00468916      -0.01402740       0.00203659
H       12.86124102       3.08765748       2.51170447       0.00040057      -0.01574659       0.00850261
H       11.74777437       3.67697104       1.26650485       0.01484494      -0.01372189      -0.00358005
H       11.24869717       3.67867383       2.96518571      -0.00172216      -0.00876810      -0.00828998
H        6.98667920      -0.38079808       0.30820871      -0.00550930       0.00335987      -0.01095361
H        5.97012293       0.58286507       1.43267556      -0.00160593       0.01000527      -0.01229324
H        7.09045863      -0.64530264       2.09014393      -0.00580983       0.00732668      -0.01083219
O        8.11544326       2.41509202       4.43302305       0.00495154      -0.00344801      -0.00540599
O        8.45459085       3.89260930       2.89771454       0.00119787      -0.00533284      -0.00788943
O        6.36760025       3.05324807       3.14426923       0.00180006      -0.00634182      -0.00319552
C        7.18641681       1.74588128       5.32407969       0.00699896      -0.00382391      -0.00368917
C        7.96712548       1.20365572       6.48351375       0.00890145      -0.00335412      -0.00491846
C        7.52652533       3.11926897       3.46816568       0.00345957      -0.00481286      -0.00486952
C        8.00728304       4.57277201       1.72100719      -0.00189583      -0.00643866      -0.00743143
H        6.44510008       2.48119974       5.63846125       0.00724423      -0.00401711      -0.00250615
H        6.67120923       0.96196921       4.76275448       0.00641012      -0.00398427      -0.00280005
H        7.29470741       0.71622420       7.19032233       0.01001076      -0.00221819      -0.00319511
H        8.71694517       0.48496545       6.15651912       0.00744505      -0.00463375      -0.00549933
H        8.47879588       2.01441476       7.00328422       0.01078267      -0.00334591      -0.00691080
H        7.69609571       3.86265329       0.95762480      -0.00075525      -0.00742292      -0.00681341
H        8.86791348       5.14594908       1.38209813      -0.00375086      -0.00438742      -0.00850935
H        7.18245175       5.23999281       1.96164899      -0.00331402      -0.00863744      -0.00659281
O        5.46442724       6.84697175       2.48185046       0.00390859       0.00483029      -0.00229219
O        4.79539834       5.34660784       3.87949224       0.00480919       0.00103450      -0.00632921
O        3.62632462       5.62925381       1.96531719       0.00145835       0.00800788      -0.00414079
C        5.38329226       7.49742857       1.19023580       0.00156659       0.00977197       0.00038315
C        6.37838744       8.62683686       1.19541102      -0.00067890       0.01151854       0.00289239
C        4.53782417       5.90702356       2.71038359       0.00447714       0.00551629      -0.00319272
C        3.87412249       4.31637411       4.25181718       0.00421576       0.00124612      -0.00756015
H        5.59885528       6.75205256       0.42063117       0.00194326       0.01308692      -0.00270942
H        4.36409090       7.85419435       1.03870982       0.00075454       0.00842544       0.00291579
H        6.33458612       9.16865499       0.25107215      -0.00289016       0.01389754       0.00437367
H        6.15953859       9.31570162       2.01197304      -0.00141852       0.00864385       0.00507900
H        7.39441332       8.24896350       1.31568755       0.00015776       0.01321761       0.00089517
H        2.86527386       4.72314392       4.31318074       0.00489831       0.00251532      -0.00443065
H        4.21010952       3.97150966       5.22398552       0.00557275      -0.00235324      -0.00951475
H        3.91475876       3.50134242       3.53425770       0.00138523       0.00334039      -0.01018718
O        7.14969155       2.72858474      11.48685401      -0.00376487      -0.00574487      -0.01407705
O        5.23728876       3.46944913      12.17281044      -0.00226006      -0.01150955      -0.00514984
O        5.50777707       3.05702511       9.96313920      -0.00824803       0.00090323      -0.00971735
C        8.04706556       2.39590073      10.40003800      -0.00609356       0.00211323      -0.01846462
C        9.41744623       2.23085860      11.00219146      -0.00804788      -0.01665291      -0.01946682
C        5.92720937       3.07870431      11.09181914      -0.00391179      -0.00487161      -0.00648153
C        3.89704924       3.88597710      11.87917530      -0.00246867      -0.00839896       0.00109036
H        7.69566263       1.48225335       9.92002583      -0.01103634       0.01004803      -0.02968773
H        8.01678297       3.21658938       9.68287039      -0.00095626       0.01165360      -0.00793493
H       10.14937055       2.06784048      10.21049575      -0.00817956      -0.01334953      -0.02043416
H        9.70220752       3.12090433      11.56628962      -0.00109149      -0.02637747      -0.00798666
H        9.44250778       1.36780156      11.66546574      -0.01981422      -0.02648515      -0.03154849
H        3.90387185       4.65276866      11.10478029      -0.00367339      -0.00344434       0.00603691
H        3.50660042       4.28300077      12.80995160       0.00012463      -0.01359281       0.00428605
H        3.30819615       3.03856882      11.52806518      -0.00436741      -0.00541356      -0.00294311
O        7.64153907       7.19571498       5.55836356      -0.00465592      -0.00220630      -0.00456982
O        6.46429339       6.19818782       7.08321147      -0.00785586       0.00280905      -0.00705937
O        7.46651137       4.94196787       5.50031345      -0.00211588       0.00489259       0.00584745
C        8.41081041       7.13418552       4.33587021       0.00351568      -0.00441170      -0.00079411
C        9.10817635       8.46072972       4.16861182       0.00131679      -0.00402099       0.00048694
C        7.20581073       6.00814320       5.99981675      -0.00195672      -0.00960958      -0.00641474
C        6.05409366       4.97875005       7.73026444      -0.01002214       0.00395724      -0.00258302
H        9.11279445       6.30232876       4.40317788       0.00461033      -0.00338465       0.00677337
H        7.71723194       6.92751223       3.52045943       0.00863838      -0.00892273      -0.00396237
H        9.63505950       8.46772105       3.20906627       0.01045474      -0.00638682       0.00600290
H        8.39694269       9.28717333       4.16259020      -0.00142954      -0.00603750      -0.00933192
H        9.83199675       8.64207894       4.96274947      -0.00673673       0.00125327       0.00655812
H        5.18088642       4.56511381       7.22711221      -0.00360408      -0.00173806      -0.00864437
H        5.82116496       5.23904412       8.75346887      -0.01914030       0.00928755      -0.00732762
H        6.86001790       4.24982626       7.71320858      -0.00649330       0.00706765       0.00783903
