147
Lattice="17.531537592958017 0.0 0.0 0.0 17.531537592958017 0.0 0.0 0.0 17.531537592958017" Properties=species:S:1:pos:R:3:forces:R:3 energy=-2534983.25 stress="-0.00010616055078571662 -0.0001714960962999612 9.134329229709692e-05 -0.0001714960962999612 -0.00028196745552122593 0.00014029985322849825 9.134329229709692e-05 0.00014029985322849825 -0.00010152530012419447" pbc="T T T"
No      17.97232906      19.14469649       0.42109202      -0.00741297      -0.00744632      -0.02537113
Cl       1.64256587      17.96521505       7.59126329      -0.00034851      -0.00222099      -0.00006592
O        2.69559390      17.01541774       7.13818859       0.00168097       0.00581193      -0.00822896
O        1.18909926      17.82132228       9.00607652       0.00199708      -0.00447218       0.00230658
Cl      13.98216119      16.31645941      11.66058199       0.02458841       0.03692031       0.00006462
O       15.10313791      16.64505008      12.56807669       0.02617383      -0.01687562      -0.00306827
O       13.47553979      17.41945259      10.81262560       0.01006013       0.00806999       0.00515777
Cl       7.83318134      10.63020268       7.13505324       0.00761148      -0.00300232      -0.00388773
Cl       9.07427149      12.53819299       8.93474388      -0.01218162       0.01181215      -0.00138530
Cl       9.68777755      12.60671466       6.10307802      -0.01143534       0.00235695      -0.00764427
Cl      10.65992364      10.41827485       7.74990068       0.00391972       0.01961473       0.00696851
C        9.31062216      11.54600283       7.48107455      -0.00199942       0.01053096       0.00100932
Cl       4.84037274       8.04097232       6.36210334       0.01404083       0.01143613       0.00057918
Cl       3.69107884       6.76451547       4.02590692      -0.00445023      -0.01997506       0.02788833
Cl       5.63341920       5.34712549       5.66378679       0.01736358       0.00713754       0.02386534
Cl       6.47558256       7.57145554       4.00845172      -0.00853416      -0.01022220      -0.00799316
C        5.16610503       6.93430716       5.01420543       0.00378646      -0.00326257       0.01021134
Cl       5.07946023      17.81081015       9.71939043      -0.00254998       0.00603363      -0.00664841
Cl       4.83499248      14.93509703       9.40028195      -0.00086287       0.00150865      -0.00794831
Cl       7.37010297      16.09229225      10.19809979      -0.00517547       0.01315456      -0.00175971
Cl       6.39381528      16.47494749       7.49426830       0.00155144       0.00379601      -0.00289840
C        5.91202202      16.32504608       9.20524685      -0.00368875       0.00464109      -0.00472391
Cl      13.61784789      13.12896263       6.53924295      -0.00485875      -0.00381036       0.00022003
Cl      13.49851825      12.77189272       9.41309589      -0.01477907      -0.01967922      -0.00325224
Cl      12.08243531      14.97285934       8.17140179       0.00181904      -0.00185019       0.00926718
Cl      14.97961492      14.99028338       8.29344588       0.00372615      -0.02790980       0.02317656
C       13.53985567      13.95974141       8.10930558      -0.00584973      -0.01199941       0.00591004
Cl      15.80355795       9.69973067      15.06718220      -0.00107139       0.00316575      -0.00145310
Cl      18.45757184       8.94685155      14.15834007      -0.00617456       0.00652763       0.00125146
Cl      16.55930208      10.09972952      12.29798941      -0.00027947       0.00879017       0.00093612
Cl      16.14230471       7.41231888      13.31420054      -0.00224133       0.00207204      -0.00693470
C       16.74030154       9.04384911      13.70471003      -0.00503487       0.00226665      -0.00263843
Cl       8.17463593       5.61873748       9.40329167      -0.01192555       0.00932044      -0.00481051
Cl       5.56299414       4.36999502       9.51302247       0.00104070      -0.00976361      -0.00740017
Cl       7.83471001       3.08775836      10.78260710      -0.00559132      -0.00111344       0.00264707
Cl       7.66032246       3.19625977       7.89168764       0.00766329      -0.00852549       0.00791016
C        7.30583795       4.06499108       9.40537690       0.00187597      -0.00007768       0.00011289
Cl      12.55311337       6.23604758       1.71149326      -0.00275843      -0.00094654      -0.00444560
Cl      14.28296685       6.65978342      -0.58345031      -0.01043548      -0.00093374      -0.01054165
Cl      15.07086207       7.63747185       2.04220242      -0.00217299      -0.00045469      -0.01319154
Cl      12.88985372       8.89947205       0.61457121      -0.00715443      -0.00488049      -0.01344881
C       13.68969321       7.36222577       0.94503928      -0.00505584      -0.00213547      -0.00816708
Cl       6.82964468      10.62357345      11.39078712      -0.02098137       0.00387976       0.00009841
Cl       5.64376533       8.34993884      10.03925689       0.00010996      -0.00589383       0.00139563
Cl       4.72143939      11.03595243       9.43816705      -0.02012867      -0.01176411      -0.00539371
Cl       4.10801846       9.83512114      12.00533928      -0.01746407      -0.01136885      -0.00616324
C        5.33256727       9.96026170      10.72042666      -0.01400305      -0.00657778      -0.00302734
Cl      10.43995553       1.91200337       2.85661808       0.01190341      -0.00200677       0.00066416
Cl       8.40128630       3.45469684       4.23505483       0.00911343       0.00261782      -0.00239003
Cl      11.19629610       4.19227664       4.48750742       0.00978899      -0.00535835       0.00214918
Cl      10.20875940       1.77445898       5.74920770       0.00920998      -0.00363673      -0.00184450
C       10.06038816       2.84183489       4.32397423       0.00781368      -0.00221191      -0.00039115
Cl      12.75245641      14.02037536      14.18104674       0.00007354       0.00460771      -0.00184456
Cl      11.23163597      14.92937022      16.48269971      -0.01473233      -0.00187343      -0.00653294
Cl      11.62726742      16.69880681      14.21875860       0.00375772      -0.00156856       0.00584310
Cl      13.85493042      16.03317208      15.96087506       0.00603861       0.00094914      -0.00571676
C       12.37105386      15.42318623      15.21408614       0.00004327      -0.00166039       0.00370815
Cl      16.07755296      11.01759144       0.69788886       0.01664768       0.01268721      -0.01388416
Cl      14.18531893      12.16342752       2.58518639       0.00375211      -0.00361933      -0.01553441
Cl      16.57540421      13.62924428       1.81811365      -0.00755659       0.01368718      -0.00127333
Cl      16.78237151      11.26182084       3.50265723       0.01426588       0.00921147      -0.01448157
C       15.91075990      12.00343112       2.15270965       0.00681720       0.00691925      -0.01129027
Cl      15.75197084       3.91968793       1.39621067       0.01004641      -0.01439723      -0.01246278
Cl      17.05347535       2.44781075       3.49786758       0.00507826      -0.00239741      -0.00303622
Cl      14.17415446       2.17730336       3.07010327       0.00135898       0.00258013      -0.00991453
Cl      15.25172944       4.60689944       4.18867368       0.01862423      -0.00131336      -0.00772273
C       15.52671866       3.29589828       3.06308592       0.00839928      -0.00419094      -0.00798057
Cl      16.36862429      17.25990094       0.98807117      -0.00675312      -0.00808010      -0.01327641
Cl      14.74339681      15.61413231       3.70835572       0.00541079       0.00713223       0.00976551
Cl      12.93331477      17.29250072       5.18373737       0.00338411      -0.00737536       0.00487813
Cl      15.76055638      17.39814702       5.69471485      -0.00065887      -0.01372334       0.03350633
C       14.47239722      16.75949846       4.86205804       0.00449526      -0.00244376       0.01671320
Cl       7.80243367      10.72290791       2.98420258      -0.00438881      -0.00222372       0.00756372
Cl      10.53106584      11.25866598       2.17671310      -0.00847679      -0.00031605      -0.00765043
Cl       9.30085217       8.69003353       1.56815447      -0.00755990       0.00101504      -0.00295189
Cl      10.00024183       9.35067207       4.29617321       0.00536695      -0.00219613      -0.00625882
C        9.41205349       9.99944586       2.75961924      -0.00428028      -0.00068560      -0.00173543
Cl       9.39921636       3.14960799      14.60114320      -0.01035699       0.01874751      -0.01124837
Cl      11.23610634       4.10235996      12.56000990      -0.00779995       0.00110190      -0.00214869
Cl      11.14879761       5.40056925      15.15135819      -0.00894123       0.00882246       0.00932974
Cl       8.93196329       5.69712465      13.29501025       0.00057289       0.02032566       0.00565061
C       10.18029869       4.58565420      13.89860933      -0.00099774       0.01489548      -0.00173314
Cl       4.01730109      10.05292309       2.03793702       0.01122329       0.00212027       0.00113335
Cl       1.98856343       9.72488162      -0.00711209       0.02691129      -0.00696298      -0.00535886
Cl       4.55880801      10.87786992      -0.68968934       0.01699504       0.01603309       0.00745183
Cl       2.67942479      12.38142708       0.93262851      -0.00359717      -0.00194868       0.00866873
C        3.31576384      10.76030331       0.56788698       0.01416299       0.00541437       0.00216016
Cl      10.69438803       8.19602513      10.95008284       0.00089067      -0.02062237       0.00341362
Cl      11.49949848      10.86431469      11.75233386      -0.02575642      -0.00971237      -0.00203743
Cl      13.39219263       9.11591072      10.41888244      -0.00830510       0.00253120       0.00226688
Cl      12.55305261       8.55039253      13.14256346      -0.01106286      -0.00177446       0.00265828
C       12.03344974       9.17794777      11.56818065      -0.01040964      -0.00514790       0.00091192
Cl       2.21291722       5.75285421      15.58916561       0.00041250      -0.00155958      -0.00685085
Cl       0.41056482       6.53710582      17.71484074       0.01659924      -0.00175917       0.00068879
Cl       2.08816421       4.19164805      18.03807946       0.00925454      -0.01256213      -0.00961033
Cl      -0.13844645       4.15968384      16.14130718       0.00088727      -0.00236422       0.00199828
C        1.15934630       5.21922429      16.85634051       0.00693233      -0.00475731      -0.00274256
Cl       0.81445879      14.51966366       5.50047507      -0.00535313      -0.00225818      -0.00238392
Cl       1.09984937      14.44391365       8.39491784      -0.00334113       0.01170796      -0.00223386
Cl       2.77438218      12.76850737       6.71820749      -0.00629345       0.00155535       0.00225490
Cl      -0.05844847      12.19189381       6.99000098       0.00277254      -0.00408354       0.01724543
C        1.15791950      13.47853000       6.91001683      -0.00549737       0.00227824       0.00380112
Cl      10.79983796      11.16161507      15.73124251       0.00414103      -0.01434804       0.00997269
Cl       8.65155338       9.58278516      14.59213197       0.01467464      -0.00340381      -0.01196185
Cl       8.74882002      12.44756574      14.13150970       0.02221617      -0.00160518      -0.00696924
Cl       8.10060722      11.42920295      16.76385675      -0.00314683      -0.00302030      -0.01585680
C        9.07186396      11.15287878      15.31039686       0.00898311      -0.00480150      -0.00749683
Cl       5.63217878       4.54874587      -1.56707768       0.01945670      -0.00190417       0.00695714
Cl       6.95460593       4.48768527       1.01578091      -0.01422603       0.00689627       0.01943046
Cl       5.05296080       6.59744228       0.41683211       0.01003069       0.01686874      -0.00646040
Cl       7.62664832       6.54558323      -0.91079856       0.01557875      -0.00476196       0.01319174
C        6.32098615       5.55064291      -0.25991047       0.00679255       0.00472832       0.00809912
Cl       3.54606988       3.89030933      12.63228494      -0.01154983      -0.01654343      -0.00547561
Cl       2.23874034       3.80625173      10.04536517      -0.01328033      -0.00240397      -0.00256655
Cl       2.72854275       6.35682046      11.35584372      -0.00759504      -0.00575924       0.00043977
Cl       0.72459891       4.53675275      12.39626422      -0.01158935      -0.00197460      -0.00626068
C        2.31167287       4.65745491      11.60121575      -0.00959262      -0.00592963      -0.00159692
Cl       7.44619372      14.34413895       3.15351632       0.01501867      -0.00659245       0.00609333
Cl       9.97835772      15.55322144       3.86667687       0.00832480       0.00595038       0.00282872
Cl       7.56476297      17.16573996       3.83237772      -0.00288019      -0.01608340       0.02575241
Cl       8.71752288      16.21663799       1.33894905      -0.00731558       0.01615607       0.01013339
C        8.41911646      15.81598892       3.04138814       0.00489853       0.00058978       0.00889772
Cl       2.07790839      16.07878510       1.07104617       0.00056074       0.00342477       0.01282997
Cl       4.32682332      15.69664120      -0.72503430       0.00282682       0.00470803       0.01227416
Cl       4.79997651      16.68250505       1.94119855       0.00968850      -0.00168603       0.00163271
Cl       3.45025355      18.38843267       0.00741827       0.01363917       0.00416026       0.00487956
C        3.68905498      16.66083471       0.59369506       0.00098640       0.00643510       0.00760215
Cl       2.51032912       3.34844617       5.38550447       0.00053126       0.01237586       0.00670703
Cl       4.18935887       2.97046187       3.04152776       0.00150311       0.01663592       0.01019329
Cl       2.37711194       0.86677493       3.89890176      -0.01247615       0.01285964       0.00066769
Cl       4.73535873       1.49521219       5.47220731      -0.01080096       0.00201282       0.00232697
C        3.46926484       2.18267604       4.46132441      -0.00506121       0.01112199       0.00321496
Cl      11.48025509       4.78391401       8.42047256       0.00362563      -0.00315075       0.01212103
Cl      13.98305140       5.81834767       7.37456419      -0.00596099       0.00156933      -0.00920597
Cl      13.80727963       3.05735679       8.27500281       0.00257340       0.00778073      -0.00697590
Cl      13.72591035       5.22524804      10.20043410       0.01946223      -0.00178877       0.00230640
C       13.24506735       4.71470424       8.56715131       0.00511122       0.00616163       0.00178373
Cl       1.30632354       1.66086885      14.76831996      -0.01592597      -0.00244713      -0.00863725
Cl       1.44712371      -1.24089191      14.63472686      -0.02378130       0.00034815      -0.01147074
Cl       3.78152615       0.35737620      13.94122832      -0.01526350      -0.01736912      -0.02057894
Cl       1.47951360       0.33465914      12.19733539      -0.02573049       0.00366803      -0.00751734
C        2.01927837       0.24266039      13.85879505      -0.01882783      -0.00049371      -0.01142967
Cl      -0.61604163       7.68899249       9.34950073      -0.00670522      -0.02781180      -0.00057584
Cl      -0.62497437       8.48100086       6.55659705       0.00546861       0.00238368       0.00670889
Cl       1.09186227       6.31714348       7.44523442       0.01658347       0.00747675      -0.00377589
Cl       1.68813310       9.04355543       8.22657623      -0.00975460       0.00189880       0.02149597
C        0.38657307       7.88523652       7.89880763      -0.00050697      -0.00416681       0.00788209
