147
Lattice="13.154686912230973 0.0 0.0 0.0 13.154686912230973 0.0 0.0 0.0 13.154686912230973" Properties=species:S:1:pos:R:3:forces:R:3 energy=-1281919.375 stress="-0.0019813368562608957 -0.0002807678683893755 -0.00033102983434218913 -0.0002807678683893755 -0.001892557367682457 -1.7666207895672414e-05 -0.00033102983434218913 -1.7666207895672414e-05 -0.0026181882712990046" pbc="T T T"
No      14.69276491      14.11995879       1.35305822       0.00247493      -0.00588131       0.00342348
Br       2.60244482      14.05598975       3.82637349      -0.00148083      -0.00634166       0.00262253
Br       2.59182235      13.28717863      -1.03944150      -0.01984972       0.03778509      -0.02439503
C        8.24245868      11.66363208       9.31251097       0.00714016       0.00919858      -0.00490385
C        7.94792179      12.30719172       8.11548159       0.00509404       0.01249039      -0.00234650
C        7.31470160      11.66964962      10.34770701       0.00750783       0.00293263      -0.00494932
C        6.72886390      12.95716413       7.95404287       0.00317515       0.00901069       0.00006266
C        6.10080100      12.32816568      10.19161643       0.00582771      -0.00031673      -0.00250828
C        5.80587561      12.96853004       8.99465797       0.00357595       0.00246211      -0.00007201
H        9.19567105      11.16741175       9.44704190       0.00852491       0.01185331      -0.00682351
H        8.67091143      12.30993740       7.30953455       0.00487643       0.01808413      -0.00221238
H        7.52686600      11.16158130      11.27982894       0.00968839       0.00120259      -0.00656962
H        6.50779879      13.46435662       7.02448648       0.00151426       0.01124511       0.00196964
H        5.38432565      12.34101540      11.00395357       0.00627854      -0.00452559      -0.00231072
H        4.86035658      13.48413684       8.87550402       0.00197601      -0.00025489       0.00183626
C       10.29600157       9.67423024      11.78527546       0.00709628       0.00590884       0.00473603
C       10.46351315      11.03373603      12.02641354       0.01177157       0.00558887       0.00090599
C       11.39763899       8.87912693      11.49553014       0.00409666       0.00239117       0.00397234
C       11.73326398      11.59605892      11.96985082       0.01288175       0.00186102      -0.00248316
C       12.66634198       9.44251774      11.44124801       0.00546971      -0.00183879       0.00037976
C       12.83632213      10.80214760      11.67707211       0.01016271      -0.00214265      -0.00238602
H        9.30489271       9.23760003      11.81332717       0.00670572       0.00827820       0.00951652
H        9.60412655      11.65089668      12.25567366       0.01380999       0.00836188       0.00105045
H       11.26725170       7.82478640      11.29011420       0.00074076       0.00260071       0.00652354
H       11.86829203      12.65697098      12.14711559       0.01668480       0.00164762      -0.00608252
H       13.51884609       8.81904969      11.20339200       0.00301902      -0.00435172      -0.00067807
H       13.81734547      11.25735984      11.63194486       0.01120991      -0.00544130      -0.00557702
C       11.60264299       6.42359239       8.16879141       0.00331774       0.00788799      -0.00026227
C       11.59410029       7.69615251       7.61160203       0.00139107       0.00731725      -0.00090633
C       10.56118743       6.01975101       8.99513897       0.00492889       0.00732994       0.00110649
C       10.55183882       8.57296634       7.89464886       0.00072955       0.00578065      -0.00067059
C        9.51499111       6.89147607       9.26495529       0.00455193       0.00606855       0.00169747
C        9.51165584       8.16939786       8.72042773       0.00233652       0.00532530       0.00061096
H       12.40392331       5.73294211       7.93597308       0.00410295       0.00910546      -0.00016489
H       12.39410708       7.99927054       6.94914104       0.00097646       0.00807285      -0.00088036
H       10.54799091       5.01557551       9.39957025       0.00710760       0.00797486       0.00225299
H       10.54662954       9.56669522       7.46286313      -0.00107462       0.00555639      -0.00088911
H        8.69057686       6.56449298       9.88407460       0.00613639       0.00608868       0.00345928
H        8.69230580       8.84572688       8.93126273       0.00226010       0.00460130       0.00130364
C        2.59902829       9.62553628       3.62220288      -0.01962551       0.01484060      -0.00548640
C        1.53806088       8.75793260       3.85192713      -0.01672375       0.01176007      -0.00570449
C        3.53924532       9.32910249       2.64333512      -0.01540655       0.01438949      -0.00088046
C        1.39923322       7.60979538       3.08008308      -0.00905389       0.00767694      -0.00071556
C        3.40759221       8.17626291       1.88112829      -0.00746244       0.01052049       0.00404055
C        2.32945814       7.32432475       2.08750567      -0.00425298       0.00687101       0.00443357
H        2.70211335      10.52517452       4.21431170      -0.02518214       0.01758528      -0.00875612
H        0.82964825       8.97235602       4.64184407      -0.02081361       0.01240830      -0.00977520
H        4.38330733       9.98731306       2.48091660      -0.01817535       0.01754446      -0.00142797
H        0.57165247       6.93385979       3.26009240      -0.00661261       0.00516623      -0.00056267
H        4.15922783       7.93173154       1.14238721      -0.00456923       0.01056108       0.00743550
H        2.23118952       6.42261420       1.49449511       0.00193295       0.00380631       0.00862538
C       12.23017530       3.42982720       2.04285399       0.00108096      -0.00458561      -0.00857963
C       11.32837539       3.06379764       1.04742847       0.00170168      -0.00809684      -0.00742280
C       12.76826283       2.46103554       2.88716108       0.00222136      -0.00144184      -0.00626104
C       10.96117686       1.73154290       0.89496899       0.00319417      -0.00884599      -0.00358848
C       12.39420852       1.12020726       2.73473045       0.00284440      -0.00196072      -0.00179359
C       11.49139755       0.75818505       1.73591403       0.00364776      -0.00557850      -0.00059509
H       12.50249820       4.47042289       2.17201072      -0.00034697      -0.00412290      -0.01149518
H       10.89684640       3.81791249       0.40096585       0.00127968      -0.01077172      -0.00943423
H       13.46604960       2.72756323       3.67244735       0.00170422       0.00152691      -0.00694916
H       10.24060878       1.45455159       0.13654969       0.00423991      -0.01175420      -0.00310062
H       12.79955522       0.37918017       3.41864059       0.00347027       0.00065589       0.00031287
H       11.19406621      -0.27632104       1.61565915       0.00483464      -0.00595213       0.00229384
C        6.49129264       2.10365654       3.96078006      -0.00056508      -0.00902986      -0.00122136
C        6.73599799       0.81812004       4.42891677      -0.00838730      -0.00976311       0.00032365
C        7.55455712       2.93756860       3.63412084       0.00446844      -0.01509525       0.00036037
C        8.04407320       0.37262769       4.58633310      -0.01147799      -0.01688346       0.00243079
C        8.85989117       2.48252068       3.76705749       0.00151978      -0.02188616       0.00344668
C        9.10657113       1.20449072       4.25450976      -0.00648446      -0.02310534       0.00387657
H        5.47080653       2.44950640       3.85608340       0.00180732      -0.00368271      -0.00374440
H        5.90212411       0.16749012       4.66265500      -0.01245053      -0.00430553       0.00033032
H        7.36507559       3.94538753       3.29145494       0.01021051      -0.01457235      -0.00125189
H        8.23419022      -0.63069049       4.94686938      -0.01801380      -0.01757576       0.00351909
H        9.68555501       3.13442600       3.51118282       0.00562976      -0.02689426       0.00453878
H       10.12705377       0.86328885       4.37304982      -0.00870404      -0.02910814       0.00479328
C        6.43642541      12.11172354       0.78458291       0.00568393       0.00703433      -0.00905237
C        6.03777066      10.84014811       0.38563750       0.00366908       0.00706721      -0.00631591
C        7.65205132      12.29476119       1.43371604       0.00351525       0.00627413      -0.00559869
C        6.87249232       9.75070026       0.61282942      -0.00002857       0.00600755       0.00032116
C        8.47588267      11.20222481       1.67707824      -0.00048688       0.00537765       0.00077026
C        8.09260851       9.93567370       1.25426528      -0.00229040       0.00515904       0.00400749
H        5.80477142      12.96651115       0.58701268       0.00861656       0.00804104      -0.01391888
H        5.08531388      10.69748911      -0.11173696       0.00561430       0.00779176      -0.00962703
H        7.94789403      13.28386520       1.75914333       0.00471102       0.00665794      -0.00782311
H        6.57032004       8.76244842       0.28692966      -0.00138920       0.00571270       0.00267202
H        9.42259469      11.33664629       2.18564852      -0.00277369       0.00479608       0.00450914
H        8.76069600       9.09767255       1.40760724      -0.00568578       0.00423019       0.01049280
C        6.65699160       5.84939285       1.54937606      -0.00876828      -0.00843627       0.00246762
C        5.55847456       5.00718231       1.69001466      -0.00730590      -0.00527089       0.00721224
C        6.93773780       6.79112728       2.53045970       0.00415002      -0.00039302      -0.00244061
C        4.75641721       5.10053286       2.82171343      -0.00462055      -0.00505785       0.00207336
C        6.11701584       6.90267030       3.64386093      -0.00417404      -0.00865936      -0.00405917
C        5.03378723       6.04971399       3.79769299      -0.00186677      -0.00421841      -0.00241055
H        7.30245485       5.75426586       0.68659741      -0.00259298      -0.00808391      -0.00433800
H        5.35182932       4.26141518       0.93237598      -0.00590509      -0.00820279       0.00256875
H        7.79535333       7.44163917       2.43250942      -0.00627849      -0.00949810      -0.00339105
H        3.91000401       4.43881023       2.94803658      -0.00189112      -0.00082704       0.00423827
H        6.32638913       7.66034514       4.38581168       0.00181505       0.00041006       0.00162123
H        4.38984117       6.13885740       4.66320861      -0.00196516      -0.00094997       0.00205234
C        6.40368188       2.48241770      11.29653355       0.01065868      -0.00535141      -0.00554032
C        7.70152202       1.98441866      11.26308201       0.01301843       0.00117952      -0.00290515
C        6.18980921       3.85324636      11.36216921       0.00364015      -0.00679509      -0.00499680
C        8.78222565       2.85667338      11.30837153       0.00820748       0.00640227       0.00043194
C        7.27166245       4.72419289      11.42378503      -0.00112835      -0.00152723      -0.00228339
C        8.56875405       4.22586734      11.40690621       0.00111112       0.00502366       0.00042048
H        5.56020082       1.80439903      11.26096550       0.01427838      -0.00923017      -0.00818912
H        7.86336065       0.91807168      11.18814130       0.01831770       0.00213307      -0.00341331
H        5.17735754       4.23754777      11.36421871       0.00176758      -0.01234073      -0.00687444
H        9.79218699       2.46799407      11.25628556       0.01024516       0.01175364       0.00303993
H        7.10485949       5.79164907      11.49181658      -0.00662713      -0.00256038      -0.00238747
H        9.41028378       4.90541109      11.46116657      -0.00255281       0.00913399       0.00261651
C        7.13521898       5.27243136       7.29098937      -0.00292601      -0.00753593       0.01613096
C        7.89426243       4.10680505       7.27229714      -0.00210835      -0.00661205       0.01659803
C        7.57145564       6.39332045       6.59835689      -0.00712845      -0.00947690       0.01075829
C        9.08449342       4.06997782       6.55819928      -0.00580262      -0.00806315       0.01130399
C        8.75217482       6.35014911       5.86716351      -0.00976243      -0.01050624       0.00683774
C        9.50943107       5.18842632       5.84956342      -0.00926185      -0.00997460       0.00680120
H        6.21183127       5.30977573       7.85632621      -0.00040039      -0.00670836       0.01979251
H        7.55967738       3.23140790       7.81515814       0.00102241      -0.00487874       0.02094903
H        6.99979873       7.31136075       6.64380288      -0.00819986      -0.01031629       0.00968162
H        9.67479342       3.16331813       6.54134758      -0.00549224      -0.00780179       0.01104227
H        9.08916134       7.22651136       5.32743326      -0.01254250      -0.01205893       0.00324362
H       10.43682549       5.15596047       5.29001491      -0.01183499      -0.01084495       0.00324059
C        5.21109954       9.12055093       9.82607070      -0.00018551      -0.00638098       0.00174145
C        5.50209871       7.87467508      10.36621213      -0.00579184      -0.01025595      -0.00457028
C        4.06980994       9.80177817      10.22840238       0.00379238      -0.00290848       0.00608996
C        4.63900864       7.30138959      11.29466191      -0.00678780      -0.00990935      -0.00562793
C        3.21003099       9.23148994      11.15547105       0.00305384      -0.00242089       0.00551239
C        3.48387846       7.97343028      11.67605772      -0.00194587      -0.00550090      -0.00009005
H        5.87369772       9.56692552       9.09650625       0.00079328      -0.00658849       0.00289522
H        6.39725448       7.35129197      10.05188133      -0.00961410      -0.01372210      -0.00896271
H        3.84600631      10.77566703       9.81641006       0.00726172      -0.00065547       0.00988442
H        4.86468612       6.33853770      11.73350398      -0.01141598      -0.01318878      -0.01121462
H        2.33181672       9.77379890      11.47648626       0.00616609       0.00005665       0.00898728
H        2.80461501       7.52715063      12.38950448      -0.00259189      -0.00501271      -0.00051211
C        2.43071686      10.05101233       7.32952206       0.00278429       0.00742555      -0.00285109
C        3.65340867       9.73810089       6.74961052      -0.00053947       0.00442384      -0.00780455
C        1.63399538       9.04271921       7.85801229       0.00489803       0.01031598       0.00464256
C        4.07081049       8.41542751       6.68393335      -0.00238097       0.00404461      -0.00578776
C        2.05587575       7.71906885       7.79666116       0.00335699       0.00990504       0.00693735
C        3.27334135       7.40441953       7.20516165      -0.00059471       0.00675577       0.00134823
H        2.10282124      11.08167601       7.37899294       0.00286805       0.00744629      -0.00461342
H        4.28237305      10.52538476       6.35356102      -0.00169792       0.00215536      -0.01359731
H        0.69065932       9.28637512       8.33060405       0.00791159       0.01277493       0.00901844
H        5.01912439       8.17177627       6.22378770      -0.00538517       0.00131914      -0.01010242
H        1.43685348       6.93545674       8.21522754       0.00468566       0.01248818       0.01299005
H        3.60341421       6.37349406       7.15757732      -0.00310894       0.00620915       0.00198364
