149
Lattice="11.952072711454898 0.0 0.0 0.0 11.952072711454898 0.0 0.0 0.0 11.952072711454898" Properties=species:S:1:pos:R:3:forces:R:3 energy=-80820.1796875 stress="-0.0009322908008471131 0.00021254062448861077 -0.0007131691963877529 0.00021254062448861077 0.0005731741548515856 -1.319864077231614e-05 -0.0007131691963877529 -1.319864077231614e-05 -0.0006406797911040485" pbc="T T T"
O       12.05060442      11.45097951      -0.04002262      -0.00359367       0.01087656      -0.00263868
H        9.39593757      10.05697813       1.86770916       0.00479968       0.00169352       0.00889681
H       11.71079172      12.29947096       0.31179306      -0.00179873       0.00777429      -0.00205377
H       12.75299106      11.71060716      -0.63998871      -0.00022776       0.01036716      -0.00083826
O        9.69924955      10.97292011       2.11818771       0.00647122       0.01187319       0.00955833
O       11.37620979      11.94589352       3.18149924       0.01123741       0.03069472       0.00963873
C       11.50604128       9.58168103       2.89588351       0.00503498       0.02232617       0.00819846
C       10.85894723      10.92817203       2.76477994      -0.01215668      -0.03837502      -0.00863424
H       12.21583727       9.50989578       2.06913346       0.00404705       0.00496817       0.00671154
H       10.79449138       8.76386156       2.81209692       0.00282250       0.00389238       0.00885896
H       12.05163480       9.52904600       3.83429978       0.00486182       0.00798905       0.00712162
O        6.16288949       9.12962358      10.75276816      -0.00539783      -0.00817512      -0.00281444
C        5.59791108       8.73094129       9.48840178      -0.00284283      -0.00886083      -0.00307667
H        4.72552353       9.34193279       9.24675739      -0.00388783      -0.01090643      -0.00394627
H        5.31619949       7.67752720       9.49792277      -0.00355447      -0.00898433      -0.00567029
H        6.35340871       8.87465325       8.72187183      -0.00200459      -0.00678529      -0.00212964
H        5.52054623       8.87210365      11.45811570      -0.00652185      -0.00561346      -0.00223632
O        4.25325450       8.45236989       0.55793283      -0.00283825      -0.00029388       0.00125664
C        3.65603254       9.73881356       0.78544646      -0.01119310      -0.00264742      -0.01108627
H        2.58368597       9.66398235       0.95797307      -0.01147452      -0.00841656      -0.01665927
H        3.83178780      10.40463487      -0.06347591      -0.01101251      -0.00838555      -0.01555896
H        4.12693669      10.17628683       1.66347849      -0.01894082       0.00735849      -0.01208770
H        3.64040676       7.82973827       0.11291772       0.00137144      -0.00514486       0.00095312
O        4.81467551       3.02781193      11.26718583      -0.01500322      -0.01170442       0.01017696
C        4.34224046       1.71039015      10.96074998      -0.00655768      -0.00966920      -0.00527005
H        3.46762343       1.46345843      11.56155343      -0.01851833      -0.01445409      -0.02546571
H        5.12545116       0.97023031      11.13935031      -0.01099327      -0.01076350       0.00638335
H        4.10168702       1.69746331       9.90009004       0.01527323      -0.00289581      -0.00947455
H        4.72444799       3.17748535      12.21320780      -0.00276914      -0.02869746       0.01373810
O        5.51174798       7.91309207       6.66247790       0.00740048      -0.00633037      -0.01199453
C        4.67525841       8.97324091       6.24692388       0.00980970      -0.00372422      -0.00911643
H        3.73124967       8.99959183       6.80492569       0.00873116      -0.00482589      -0.01077798
H        4.43946331       8.91561286       5.17756054       0.01188062       0.00157281      -0.00980419
H        5.20177215       9.91268118       6.42636885       0.01073694      -0.00529227      -0.00377219
H        5.19000060       7.08509303       6.25803592       0.00529115      -0.00547151      -0.01255876
O        8.28712515       7.52926623      11.18603451      -0.00042792       0.00228727       0.00573535
C        7.74922252       6.23086839      10.93074427       0.00581856      -0.00071371       0.01330651
H        8.47818706       5.49214227      11.25961135       0.01094638       0.00407255       0.01324875
H        7.55796441       6.09288048       9.86280494       0.00253067      -0.00641885       0.01454955
H        6.81096855       6.06744196      11.47073723       0.00884217      -0.00379314       0.01753968
H        7.57204934       8.16696351      10.96678803      -0.00401308      -0.00195495       0.00416425
O        8.57715812       8.62760453       1.68497933       0.00121194       0.00227559       0.00294787
C        7.23714637       9.01980866       1.98123579       0.00114019      -0.00273395       0.00352775
H        6.53986345       8.19668407       1.82138974       0.00387740      -0.00527024       0.00047052
H        6.92497038       9.87107602       1.36678132      -0.00246067      -0.00263855       0.00491421
H        7.19975994       9.31674106       3.02889657      -0.00237143      -0.00529691       0.00426126
H        8.57010574       8.16314257       0.81499211       0.00384285       0.00516765       0.00469287
O        8.25429189       4.49126034       5.70593576       0.00641280      -0.00432502       0.00452921
C        7.60728588       4.82244084       6.92614477       0.00430560      -0.00596939       0.00375435
H        7.44555876       5.90182517       7.01974631      -0.00519080      -0.00745279       0.00056560
H        8.18180744       4.46657806       7.78684069       0.00769162       0.00151506       0.00448844
H        6.63318749       4.33892219       6.93392905       0.00884670      -0.01477666       0.00564737
H        9.01561945       5.08932936       5.60177651       0.00136888       0.00230181       0.00213270
O        4.48243824       5.11310309       9.55347326       0.00773966      -0.00141189       0.01085705
C        3.65222627       4.76384475       8.44590680       0.01357234       0.00330347       0.00528647
H        2.61196513       4.61135717       8.75708265       0.01468086      -0.01022774       0.00085506
H        4.01334650       3.85743889       7.95523518       0.02379386       0.01322451      -0.00453088
H        3.68899540       5.58461469       7.73265814       0.00675172       0.01193121       0.01534152
H        4.65500016       4.30831608      10.08358323      -0.00078665      -0.00159228       0.01282947
O        9.22552123       9.33010329       8.12738164       0.00425148       0.00809934      -0.01064998
C        9.82148612      10.29760295       7.26073704       0.00017369       0.01522860      -0.00372201
H        9.98703357      11.24256003       7.77998583       0.01494713       0.00645557       0.00643511
H        9.18893787      10.48080075       6.38859657      -0.00881922       0.03217331       0.00703707
H       10.78916938       9.92645993       6.92692814      -0.00732511       0.01313898      -0.02126645
H        8.65337805       9.81490681       8.75425072       0.00344710       0.00208664      -0.00567809
O        5.07825345       5.68967610       5.19082143       0.00548565      -0.01332664      -0.00418311
C        5.90935274       6.15960596       4.13471180       0.00354713      -0.01766071      -0.00818977
H        5.83612347       5.50739737       3.26178223       0.00389294      -0.02353224      -0.00351167
H        6.93977345       6.15632579       4.47949279       0.00367439      -0.01417900      -0.00921609
H        5.62603209       7.17517208       3.84366470       0.00154880      -0.02012515      -0.01373571
H        4.40618339       5.10176725       4.79099970      -0.00049664      -0.00683204      -0.00124807
O        3.49415658       4.12918896       3.63006116      -0.01045810      -0.00316080       0.00071636
C        2.32682026       3.38177766       3.96420793      -0.00958902      -0.00319386      -0.00354571
H        1.90056253       2.89557328       3.08206947      -0.01458459       0.00678538      -0.00730336
H        1.55218315       4.00987300       4.40753780      -0.00761527      -0.00813723       0.00627418
H        2.62377039       2.61895778       4.68506000      -0.00843493      -0.01180768      -0.01314303
H        3.23954822       4.93856397       3.14602347      -0.00883575      -0.00194082      -0.00055789
O        1.14959652      10.68221741       6.25851190      -0.01969957      -0.03422959      -0.02838516
C        2.04229450      10.87521748       5.17968492       0.00193557       0.00295570       0.00184828
H        2.26450910       9.93422847       4.66269707       0.02752736       0.02228406      -0.01603147
H        2.99688908      11.31526389       5.49918514      -0.01323119       0.00582691       0.03619064
H        1.55691940      11.54349547       4.46766019       0.00802639       0.01578781       0.01034591
H        1.37890468       9.85275342       6.71227238      -0.00204671      -0.02521299      -0.01804629
O       10.08483120       6.53147185       5.50156040      -0.00495297       0.00614114       0.00086886
C        9.26568791       7.62352554       5.06493776      -0.00453030       0.00807549       0.00206189
H        9.84582096       8.54677550       5.02586584      -0.00496188       0.00792444       0.00862287
H        8.40503154       7.76583274       5.72318792      -0.00703913       0.00397520      -0.00063553
H        8.91731948       7.39112500       4.05987008       0.00004809       0.01202930      -0.00026548
H       10.40873005       6.74588697       6.40558226      -0.00116193       0.00686637      -0.00132090
O       10.80487236       7.25757067       8.03163656       0.00645983       0.01036075      -0.00534620
C       10.79110072       6.22108167       9.01455461      -0.00094949       0.01591735      -0.00028785
H       10.67683573       6.63627201      10.01627602       0.00167318       0.02168225      -0.00270417
H       11.74103342       5.69087772       8.95025202      -0.00482082       0.00890499       0.00231818
H        9.97987811       5.51343307       8.82639954      -0.00610572       0.02140020       0.00245476
H       10.13991201       7.96289063       8.24905259       0.00877166       0.01444225      -0.01074225
O        7.47147600       2.20116180       4.32893663      -0.00327486       0.00206330       0.00247639
C        6.76382800       1.63027648       5.41202818       0.00126886      -0.00548753       0.00151092
H        7.27411686       1.77310065       6.36770208       0.00641626      -0.01424877      -0.00017333
H        6.67053250       0.55718903       5.23239066      -0.00175415      -0.00349924      -0.00662523
H        5.75076962       2.04855649       5.50732236       0.00265795      -0.00451374       0.00989169
H        7.81718320       3.04716303       4.65739909      -0.00108147      -0.00036196       0.00601527
O        1.39628784       8.07691774       7.34214422       0.01852155      -0.01382679       0.00613594
C        1.48959010       7.16861571       6.25111218       0.00571543      -0.00373699      -0.00413078
H        0.78294653       7.41599906       5.45259242       0.00208750       0.00741138       0.00318578
H        1.29975386       6.13875029       6.57138916       0.00247414      -0.00560656      -0.01261348
H        2.50146867       7.22019368       5.85109127       0.00331262      -0.00446320      -0.00965703
H        0.51044754       7.94227085       7.72814454       0.01539324      -0.00549753       0.00221286
O        3.81892903       0.86194087       2.02456317       0.00240886       0.00870743      -0.00664383
C        5.14712190       1.17612392       2.44991761       0.00075355       0.00365345       0.00421628
H        5.60620446       0.35170143       3.00379240      -0.01154920       0.00654608       0.01678966
H        5.18461652       2.07660387       3.06284578       0.00075554       0.00933865      -0.00468838
H        5.74002166       1.34382154       1.55047670       0.01068444      -0.00998157       0.00889724
H        3.24700773       0.88337571       2.79657170      -0.00403054       0.01800732      -0.01305002
O        7.89866111      11.01815278       9.84444064       0.00006628      -0.01050642       0.00298715
C        8.98489054      11.27858082      10.75213325      -0.00183855      -0.01000595       0.00606314
H        9.43747145      10.35111134      11.10600880       0.00269003      -0.00907457       0.00091091
H        8.65527463      11.87242492      11.60605922      -0.00586228      -0.01662609       0.00846305
H        9.74187564      11.83760312      10.20811218      -0.00463301      -0.00274497       0.00940460
H        7.21530518      10.50779530      10.32154420      -0.00054590      -0.01167118       0.00077927
O       11.49024371       5.34461888       3.33799332       0.00070816       0.00513698       0.01025373
C       10.86023601       5.70047749       2.12062331      -0.00162068      -0.00382452       0.00835365
H       11.17527406       6.68933501       1.76227383      -0.01321618      -0.00156093       0.00751514
H        9.76846206       5.70379438       2.20489250      -0.00144589      -0.01744698       0.00722953
H       11.14270095       4.95811842       1.37370639       0.00814727      -0.00177553       0.00979711
H       11.03469981       5.78548109       4.07351676      -0.00251700       0.00659748       0.00796787
O        3.18037096       6.13239942      -0.28666600      -0.01503134       0.02652065      -0.02296138
C        2.14712650       5.18901107      -0.01386829      -0.00727187       0.02082264      -0.01796914
H        2.42876797       4.19136976      -0.36029843      -0.00040220       0.02187228      -0.01513084
H        1.20497191       5.47644693      -0.49121973      -0.00841644       0.01461807      -0.01866160
H        1.98997360       5.14359377       1.06265338      -0.00593046       0.02232607      -0.01753956
H        3.62630815       5.86073491      -1.12274171      -0.00069793       0.01649025      -0.01192094
O       11.15533020       1.83760247       1.22110730       0.00076628      -0.00128444       0.01103342
C        9.82457571       2.33866511       1.17402096      -0.00552517       0.00273839       0.00064448
H        9.66018515       3.09570315       1.94462423      -0.00741993      -0.00357494       0.00515079
H        9.08890677       1.54365434       1.31870491      -0.00066367      -0.00057209      -0.00661736
H        9.67708894       2.79086764       0.19262938      -0.00065958       0.00781506       0.00393215
H       11.23232184       1.33388193       2.05659250      -0.00201219       0.00887323      -0.00537939
O        3.23965234       6.64210615       2.68080984      -0.00205487       0.00003512      -0.00291359
C        2.04365671       7.40484646       2.60909587      -0.00196461       0.00202644       0.00087568
H        1.68991363       7.49891794       1.57714890      -0.00383460       0.00413840       0.00196645
H        2.19251467       8.40277215       3.02759037      -0.00018116       0.00056833       0.00232293
H        1.28205500       6.87662230       3.17902174      -0.00081985       0.00128527       0.00158484
H        3.84709261       6.98861037       2.01356523       0.00128172       0.00992119       0.00547910
O        6.86784996       1.61239770       8.96610191       0.00782028      -0.01082993       0.00737333
C        7.66321165       2.45994116       9.77185692      -0.00164783      -0.00341126       0.00781786
H        7.23995384       3.46193695       9.71368649      -0.00587110      -0.00582585      -0.00022005
H        8.70433062       2.49868676       9.42461740       0.00038353       0.00027177       0.01441196
H        7.65773669       2.15555464      10.82425364      -0.00667248       0.00217204       0.00940832
H        7.16700761       0.70399235       9.12705482       0.00977470      -0.00967345       0.01343653
