147
Lattice="11.964671837754743 0.0 0.0 0.0 11.964671837754743 0.0 0.0 0.0 11.964671837754743" Properties=species:S:1:pos:R:3:forces:R:3 energy=-86163.828125 stress="0.0005908689345233142 0.0004591669130604714 -0.00028107651451136917 0.0004591669130604714 0.00029668575734831393 0.00034992214932572097 -0.00028107651451136917 0.00034992214932572097 3.588567051338032e-05" pbc="T T T"
O       11.65679034      12.03786186       0.31491406       0.00329706       0.00027150      -0.00089765
H       11.41898041      12.77568089       1.02077574       0.00026149       0.00313728      -0.00655851
H       10.85013546      11.87977254      -0.40207066       0.00506645      -0.00466970      -0.00511046
H       11.70561993      11.22049704       0.86942858       0.00150885       0.00307685       0.00350380
B       10.50728129      10.51497970       2.91036319      -0.00071368       0.00677462       0.00322549
F       11.61899257      10.12079698       2.09014259       0.00106782       0.00556135       0.00650057
F       10.01460789       9.43426409       3.59453130       0.00071621       0.00929564       0.00803360
F       10.98480968      11.50047098       3.81787501      -0.00320680       0.01215038      -0.00023603
F        9.55574116      11.09749245       2.08163126      -0.00057167       0.00195453      -0.00014156
O        6.05771452       8.64125846      10.47625496      -0.00460157      -0.00293358       0.00011271
C        5.06203958       7.97874067       9.68601209      -0.00389451       0.00045530      -0.00375257
H        4.26624863       8.67395232       9.40278549      -0.00322299       0.00196210      -0.00226282
H        4.64757196       7.11140991      10.20497569      -0.00500067      -0.00146395      -0.00771306
H        5.54379266       7.62808497       8.77896576      -0.00267810       0.00390175      -0.00450954
H        5.64268860       8.85573717      11.32483284      -0.00616594      -0.00458245       0.00002277
O        3.97192073       8.86363427       0.52017562       0.00166708       0.00051934       0.00205308
C        3.69587303      10.13715298       1.14536566       0.00190130       0.00175881      -0.00233973
H        2.67179298      10.17356431       1.51890261       0.00368765       0.00249400       0.00193492
H        3.86630762      10.95984843       0.45308364      -0.00125767      -0.00009486      -0.00530790
H        4.38648193      10.22965374       1.97903184       0.00563170       0.00479314      -0.00498086
H        3.33687571       8.73622531      -0.19229236      -0.00105512      -0.00122473       0.00024176
O        5.10415235       3.16491675      11.03934876       0.00532705      -0.00050119       0.00601739
C        4.59992106       1.83268594      10.92914806       0.00284336       0.00037858       0.00295951
H        3.81035347       1.64585788      11.65995624       0.01181072      -0.00414438       0.01164737
H        5.40943520       1.11828108      11.09408076       0.00540242      -0.00025690      -0.01135835
H        4.20010553       1.66722168       9.92351556      -0.00990637       0.00627325       0.00662267
H        4.60807962       3.63030664      11.74557044      -0.00146748       0.00140554       0.00025970
O        5.99134539       9.09539766       6.67078401      -0.00067949       0.00513679      -0.00104120
C        4.85595364       9.82674122       6.22724891       0.00069769       0.00651464      -0.00205430
H        3.94493621       9.51912583       6.75026858      -0.00074932       0.00536916      -0.00517035
H        4.70223024       9.69027545       5.15337932       0.00343651       0.00946866      -0.00286627
H        5.03570580      10.88225204       6.42800451       0.00033282       0.00610539       0.00096780
H        5.86399404       8.18308987       6.34062543       0.00136217       0.00609498      -0.00472055
O        8.22608641       7.09250699      10.68620531      -0.00540522      -0.00233763       0.00456553
C        7.61321232       5.79154703      10.69954082      -0.00394951      -0.00309668       0.00944903
H        8.40734212       5.05568533      10.81506447      -0.00239933      -0.00242372       0.00383528
H        7.07154249       5.59830107       9.77229887      -0.01038930      -0.00374330       0.01330838
H        6.92375409       5.69432275      11.54150030       0.00229087      -0.00348122       0.01471460
H        7.49252365       7.73884544      10.53749641      -0.00643608      -0.00363804       0.00287954
O        8.36372731       7.87952826       1.47219674       0.00899744       0.01525646      -0.00428802
C        7.38962644       8.89176550       1.66175244       0.00114232       0.00779305      -0.00378653
H        6.37537510       8.50410484       1.51133878       0.00345865      -0.00217211       0.00487632
H        7.55048187       9.74938154       1.00198683      -0.01069485       0.00556087      -0.01016352
H        7.48093955       9.24086007       2.68804777       0.00476316       0.01468024      -0.00626898
H        8.36409641       7.61421330       0.53698137       0.00308166       0.00765926      -0.00242730
O        8.20678568       4.47676103       5.81190099       0.00602543      -0.00777871       0.01020905
C        7.30940232       4.73493077       6.87760816       0.00023052      -0.00820560       0.00550026
H        7.11446992       5.80459736       6.99438747      -0.00198197      -0.00840881       0.00391471
H        7.68447055       4.33944729       7.82688277      -0.00446807      -0.00722530       0.00790536
H        6.35970326       4.25117694       6.65564264       0.00204909      -0.00986315       0.00082748
H        9.02067315       4.99457255       5.99385683       0.00233569      -0.00152220       0.00973421
O        4.79603743       4.82651012       8.90622376       0.00872338      -0.00569987       0.00132656
C        3.72237137       4.42210907       8.08338779       0.00715047      -0.00539480       0.00288978
H        2.76739127       4.40061321       8.62469252       0.00814283      -0.00542490       0.00460544
H        3.88655111       3.43157827       7.64000699       0.00639186      -0.00541192       0.00246961
H        3.62875212       5.14196800       7.27014870       0.00583354      -0.00527868       0.00311789
H        4.88534707       4.18715092       9.64426899       0.00841417      -0.00420131       0.00239893
O        7.77472573      10.88813612       7.69165548      -0.00372565      -0.00140861       0.00476176
C        9.06937843      10.65951730       7.14208212      -0.00449869       0.00403976       0.00056405
H        9.04426839      10.62175697       6.05040346      -0.00832079       0.00374889       0.00068438
H        9.50506250       9.72994700       7.51962518       0.00082650       0.00597271      -0.00072820
H        9.70834388      11.48608431       7.45125354      -0.00695676       0.00704542      -0.00182691
H        7.17703853      10.17153825       7.39784661      -0.00325699      -0.00127588       0.00249031
O        5.35916558       6.84631276       5.33079116       0.01030129       0.00527322      -0.00131306
C        6.17913469       6.71720676       4.16950239       0.00986172      -0.00243222      -0.00093572
H        6.47812637       5.68131134       4.00763568       0.02037188      -0.00185865       0.01287665
H        7.07452243       7.31410810       4.32836661       0.00391719       0.00957751      -0.01046161
H        5.66205176       7.09197974       3.28259734       0.00451303      -0.01988083      -0.00568274
H        4.68907765       6.14351400       5.29323722       0.00782063       0.00710250       0.00091358
O        3.68818610       4.88956344       4.34478399      -0.00127758       0.01649648       0.00237614
C        2.67044025       3.89127703       4.29773915       0.00130995       0.01377194       0.00219374
H        2.69050549       3.35371473       3.34591422       0.00172018       0.01531041       0.00128189
H        1.67441165       4.31965210       4.44795703       0.00029129       0.01110266       0.00362526
H        2.86151235       3.18508671       5.10442168       0.00368113       0.01290143       0.00079715
H        3.60900107       5.45588832       3.56265315      -0.00291248       0.01662333       0.00312826
O        1.38578474      12.04896349       5.53613705      -0.00772446       0.01398966      -0.02639720
C        1.99391667      11.10074587       4.67942274      -0.00101790      -0.00102518      -0.00671861
H        1.83502104      10.07196270       5.02358709      -0.00725881       0.00503558       0.00983669
H        3.06596775      11.30161168       4.68861332      -0.00065991      -0.00291290      -0.00256201
H        1.62462910      11.18174965       3.65171767       0.00680587      -0.01695575      -0.01135692
H        0.43568348      11.91463253       5.46609035      -0.00563106       0.02248080      -0.04386116
O       10.13242522       6.21002793       6.46487995      -0.00110815       0.00295447       0.00562340
C        9.77233866       7.33233906       5.65737671       0.00216467       0.00188287       0.00255051
H       10.52356595       8.12215985       5.70971146      -0.00037628       0.00399902       0.00842859
H        8.80365142       7.74682428       5.95590617      -0.00133851      -0.00051844      -0.00492774
H        9.71333959       6.98758892       4.62956552       0.01117932       0.00162180       0.00202245
H       10.11609804       6.49499075       7.40053291      -0.00428086       0.00397970       0.00534980
O       10.44760320       6.90581051       9.05687327      -0.00456148      -0.00017560       0.00574568
C       11.09448838       5.69976730       9.46679749      -0.00231704      -0.00072589       0.00091593
H       11.18339973       5.65017029      10.55305958       0.00229713      -0.00261771       0.00055808
H       12.09414488       5.70053516       9.03363920      -0.00412473       0.00067222      -0.00317509
H       10.55933045       4.81463597       9.10742969      -0.00331773      -0.00037184       0.00145949
H        9.64346085       7.03549216       9.60512854      -0.00477798      -0.00322689       0.00603057
O        7.57733984       2.25610848       4.36873428      -0.00063959       0.00028098       0.00007069
C        7.09054185       1.43381504       5.40647991       0.00677645      -0.00654066      -0.00179249
H        7.69191812       1.51973691       6.31685175       0.01331019      -0.01276924      -0.00543728
H        7.13094833       0.39460670       5.07698386       0.00393313      -0.00456053      -0.00917481
H        6.04695949       1.66850094       5.66589988       0.00851470      -0.00834872       0.00748996
H        7.83692262       3.10102327       4.78277272       0.00275624      -0.00246494       0.00399428
O        0.97288959       7.95529017       7.34463237       0.00520664      -0.00883335       0.00685292
C        1.33431596       7.09545287       6.27381621       0.00322077      -0.00372046       0.00156274
H        0.66015584       7.18890870       5.41708792       0.00400105       0.00587846       0.00191292
H        1.35383300       6.04393093       6.57855686      -0.00164719      -0.00638694      -0.00658970
H        2.33946389       7.38164038       5.96182298       0.00490043      -0.00584930       0.00491023
H        0.09738636       7.70524281       7.65974784       0.00327900      -0.00769206       0.00252331
O        3.65971195       1.05666249       2.24406519      -0.00114149       0.00535923      -0.00813794
C        4.98933016       1.45724307       2.58286488      -0.00293702       0.00637368       0.00663042
H        5.55726252       0.64241217       3.04354129      -0.00701451       0.00739345       0.00851083
H        5.00779111       2.31862994       3.25307663      -0.00704518       0.00749433       0.00183609
H        5.48523129       1.73913693       1.65603196      -0.00309885       0.00292650       0.00488505
H        3.16570646       0.94591646       3.06090237      -0.01271634       0.00987287       0.00948200
O        9.94345980      11.52786125      10.62166225       0.01087931      -0.00805017      -0.00390819
C        9.57816976      10.13757492      10.68632843       0.01008146      -0.00785925       0.00377200
H        8.55239853      10.01972450      10.33621688       0.01126155      -0.00935853       0.00060757
H        9.65148551       9.77699722      11.71400267       0.00587562      -0.00167245       0.00635916
H       10.24430392       9.56486562      10.04161554       0.01232049      -0.01168323       0.00957276
H        9.12091701      12.05179300      10.38634958       0.00893971      -0.00819816       0.00084356
O       10.79290549       6.78322701       2.48461685      -0.00384507       0.00510359      -0.00172901
C       10.76391588       6.17226745       1.21787556      -0.00310130      -0.00000381       0.00059620
H       11.00617536       6.88274971       0.41575637      -0.00546690      -0.00243276      -0.00232530
H        9.78808695       5.72542278       0.99316479      -0.00218245      -0.00337593       0.00292743
H       11.51193019       5.37853100       1.21358469      -0.00105396       0.00177811       0.00302467
H       10.11660956       7.47638334       2.47105192      -0.00482118       0.00428877      -0.00517755
O        3.46908483       4.38365656       0.80966555      -0.00749385      -0.00223050      -0.00461212
C        2.18442934       4.32733819       0.20511389      -0.00820583      -0.01265225      -0.00228018
H        2.17573831       3.48708784      -0.48764360      -0.00206818      -0.01172230      -0.00371106
H        1.96393877       5.24189481      -0.35592348      -0.01739983      -0.01364979      -0.00040804
H        1.40325726       4.16514982       0.95296926      -0.00561023      -0.02145045      -0.00125852
H        3.51648696       5.22659296       1.30103185      -0.01190128      -0.00184187      -0.00479971
O       11.13049442       1.70131326       2.14902710      -0.00296193       0.00744116      -0.00727534
C        9.87145185       2.38812369       1.99325453      -0.00410309       0.00553173      -0.00482115
H        9.65944773       2.98374944       2.87818064       0.00001965       0.01048964      -0.00703424
H        9.05755337       1.68008721       1.83982804      -0.00461882       0.00428802       0.00296574
H        9.97813062       3.04290904       1.13104785      -0.00898163       0.00100064      -0.00903066
H       11.04358503       1.08632668       2.90037839      -0.00078683       0.00871074      -0.00554335
O        3.26654704       6.74236760       2.18172948      -0.00757140      -0.00079259      -0.00403470
C        1.91758490       7.16448014       2.44382668      -0.00722390       0.00204451      -0.00546759
H        1.38715549       7.41304875       1.52318598      -0.00478819       0.00518935      -0.00608864
H        1.90144347       8.02783324       3.11120832      -0.00634123       0.00075969      -0.00375871
H        1.39445405       6.34370420       2.92630808      -0.01006511       0.00230406      -0.00818016
H        3.69709660       7.45545827       1.67372787      -0.00442113      -0.00036177      -0.00058654
O        7.73704385       0.59657754       9.76961910       0.00516318      -0.01190233       0.00879627
C        7.69193829       1.96223373       9.36290761       0.00026808      -0.01498550      -0.00186300
H        6.80979676       2.16317066       8.75173963      -0.00037339      -0.02388482      -0.00401451
H        8.58495290       2.24569096       8.79560434      -0.00078624      -0.01656049      -0.00452435
H        7.62045526       2.57312216      10.26112118      -0.00207578      -0.00756054      -0.00691339
H        7.64875355       0.01432631       8.97708085       0.00200913      -0.01593390       0.01140967
