148
Lattice="16.326185400771934 0.0 0.0 0.0 16.326185400771934 0.0 0.0 0.0 16.326185400771934" Properties=species:S:1:pos:R:3:forces:R:3 energy=-1382127.625 stress="-0.0005774535238742828 6.90567821948207e-06 -7.027408355497755e-05 6.90567821948207e-06 -0.00015788244490977377 -0.0001876293681561947 -7.027408355497755e-05 -0.0001876293681561947 -0.0003157100290991366" pbc="T T T"
Pm      17.81886847      16.89273590      -1.62001896      -0.01498273      -0.01247934       0.00668776
Cl       1.10493528      16.75259922       7.58110977       0.02661288       0.01543474       0.00734603
O        2.22916226      16.09397058       6.89670718       0.02684951      -0.00172842       0.02541471
O        1.29170580      16.66707991       9.05183772       0.01164764       0.02676922       0.01102471
O       -0.16753101      16.05607828       7.22101586       0.02349663       0.02350950       0.00278556
Cl      12.16782683      14.67407716      10.47889040      -0.00707461      -0.01155871       0.01019716
O       13.54721564      14.52278200      10.95747326      -0.02276444      -0.00492141      -0.00319469
O       11.48123593      15.80082408      11.11217412      -0.00842273       0.00610900       0.00689805
O       11.41307214      13.42070608      10.62056336      -0.01797450       0.00954509       0.01177019
Cl       7.96659953      15.17384609       6.72537586       0.00364518      -0.00716043      -0.00169492
O        9.30961815      15.69025726       7.02691302       0.00546455      -0.00646913      -0.00454932
O        7.88041441      14.70785139       5.32852693      -0.00006455      -0.00270391      -0.00253701
O        7.56647654      14.11145009       7.65999231       0.00930786      -0.01096702      -0.00335968
Cl       6.21128090       4.43124368       6.34272321      -0.01754538       0.01851964       0.01255162
Cl       4.89959958       6.42002095       4.67322008       0.01373157       0.01964755      -0.00897723
Cl       7.62727292       6.87724164       5.61696000       0.01465806      -0.00455257      -0.00263034
C        6.44201836       5.67312715       5.09344051       0.00270314       0.00473086       0.00332421
H        6.83430863       5.18669155       4.20767500       0.00005944      -0.00794192       0.00944859
Cl       3.27559716      14.39920528      10.61279567      -0.01350689      -0.00243494       0.01081272
Cl       0.39847804      13.94235196      10.51511281      -0.01031095      -0.01030084      -0.02654281
Cl       1.60338403      14.69546032      13.09043780      -0.04610142      -0.00631176      -0.00939050
C        1.69732488      14.87978994      11.10051761      -0.01853700      -0.00727127      -0.00769389
H        1.54731576      15.94481289      10.95397821      -0.02074573      -0.00947553      -0.01367040
Cl      10.73116508       9.66835146       6.22417282      -0.00683179      -0.01732135      -0.00074291
Cl      10.43635217      12.56674356       6.52616283       0.00642249      -0.01445621      -0.01885772
Cl       8.35363567      11.01089260       5.19227209      -0.00197315      -0.01315838      -0.00625208
C        9.59381886      11.02818501       6.45321937      -0.00067374      -0.01108037      -0.00791844
H        9.10142542      10.86641967       7.40228130      -0.00024049      -0.00312281      -0.00627673
Cl      15.66164193       9.85854958      13.23702055       0.00252026       0.00487305       0.00074382
Cl      13.46336522      11.45224313      12.14915791       0.00129254       0.00124979      -0.00157851
Cl      13.17958705       8.55286790      12.39161568       0.00508741       0.00083658      -0.00005949
C       13.89063434      10.02596199      13.07947720       0.00228796       0.00254495      -0.00077872
H       13.49441570      10.13377630      14.08141244       0.00151870       0.00236969      -0.00102705
Cl       7.88885678       5.04125369       9.59082508       0.01061738      -0.00529068      -0.00031966
Cl      10.31784155       5.96780731       8.25851096       0.00706741      -0.01439092      -0.01107554
Cl       9.84301992       3.09916502       8.62355736      -0.00016099      -0.01225042      -0.00855164
C        9.12093588       4.67892193       8.34544809       0.00319125      -0.01037369      -0.00586461
H        8.59153071       4.65538208       7.40228467      -0.00118294      -0.00826241      -0.00308225
Cl       2.91934804      10.29958242      11.47949271      -0.00302958       0.00400759      -0.00340455
Cl       5.34520452       8.67135169      11.56304364      -0.00257880       0.00631616       0.00712736
Cl       5.34066990      11.22288439      10.13130755       0.00030971       0.00288728       0.00170940
C        4.68280575      10.32610603      11.50307948      -0.00313985       0.00578893       0.00167002
H        5.00077266      10.82523971      12.41062721      -0.00647432       0.00799356       0.00128511
Cl       9.65567993       2.24006845       1.21304704       0.00622198      -0.00115653       0.00589949
Cl       8.93147254       0.88923284       3.70065915      -0.00428483       0.00158954       0.00573137
Cl       9.47977297       3.76585993       3.70668892      -0.01218191       0.00517906       0.00467333
C        8.83269538       2.37792548       2.77515888       0.00074884       0.00024965       0.00299114
H        7.78851511       2.59648906       2.58452064       0.00210392      -0.00445959      -0.00533322
Cl       9.44263085      15.43004931      13.98054772      -0.00463876      -0.01506893      -0.01032883
Cl      12.05789457      14.12044346      13.97279604       0.00022519       0.00014070       0.00870284
Cl      11.80472607      16.85935991      14.94717639      -0.01801002       0.00540274      -0.00768564
C       11.01189071      15.27985125      14.79516108      -0.00772150      -0.00038059      -0.00187748
H       10.82309071      14.90996567      15.79466358      -0.00639884       0.00603251       0.00058579
Cl      14.74518081      11.00152499       7.71084725      -0.00660501       0.00211276      -0.00691676
Cl      14.08739296      12.29891370       5.18848971       0.00946895       0.02550939       0.00066097
Cl      15.97599004      10.07243699       5.22835451      -0.01005760       0.00926591      -0.01051486
C       14.52834807      10.77015986       5.98148009      -0.00572863       0.01653402      -0.00871760
H       13.70933534      10.07842981       5.83158099      -0.01086226       0.02414632      -0.01440925
Cl       7.55057854       6.92722046       1.80549800      -0.01262265       0.01219835       0.01458175
Cl       5.72685759       4.72703594       1.21527482      -0.00049784       0.00724041      -0.00254064
Cl       4.85943221       7.48158940       0.80133517      -0.00003605       0.00388724      -0.02251141
C        6.24005808       6.36775182       0.76668900       0.00253638       0.00672853      -0.00084548
H        6.60938260       6.32675681      -0.25125090       0.01584297       0.00426671       0.00423172
Cl      13.21235641       2.66807426       3.81518331      -0.00752890      -0.00551879       0.01136229
Cl      15.40095458       0.13368899      -1.19515964      -0.01741794      -0.00273724       0.01293175
Cl      15.09892529       0.81189797       5.00471548      -0.00973451       0.00807691       0.02164742
C       14.00416552       1.21546242       3.85761426      -0.00326543      -0.00323430       0.01127996
H       13.72497616       0.48462279       3.10942166       0.00948040      -0.00446612       0.00665748
Cl       5.17544960      11.84578307       3.89543255       0.00570880      -0.00586545       0.00350003
Cl       3.29841370       9.60541961       4.03577752      -0.00557527       0.00323745      -0.00840275
Cl       3.23699476      11.39775104       1.74957282       0.01208694       0.00765271      -0.00455577
C        4.27370622      10.63627799       2.98817347       0.00385612       0.00021847      -0.00237683
H        4.98251210      10.00274049       2.46466055       0.00277667      -0.00218402      -0.00073055
Cl       7.36578510       4.05177639      14.33049951       0.00395731      -0.00064426      -0.00069453
Cl      10.11203793       5.00659361      14.11859434       0.00568898      -0.00575389       0.00068749
Cl       9.27240520       2.63091745      12.63931469       0.00051638      -0.00114775      -0.00378820
C        8.79405450       4.20177880      13.25914567       0.00393496      -0.00136029      -0.00037685
H        8.50564269       4.83067657      12.42410249       0.00537937       0.00074273       0.00105962
Cl       7.57957856      13.25305827      -0.28262815      -0.00096729       0.00509621      -0.01279797
Cl       5.86320729      10.96453777      -0.84517297       0.01325811      -0.00853630       0.00311445
Cl       7.60689904      10.92532061       1.48884038       0.01612104       0.01687571       0.00189260
C        6.62981208      11.94999123       0.42115615       0.00831982       0.00371670      -0.00342574
H        5.83608532      12.38203272       1.02237459       0.00609480       0.00210049      -0.00593238
Cl       0.26008001       3.26227268      14.16891982      -0.01180309      -0.00939821       0.01947773
Cl       2.21162004       3.05534430      16.31854630      -0.00016400      -0.01394925       0.00684404
Cl       2.30599531       5.35168630      14.49393944       0.00528590      -0.02301660      -0.00619076
C        1.26388937       4.21715515      15.30406452       0.00389230      -0.01107353       0.00776149
H        0.59070297       4.73634130      15.97943551       0.01498345      -0.00075964       0.01037489
Cl       9.96438322      10.70394661       9.98331036      -0.00703192      -0.00022084      -0.00474386
Cl       7.99282800       8.86786469       8.83965891      -0.00399427      -0.00599565      -0.00001764
Cl       9.52225358       8.08512851      11.19814287       0.00902000      -0.00434428      -0.00830588
C        8.78980908       9.43853616      10.32205869      -0.00041471      -0.00552310      -0.00218844
H        8.01876816       9.85617384      10.95739064       0.00090593      -0.01011515       0.00187969
Cl       3.26894952       1.52228775      13.15822148       0.01915932      -0.02735999       0.03495596
Cl       5.43521502       1.70684888      10.29710312      -0.01363337      -0.00602901      -0.00281554
Cl       4.93527545       4.34158254      11.38328133       0.00084245      -0.00239456      -0.00644035
C        5.48185990       2.78701190      11.54246864       0.01068030       0.00106067      -0.01057657
H        5.94761498       2.50557792      12.47561978       0.02476004       0.00564417      -0.01615983
Cl       2.14386765      13.15696131       5.33152011       0.00771582       0.01076657       0.00320965
Cl       4.49603506      13.32220889       7.07695465       0.00642526      -0.00203305       0.00478122
Cl       2.06021094      11.99247181       8.00189997       0.00403658      -0.00351955      -0.00324279
C        3.08688624      12.36770681       6.61344083       0.00558233       0.00242418      -0.00013301
H        3.44594982      11.42875978       6.21414339       0.00497615       0.00507370      -0.00578988
Cl       9.56962878      11.05183443      13.39977814       0.01708975      -0.00010540      -0.00472218
Cl       9.70764908       8.50697132      14.84196320      -0.01089915      -0.00134739      -0.00484560
Cl      11.18687305      10.82879612      15.80523278      -0.00351402      -0.01177859       0.00794338
C        9.72533317      10.27510133      14.97077328      -0.00031815      -0.00144332      -0.00427567
H        8.88006377      10.55932266      15.58211560      -0.00344843       0.00356996      -0.01085812
Cl      -0.78989456       7.29082136       7.87044710      -0.00642732       0.00140642      -0.00088668
Cl       2.09467242       7.50843752       8.31044916      -0.00577374      -0.00318228      -0.00436021
Cl       0.22381213       7.95488219      10.51099225      -0.00227780       0.00620082      -0.00384364
C        0.52956177       7.05908889       9.02669631      -0.00572646       0.00163471      -0.00155444
H        0.57420086       6.00160268       9.26265335      -0.00751521       0.00236997       0.00112695
Cl      11.87593195      15.09550793       4.58650422      -0.00951787       0.00292024      -0.00439802
Cl      10.10424881      13.65604788       2.77237853      -0.00427556       0.01120736      -0.01534185
Cl      12.42966341      15.07916562       1.71614774       0.01102938      -0.00336578      -0.00137478
C       11.75473122      14.15584327       3.09375744      -0.00402328       0.00234738      -0.00468031
H       12.36326876      13.26724483       3.20882170      -0.00998704      -0.00037238       0.00182721
Cl       3.63179312      15.09551566      -0.33486428      -0.01608428       0.02492870      -0.01022366
Cl       1.59245167      16.21688843       1.39306545      -0.01279479      -0.00510913       0.01263067
Cl       1.16484241      13.62548302       0.17083725       0.00583883      -0.00610375       0.01340538
C        2.36643979      14.68123597       0.87240281      -0.00059512       0.00582254       0.00224432
H        2.84620614      14.23048708       1.73743335       0.01539139       0.01177310      -0.00394514
Cl       4.90213785      -0.87762219       3.34785001      -0.00123448      -0.00062791       0.00681060
Cl       5.44953322       1.76934306       4.46313771       0.00147313      -0.00213437       0.00960703
Cl       4.85902031       1.48587325       1.63052594      -0.00876179       0.00150028       0.01143056
C        4.54523736       0.85182336       3.28150632      -0.00243941      -0.00051130       0.01128420
H        3.48845073       0.98395222       3.48102716      -0.00155735      -0.00125768       0.01586709
Cl      12.45451591       4.91231837      11.50692606       0.00385356       0.00022341       0.00054318
Cl      15.29117017       4.41391084      11.03125659       0.00537026       0.00075497       0.01126240
Cl      13.39208476       4.19513024       8.83552680       0.01076531      -0.01907972       0.00858703
C       13.77095726       5.03716179      10.33863900       0.00630370      -0.00700706       0.00285705
H       13.92864830       6.08620142      10.11487929       0.00529303      -0.00866544      -0.00502843
Cl       1.31689745       6.89290953       4.82947345      -0.00600316       0.01199507       0.00131112
Cl       1.20783539       5.59870600       2.21836143       0.00688430       0.01225011       0.00105791
Cl      -1.24047288       5.97235373       3.78141482       0.00117017      -0.00081354      -0.00452973
C        0.34111867       6.64369454       3.38054764      -0.00116353       0.00715901      -0.00085464
H        0.19275763       7.60477813       2.90131939      -0.00474208       0.00645404      -0.00096635
Cl       2.03478744       3.10203768       5.23729151      -0.01161282      -0.00007731      -0.01807275
Cl       0.15674669       3.84458657       7.33820010       0.00583670       0.00521272      -0.00539531
Cl       2.93665031       3.27468405       8.02080336       0.01159203       0.00882870      -0.02607238
C        1.83865619       3.92369627       6.79748749       0.00181133       0.00461126      -0.01860407
H        2.09451642       4.96461936       6.64915819      -0.00048280       0.00425237      -0.02360849
Cl      13.65296054       9.86496844       1.94752318      -0.00147444       0.00053102       0.01820866
Cl      16.31747839       9.85987826       0.76483900      -0.00199471      -0.01046890       0.01582751
Cl      14.42622631      11.98106993       0.08911895       0.00380372      -0.00645236       0.01396866
C       14.98138849      10.86680649       1.35099691       0.00167509      -0.00525983       0.01563361
H       15.35048705      11.45752950       2.18180650       0.00387020      -0.00486609       0.01413156
