148
Lattice="12.399769026911079 0.0 0.0 0.0 12.399769026911079 0.0 0.0 0.0 12.399769026911079" Properties=species:S:1:pos:R:3:forces:R:3 energy=-358052.875 stress="-0.00026323855854570866 0.00047916575567796826 0.0005092383944429457 0.00047916575567796826 -0.0002099181874655187 -0.0003890715161105618 0.0005092383944429457 -0.0003890715161105618 -6.0206391935935244e-05" pbc="T T T"
Pm      10.35032774      13.16230142      -0.48266817      -0.00624520      -0.00797155      -0.00975080
O        4.31656124      11.46400988       5.82704016      -0.00777374       0.02244383       0.01501054
O        3.06256121      10.58277540       4.20316938       0.02196163       0.02086514      -0.00626725
O        2.77449244      12.72552939       4.87907162      -0.00925738       0.01240343       0.00440180
C        3.34706990      11.51853141       4.90060399       0.00349817       0.01917690       0.00389314
H        4.45926467      12.35616067       6.17628577      -0.01877061       0.02179450       0.02120438
O       -0.47219396      11.86963495      -0.79836590      -0.00149426      -0.00424415      -0.00102767
O        5.28116982      12.38677305       0.10221095      -0.01244283      -0.01705325      -0.03675091
O        4.17505476      10.63916706      -0.95514787       0.02263910      -0.02762628      -0.01414192
C        4.74449210      11.50779585      -0.43976662       0.03813381       0.03034691       0.00559880
H        0.36634850      11.59373116      -0.41443001      -0.00121888      -0.02257908      -0.01680447
O        8.02933113      10.13797640      10.44429026       0.00390124      -0.00781155       0.00244440
O        8.83343479      12.19215539      10.59490748      -0.00411314      -0.00436929      -0.01212391
O        6.73577087      11.87533923       9.83966444      -0.00199270      -0.01678637      -0.01106304
C        7.81080917      11.48695103      10.26298813      -0.00120515      -0.00993657      -0.00739977
H        7.17930484       9.71794771      10.25049293       0.00723279      -0.01409250       0.00253108
O       11.44355989       7.32323558       0.07740691      -0.00152141      -0.01903334       0.01181103
C       10.33803843       7.59715450       0.94460934       0.00070530      -0.00545307       0.01058453
C        9.48555183       6.35454574       1.13942532      -0.00745279       0.00199026       0.02152193
C       10.80727629       8.15011846       2.27874593       0.00564536       0.00149402       0.00584900
H        9.75675006       8.34852272       0.40319176       0.00533953      -0.00580055       0.00519234
H        8.52918350       6.59422592       1.60853719      -0.00606440       0.01336710       0.01822060
H        9.28229528       5.90433147       0.17147448      -0.01010180      -0.00752832       0.02659059
H       10.00206565       5.63137727       1.77128572      -0.01309209       0.00491059       0.02933371
H        9.97267483       8.25515039       2.97322500       0.00709969       0.01177462       0.00580873
H       11.29653343       9.11639547       2.16134999       0.01177643      -0.00243674      -0.00159075
H       11.52069051       7.45719905       2.73132218       0.00147951       0.00025599       0.01031318
H       12.11181256       6.86420887       0.59655485      -0.00237235      -0.01578172       0.01564394
O       11.05023518       1.69029923       1.24798344      -0.03405654       0.00127681      -0.00745732
C       10.84462092       2.23544372       2.54549607      -0.02315831      -0.00152969      -0.00524995
C       11.61369005       3.53975689       2.73003203      -0.00538084      -0.01262885      -0.00696857
C        9.35073276       2.41284267       2.77517085      -0.01882756       0.01949430       0.00394451
H       11.22716743       1.51779859       3.28911804      -0.02954233      -0.00928742      -0.00929004
H       11.25477681       4.07965051       3.60811788       0.01789607      -0.01627754       0.00403830
H       12.67700690       3.36102603       2.86880269      -0.00547510      -0.02735849      -0.02899241
H       11.48824438       4.17662580       1.85231357      -0.01427970      -0.00395227       0.00083156
H        9.15324820       2.94650308       3.70399575      -0.00434838       0.00346200       0.01578484
H        8.85971579       1.44036374       2.82731685      -0.03730758       0.02845639      -0.01339629
H        8.90952625       2.97376793       1.94772247      -0.01227491       0.04450798       0.01859922
H       13.64092388       1.30014702       1.94623761       0.00077370      -0.00229982      -0.00538537
O        5.61252205       2.29172627       6.15940680      -0.01170062      -0.00050315       0.01681304
C        6.97241184       2.09091204       5.71605317      -0.01114225      -0.00484366       0.01991725
C        7.87677277       3.21010448       6.20317762      -0.00983992      -0.00635082       0.02067855
C        7.47926927       0.73115053       6.15393974      -0.01564494      -0.00599504       0.02153489
H        6.90122854       2.12855120       4.62513801      -0.00881837      -0.00549381       0.01983017
H        8.90495761       3.03927592       5.87669220      -0.00925860      -0.01003665       0.02472525
H        7.55470325       4.18253952       5.83289147      -0.00577048      -0.00631078       0.01722942
H        7.87433426       3.24148710       7.29731179      -0.01383666      -0.00354972       0.02041283
H        8.50370390       0.58138143       5.80764142      -0.01544739      -0.00885592       0.02321698
H        6.85728456      -0.06894434       5.75475019      -0.01717223      -0.00414622       0.02041926
H        7.47875329       0.65454033       7.24431422      -0.01809959      -0.00605789       0.02145776
H        5.62686877       2.34546807       7.12388278      -0.01324037       0.01346695       0.01609784
O        6.83787622      10.49492189       1.83758751       0.00320274       0.00405061      -0.01561835
C        8.22716741      10.46279486       2.13674235       0.00075126       0.00268307      -0.00306861
C        9.00848115      11.36663343       1.17853428       0.01211973      -0.00124115       0.00241509
C        8.50363414      10.79259357       3.58986397      -0.01056726       0.00737761      -0.00171703
H        8.51386695       9.43141966       1.93640935       0.00073090       0.00151801       0.00303810
H       10.06257765      11.44265175       1.48313755       0.00897313      -0.00219505       0.01189645
H        8.94116875      10.95936107       0.16740103       0.02101442      -0.00283086       0.00208190
H        8.55798774      12.37516545       1.19475243       0.01458424      -0.00019527      -0.00169272
H        9.57110671      10.71565623       3.80840500      -0.01280290       0.00378134       0.00738018
H        7.95705166      10.12195061       4.25344648      -0.01792258       0.01186667      -0.00363199
H        8.19141274      11.81454387       3.81158273      -0.00725833       0.00965688      -0.00712195
H        6.49653206      11.36464634       2.06995401       0.00268374       0.00421315      -0.01619531
O        4.44819682       4.10766975       9.18867750      -0.01037767      -0.00360893      -0.03163326
C        3.54572231       3.87705242      10.28161194       0.00277752      -0.00082298      -0.02028205
C        2.38326765       4.85148708      10.21839255       0.00561351       0.00353584      -0.00332618
C        3.09346200       2.42558644      10.30160076      -0.00190866       0.00079405      -0.01547079
H        4.13773663       4.08124582      11.17906438       0.01533419      -0.00381985      -0.02810836
H        1.70319785       4.70869129      11.06032497       0.01692379       0.00439556       0.00576581
H        2.74116709       5.88113894      10.23520435       0.00906772       0.00240195      -0.00603039
H        1.81314262       4.69943383       9.29667241      -0.00761827       0.00711305       0.00452432
H        2.42179359       2.23548057      11.14226861       0.00807415       0.00250654      -0.00716850
H        3.95333143       1.75977108      10.38347274      -0.00330088      -0.00214805      -0.02631182
H        2.55743576       2.18370774       9.38055367      -0.01398934       0.00357224      -0.00885472
H        3.91885077       4.23040457       8.39205840      -0.01924452       0.00049379      -0.02507904
O        2.07251479       1.12970270       2.40702818      -0.00081986       0.00266359      -0.00155523
C        3.12203513       1.93658385       1.82038871       0.00069204      -0.00296023      -0.00681660
C        2.72615519       3.39726680       1.79006336       0.00481154      -0.00177431      -0.01267976
C        4.37762709       1.71991338       2.63779081       0.00067621      -0.00416884      -0.00680029
H        3.29385489       1.57434602       0.80147314      -0.00174285      -0.00809366      -0.00519687
H        3.51222324       4.00350319       1.33584353       0.00687274      -0.00579709      -0.01457177
H        1.81089385       3.55129417       1.21433585       0.00581507      -0.00119244      -0.01414452
H        2.57204592       3.75540925       2.80850492       0.00443955       0.00253887      -0.01430574
H        5.21123506       2.23672629       2.15974235       0.00219789      -0.00927658      -0.00923098
H        4.62030085       0.65863186       2.70149655      -0.00409365      -0.00497335      -0.00304596
H        4.25189391       2.11526139       3.64530497       0.00225798       0.00041222      -0.00829624
H        2.30728737       0.45986473       4.02366517      -0.00317343       0.01089375       0.00097066
O        3.68603855       4.50390034       5.30076098       0.01161191      -0.00678414       0.01407206
C        4.46840029       5.70144374       5.21208150       0.00144261      -0.00164595       0.00432678
C        5.12101387       6.01427501       6.54882867       0.00397041       0.01190683      -0.00019431
C        5.47389861       5.60729890       4.07270874      -0.00184107       0.00148377       0.00108892
H        3.74786409       6.49052685       4.98242210      -0.00586954      -0.00891453       0.00273234
H        5.73053151       6.91800372       6.50120937      -0.00246835       0.01559398      -0.00887403
H        4.36420991       6.16437555       7.31937918       0.00604631       0.01155198       0.00176631
H        5.76039190       5.18577943       6.86339633       0.01042306       0.01850779       0.00352571
H        6.10562027       6.49712443       4.03691213      -0.01298401       0.00876659      -0.00768144
H        4.96932808       5.51135249       3.11088765      -0.00413220      -0.01137658       0.00374584
H        6.11838930       4.73445543       4.20955509       0.00942668       0.01055140       0.00470266
H        4.29644127       3.77645682       5.49496302       0.01713360      -0.00284231       0.01303813
O       11.31158468       2.98178491       7.51017210      -0.00071287       0.00647956       0.00315075
C       11.65864893       1.86818013       8.33856733       0.00753987       0.00383991      -0.00413185
C       11.76984557       2.29609846       9.79948909       0.00045377      -0.00480199      -0.00128567
C       10.67182725       0.72977680       8.17584790       0.01790315      -0.00384963      -0.01378251
H       12.64523174       1.56125294       7.98387378       0.01064628       0.01503618      -0.00462097
H       12.22022517       1.48591325      10.39166683       0.00058994      -0.00654187      -0.00388465
H       12.39722118       3.18105663       9.90747917      -0.00412993      -0.00259587       0.00699328
H       10.77288056       2.56226487      10.18275319      -0.00270478      -0.01137967      -0.00547890
H       10.92596982      -0.10719534       8.83077394       0.02389226      -0.00569454      -0.01856384
H       10.64514656       0.37717018       7.14512245       0.02373994       0.00293599      -0.01620701
H        9.66630201       1.06078009       8.45507220       0.01431578      -0.01487225      -0.01428631
H       10.38293458       3.18163692       7.66697009      -0.00030886       0.00291172       0.00956750
O        9.03710895       3.08282679      11.63180057      -0.00469351      -0.01718295      -0.01208237
C        8.18437683       3.59142113      10.54535505      -0.00698921      -0.00956782      -0.00588700
C        7.12751762       2.54978144      10.32087185      -0.01543289      -0.00174427      -0.00357668
C        7.59043426       4.94879637      10.85596549       0.00476170      -0.00673699       0.00370780
H        8.82817255       3.67962009       9.65837305      -0.01168731      -0.01010438      -0.00946981
H        6.47915140       2.85337532       9.50050489      -0.02146295       0.00982095       0.00562747
H        7.55679657       1.57901816      10.10164171      -0.02406331      -0.00286767      -0.01612082
H        6.50445225       2.44905928      11.21241218      -0.00652912      -0.00535520       0.00207683
H        6.83723218       5.17508431      10.09921189       0.00552191       0.00562737       0.00685470
H        8.32843480       5.75036168      10.83490984       0.01213427      -0.01345427       0.00767902
H        7.09147508       4.93919732      11.82706506       0.00714454      -0.00915559       0.00488843
H        9.50188016       3.82519365      12.03895647       0.00583693      -0.02196175      -0.01574866
O        7.76249878       8.48178627       7.86955006       0.01591988       0.00468314       0.01689041
C        8.68596008       7.78386634       7.03188523       0.00720763       0.00332221       0.00884362
C        9.91936918       8.63050822       6.77304481       0.00667953       0.00093400      -0.00172843
C        9.03577959       6.42898643       7.63106502       0.00936928       0.00236595       0.00538141
H        8.15089900       7.62351397       6.08945991      -0.00097829       0.00469900       0.01347095
H       10.61461036       8.12142235       6.10338656      -0.00038990      -0.00046335      -0.00783074
H        9.64161498       9.58736892       6.33035890       0.00464705       0.00152797       0.00071409
H       10.44294989       8.82303787       7.71380751       0.01535722      -0.00013663      -0.00652942
H        9.67392777       5.85565107       6.95423955       0.00272751       0.00133258       0.00006267
H        8.12480790       5.86183326       7.82425275       0.00978373       0.00424986       0.01231456
H        9.57159883       6.56032112       8.57405858       0.01711514       0.00079435       0.00116450
H        8.27482513       8.96531665       8.52788640       0.02193092       0.00568728       0.01146788
O        3.60573119       7.47211269       1.09184872       0.00331053      -0.00475746      -0.00388229
C        2.75052515       7.93154919       2.15487665       0.00705361       0.00147052      -0.00357270
C        1.89299179       9.09717959       1.70244350       0.00998226       0.00228006      -0.00698265
C        1.92742550       6.76568287       2.67802628       0.00333863       0.00788939       0.00501046
H        3.41623437       8.27666456       2.94910861       0.01029736       0.00248525      -0.00685441
H        1.27988349       9.45301955       2.52944466       0.01759289       0.01202374      -0.00572544
H        2.52008762       9.92979515       1.38378783       0.01241553      -0.00366436      -0.01725101
H        1.23399916       8.80396945       0.87815841       0.00331836      -0.00097155      -0.00051780
H        1.29796621       7.07356805       3.51470070       0.01038721       0.01597565       0.00733592
H        2.57316067       5.95967858       3.02000728      -0.00010566       0.00503394       0.00485393
H        1.28835950       6.35898838       1.88664354      -0.00452753       0.00863478       0.01118898
H        3.19395931       7.72521812       0.26136309       0.00590670       0.00014479      -0.00343568
