142
Lattice="12.700591459747306 0.0 0.0 0.0 12.700591459747306 0.0 0.0 0.0 12.700591459747306" Properties=species:S:1:pos:R:3:forces:R:3 energy=-358248.875 stress="0.0014043760020285845 -0.0001643669165787287 -0.0005604630860034376 -0.0001643669165787287 -0.00012089570373063907 -0.0005668231751769781 -0.0005604630860034376 -0.0005668231751769781 0.0003815437958110124" pbc="T T T"
Pr      12.58046066      10.54697167      -3.40790208      -0.00685137       0.01911341      -0.01822817
O        1.59598934       9.29220625       9.07503687      -0.02471030      -0.00648424      -0.00197762
O        3.77136834       9.66540312       8.72326455      -0.02753115       0.02855766       0.01616895
C        2.56496238       8.39436585       7.08269139       0.01024684      -0.01000577       0.01748514
C        2.72519642       9.16596855       8.36577248      -0.01641923       0.00422752       0.01145828
H        3.49884477       8.35772422       6.52729702       0.01887998      -0.00271063       0.03203452
H        1.79800928       8.87436694       6.47086200       0.01325609      -0.02466378       0.00241348
H        2.22311818       7.38014500       7.29461213       0.01614655      -0.01203519       0.01725358
O       11.25874646      13.06888308      12.21519216       0.01136713       0.00155199      -0.01797467
O       12.11804925      11.24175602      11.26773512       0.00097489      -0.00853470      -0.00580269
C       10.23863160      10.96601313      12.73737828       0.00514549       0.01003096       0.00601333
C       11.24597602      11.86460347      12.06297377       0.00630939      -0.00133681      -0.00730745
H        9.23099038      11.30622754      12.49847552       0.00573647       0.02140227       0.01990167
H       10.34017759      11.04357685      13.82036426       0.01804859       0.01054937       0.00478545
H       10.34138332       9.92632091      12.44242761      -0.00909129       0.00837985       0.00668798
O       11.99817357       9.99917680       7.09892633      -0.01318421       0.01664740      -0.01953105
O       11.47488357      11.98901484       7.89750531      -0.00887631       0.02392212      -0.02372780
C       10.95746557      11.55141090       5.59715753      -0.01988712       0.01304109      -0.01926100
C       11.51292135      11.16060231       6.91980424      -0.01335713       0.01727197      -0.01882821
H        9.86791600      11.52020838       5.67884854      -0.01978016       0.01233969      -0.01882669
H       11.28088888      10.85489920       4.82961272      -0.02282514       0.01477483      -0.02165897
H       11.23975721      12.57738559       5.36878677      -0.02323436       0.01245481      -0.02506106
O        4.72852178       4.92614372       8.66432775      -0.00169154       0.00171082      -0.00717977
O        5.72098970       6.45301684       9.80621480      -0.00345994       0.00368748      -0.00764779
O        6.57459392       5.90231273       7.77774575      -0.01037264       0.01148836      -0.01112878
C        4.58705102       4.10279117       7.48430503      -0.00124800       0.00155815      -0.00739063
C        3.29348987       3.35139038       7.65451433      -0.00169620       0.00187407      -0.00748572
C        5.75638249       5.77220238       8.65805324      -0.00330430       0.00640701      -0.01133990
C        6.71850439       7.47213110       9.92137345      -0.00389737       0.00432365      -0.00731978
H        4.58654594       4.74539690       6.60181576      -0.00039079       0.00091937      -0.00769645
H        5.44689741       3.43284000       7.41877181      -0.00150040       0.00105184      -0.00612204
H        3.10829827       2.72600646       6.78118541       0.00020762      -0.00099728      -0.00596997
H        3.34897910       2.70572862       8.53039687      -0.00338377       0.00474924      -0.00527249
H        2.45825171       4.04164739       7.77382392      -0.00217471       0.00201252      -0.01140473
H        7.71423946       7.02556810       9.91005533      -0.00379130       0.00450288      -0.00374819
H        6.52406175       7.94407545      10.87842865      -0.00656675       0.00601538      -0.00835410
H        6.62724401       8.18528649       9.10413830      -0.00144365       0.00288768      -0.00866407
O        3.07142556      11.83870123       5.96547699       0.00191003      -0.01428305       0.01725505
O        1.86453735      12.12921300       7.75825799       0.00454199      -0.00578476       0.01704781
O        4.02798826      12.82461916       7.76118167       0.00988853       0.00793025       0.01094052
C        4.35575376      11.95634100       5.27980840      -0.00435883      -0.00623444       0.00738063
C        4.18363551      11.49756896       3.85937289      -0.00971685      -0.00912945       0.00893790
C        3.10261110      12.30267072       7.20542596      -0.00676811      -0.01169482       0.00549832
C        1.77820949      12.58443692       9.11915871       0.00461069       0.00327888       0.01391336
H        4.67919533      12.99599118       5.34309016      -0.01198182      -0.00302500       0.00373174
H        5.07248342      11.34611557       5.82879065       0.00519106       0.00098065       0.00346822
H        5.15300544      11.53824267       3.35944945      -0.01257996      -0.00765120       0.00383491
H        3.82316979      10.47098964       3.80638989      -0.00770998      -0.01002204       0.01269081
H        3.49667555      12.14952656       3.31958668      -0.01451126      -0.01194906       0.01145089
H        2.10926638      11.78325819       9.79773181      -0.00088028       0.00597957       0.01967853
H        0.73611612      12.88742945       9.28098466       0.00669929       0.01164753       0.01163553
H        2.41496560      13.44575995       9.30307432       0.01040979       0.00077403       0.00777562
O        1.19633394       7.62134472       3.94689633      -0.00502659      -0.00235350      -0.00202419
O        1.49103424       9.45622449       2.84340310      -0.00277463      -0.00238495      -0.00118306
O       -0.54424841       9.05605803       3.75063357      -0.00501633      -0.00347935      -0.00766872
C        0.37598194       6.76287974       4.77759313      -0.00717854      -0.00481430      -0.00667586
C        1.19812265       5.54962125       5.11939207      -0.00740480      -0.00544858      -0.00777225
C        0.60368605       8.73976973       3.53824715      -0.00576085      -0.00244585      -0.00348099
C        0.99980017      10.72254112       2.38098439      -0.00326504      -0.00465211      -0.00670295
H        0.08271144       7.32879058       5.66396607      -0.00975849      -0.00752488      -0.00569233
H       -0.53147542       6.50711828       4.22745971      -0.00557372      -0.00356670      -0.00991037
H        0.64026052       4.92180435       5.81520855      -0.00786130      -0.00664339      -0.00914571
H        1.43489127       4.96997772       4.22730059      -0.00651497      -0.00420490      -0.00851463
H        2.13744919       5.84097672       5.58966952      -0.00784214      -0.00576081      -0.00665160
H        0.07130906      10.59710710       1.82801208       0.00000596      -0.00842974      -0.01126808
H        1.77833270      11.11779098       1.73565436      -0.00082673      -0.00447470      -0.00376418
H        0.83425425      11.39154094       3.22614664      -0.00928901      -0.00281486      -0.00929850
O        8.43881960      10.15461463       8.39875935       0.00322908      -0.00711521      -0.00193548
O        9.31988571       8.25630343       7.98266056       0.00528789      -0.00834554      -0.00161088
O       10.35257136       9.59288147       9.48284868       0.00682630      -0.00183849      -0.00875559
C        8.13015789      11.28543708       9.28095902       0.02115095      -0.00146341      -0.00305539
C        6.78482186      11.79265467       8.83951649       0.02041641       0.00819957       0.01085620
C        9.43903934       9.36272208       8.67748628       0.00552011      -0.00649500      -0.00534686
C       10.25016055       7.19431631       8.25537399       0.01361981      -0.00251859      -0.00369877
H        8.11308957      10.90601939      10.30407216       0.03100116       0.00208269      -0.00174037
H        8.92254803      12.02829387       9.18111506       0.02587199      -0.00829279      -0.01518757
H        6.45680812      12.59966383       9.49417767       0.03373142       0.01043071       0.01464416
H        6.82506218      12.18378645       7.82342080       0.01272603       0.00767021       0.01028478
H        6.03051831      11.00654892       8.87640414       0.01544367       0.01344496       0.01912693
H       11.23665892       7.44581088       7.87012052       0.00986078       0.00333718      -0.00907432
H        9.84609396       6.33723151       7.73474074       0.01726949      -0.00708437       0.00093460
H       10.29301026       6.99554970       9.32555653       0.02083066       0.00190219      -0.00323528
O        5.07658315       2.12846257      11.72772645      -0.00292265       0.00346907      -0.00072299
O        3.00189946       1.49928064      11.73645833      -0.00199063       0.00284232       0.00385837
O        3.48125292       3.65947681      12.22117296       0.00052881      -0.00589073       0.00607398
C        6.08056347       3.16310893      11.90881211      -0.00208175       0.00417128       0.00117706
C        7.42451851       2.52121310      11.68157836      -0.00285003       0.00409001      -0.00548565
C        3.82673471       2.54460478      11.92401931      -0.00583234       0.01247525       0.00681040
C        1.61310931       1.82059450      11.92857622      -0.00193687       0.00297537       0.00875009
H        5.87549687       3.96537327      11.19874951      -0.00467996       0.00700182       0.00504228
H        5.97967912       3.56877725      12.91664611       0.00000536      -0.00068089       0.00331974
H        8.21044601       3.26516441      11.81886207      -0.00245515       0.00346138      -0.00085484
H        7.59939351       1.71050759      12.38936930      -0.00290774      -0.00006667      -0.01149410
H        7.50740084       2.12700684      10.66825993      -0.00430838       0.01200005      -0.00769976
H        1.45403235       2.25964790      12.91157994       0.00000314      -0.00156230       0.01064873
H        1.06427575       0.88770745      11.84765130      -0.00247866       0.00202665       0.00632526
H        1.28375545       2.52967236      11.16746322      -0.00446514       0.00480577       0.01197165
O        9.39147586       3.58803125       6.72027241      -0.00498635      -0.00355364       0.00303701
O       10.01729897       2.84750140       8.65002569      -0.00206785      -0.00391781       0.00277172
O       11.37965798       4.28724099       7.55128352       0.00000006      -0.01273236      -0.00537039
C        9.62274827       4.37295269       5.52641520      -0.00445265      -0.00722037      -0.00003958
C        8.36339710       4.31904219       4.70577274      -0.00534561      -0.00685069       0.00083797
C       10.36249802       3.63393829       7.62915415       0.00057876      -0.01098210      -0.00208176
C       10.98462219       2.79458229       9.71240288       0.00138398      -0.00476179      -0.00102001
H        9.87162017       5.39496862       5.81702204      -0.00196861      -0.00668424      -0.00364777
H       10.48676351       3.95612207       5.00222776      -0.00590795      -0.01089065       0.00041074
H        8.49414151       4.90613362       3.79594309      -0.00441687      -0.01051905      -0.00151843
H        8.12508385       3.29503580       4.42051411      -0.00827916      -0.00729322       0.00474194
H        7.52390259       4.73355341       5.26222017      -0.00395232      -0.00240303      -0.00031628
H       11.94250102       2.44638681       9.32728734       0.00072244      -0.00146189      -0.00529821
H       10.59355666       2.09459229      10.44366308       0.00485122      -0.00770660      -0.00219835
H       11.11500969       3.78259088      10.15457151       0.00064045      -0.00567442       0.00152060
O        8.35229022       8.43119459       0.97280701      -0.00101882      -0.00232047       0.00433704
O        6.67811186       9.77193954       0.68120014      -0.00000820      -0.00215226       0.00222087
O        6.30663991       7.53690751       0.60197426      -0.00121230      -0.00488538      -0.00729550
C        8.88185515       7.08609535       1.04023300      -0.00031799      -0.00204960       0.00328953
C       10.36913737       7.19669476       1.24703871      -0.00056478      -0.00197127       0.00425956
C        7.03497798       8.48697750       0.74528489       0.00335407       0.00200641      -0.00004687
C        5.26805981       9.97934168       0.44916077       0.00070846      -0.00116166      -0.00025583
H        8.38632598       6.56076988       1.85858333      -0.00100768      -0.00317504       0.00256208
H        8.62678477       6.56523925       0.11502929      -0.00007328      -0.00123078       0.00241512
H       10.79506343       6.19904149       1.36268173       0.00052585      -0.00173253       0.00277150
H       10.84914112       7.67062026       0.39003480      -0.00064306       0.00018683       0.00536753
H       10.60052793       7.78041926       2.13797300      -0.00137127      -0.00322695       0.00541624
H        4.98320723       9.58350434      -0.52526238       0.00173931      -0.00188284      -0.00047761
H        5.13255705      11.05684975       0.47020052       0.00069982      -0.00107679      -0.00126379
H        4.68543730       9.48955665       1.22726942      -0.00093377      -0.00012808      -0.00055397
O        5.26489997       7.96559935       3.64997187       0.00786624      -0.00023849       0.00132850
O        3.76288769       7.35288191       2.22665341       0.00651149      -0.00135162       0.00331475
O        5.05199377       5.75654676       3.19100861       0.00729609       0.00053322       0.00300434
C        6.38094698       7.63427743       4.50485590       0.00577883      -0.00006908       0.00462054
C        6.91077867       8.92084697       5.07847672       0.00161985       0.00007093       0.00833043
C        4.72197784       6.90514806       3.02749432       0.00776857      -0.00252068       0.00297481
C        3.15815785       6.34554448       1.39838265       0.00780921      -0.00184837       0.00246911
H        6.04907113       6.94610088       5.28372251       0.00421777      -0.00138980       0.00255036
H        7.13054709       7.11865793       3.90080684       0.00876254       0.00202742       0.00636947
H        7.79645836       8.71670081       5.67991955      -0.00370419      -0.00033701       0.01620828
H        7.17907889       9.61620638       4.28169046       0.00857586       0.00024925       0.01097453
H        6.17092015       9.39106230       5.72671685      -0.00400668       0.00010446       0.00182392
H        3.87537112       5.98050381       0.66771538       0.00883287      -0.00154789       0.00349128
H        2.32611602       6.84244843       0.90686354       0.00818975      -0.00187115       0.00128113
H        2.80340136       5.51499048       2.00507975       0.00708600      -0.00189522       0.00197849
