148
Lattice="11.114155582911467 0.0 0.0 0.0 11.114155582911467 0.0 0.0 0.0 11.114155582911467" Properties=species:S:1:pos:R:3:forces:R:3 energy=-362285.46875 stress="0.00011786377581302077 -0.0003480305604171008 -0.0005492572963703424 -0.0003480305604171008 -0.0006248981226235628 -0.00036290986463427544 -0.0005492572963703424 -0.00036290986463427544 0.001268757157959044" pbc="T T T"
Pr       8.67639809       8.52154605       0.77331817       0.00818148       0.00685060       0.00596334
O        6.72250308       9.18273762       1.43713095       0.00345996       0.00776753      -0.00163111
O        5.66403198       9.24654260       3.38217131       0.00753558       0.02055007      -0.02670896
C        5.09738333      10.88581641       1.73441087      -0.00148022       0.00374383      -0.01048520
C        5.86280504       9.70923633       2.24846024      -0.00164713      -0.00503534       0.02416778
H        4.41257916      10.53573267       0.96047336       0.00106753      -0.00421797      -0.00853856
H        5.77752639      11.60674590       1.28467196      -0.00298746       0.00220193      -0.01243531
H        4.53184761      11.35285706       2.53492626      -0.00624470       0.00167151      -0.01270458
O        0.75494194       8.02273413       8.39656416       0.00487059      -0.00706577       0.00963575
O        0.77187358       9.65214988       6.86737710      -0.00295740      -0.00877088       0.00730687
C        2.86580207       8.87949904       7.68346820       0.00108755      -0.00487237       0.00496986
C        1.35725472       8.85185382       7.64992386       0.00179470      -0.00889046       0.00894964
H        3.26040976       8.64386143       6.69283272       0.00150298      -0.00105165       0.00440173
H        3.27258537       8.18617766       8.41290876       0.00155802      -0.00726360       0.00285128
H        3.20114176       9.88830211       7.92917390      -0.00040445      -0.00542861       0.00913239
O        2.66036754       8.69765378       1.25414988      -0.01025355       0.00526732      -0.01543438
O        2.37715597      10.14976226      -0.41783081      -0.01683670       0.01223886      -0.00615096
C        0.48144567       9.61303989       0.92478585      -0.01430488       0.00184621      -0.01535857
C        1.95628692       9.48740140       0.55413906      -0.01221412       0.01125579      -0.01765987
H        0.30723299       9.31673825       1.95717612      -0.01885599      -0.01572198      -0.02137537
H       -0.02815225       8.93237145       0.22558824      -0.01128839       0.01693300      -0.03195063
H        0.13256710      10.63145231       0.74970931      -0.01218039       0.00578111       0.00117540
O        1.58295724       4.48054172       1.11144172       0.00796479       0.00228456      -0.00095043
H        1.62597670       5.23614352       1.73561411       0.00739239       0.00285469      -0.00196584
H        1.93791226       3.67870576       1.56955439       0.00389163       0.00190927       0.00137873
O        2.05137933       5.74957366       7.86340704       0.00559425      -0.00880988      -0.00734779
H        1.53756506       6.49612751       8.24939132       0.00661466      -0.01098912      -0.00179154
H        1.78740107       4.91660710       8.28777172       0.01587346      -0.01012368      -0.00259228
O        5.21693881      11.24223271       5.20317524      -0.01519321      -0.00005896       0.00851803
H        5.30481276      10.45973106       4.62020519      -0.01292343       0.00529325      -0.00782197
H        5.92525191      11.16182878       5.87552252      -0.00785109      -0.00374541      -0.00424876
O       10.20353667       4.14634961       7.30060009      -0.01545333       0.01602405       0.00976074
H        9.42925029       3.60256625       7.49267951      -0.01927419       0.02569652       0.00604738
H       10.95950505       3.54903031       7.36083063      -0.01812713       0.00868642       0.02303633
O        5.26080100       0.87302863       8.49344816      -0.01196950      -0.00351191      -0.00858335
H        5.00548052       1.80419640       8.35046362      -0.00378925      -0.00161507      -0.00868648
H        6.10439913       0.76096584       8.00671584      -0.01050151      -0.00883869      -0.00501383
O        4.44312944       5.31295922       4.26816343      -0.00163120      -0.01095866      -0.00742212
H        4.44229209       4.32048575       4.35782349       0.00565898      -0.00977752      -0.00278069
H        3.50722703       5.56801485       4.34905268      -0.00347841      -0.01741896      -0.00253231
O        2.82131280       2.28881437       1.98528311      -0.00489646      -0.00496462       0.00172904
H        3.16891145       2.02898820       1.10316244      -0.00281181      -0.00178123       0.00165492
H        2.38414050       1.48516481       2.35438951      -0.00659714      -0.00571236      -0.00275610
O        9.30634711       2.07044507      10.12670841      -0.01838204      -0.00194586       0.03232058
H       10.00581154       1.43361849       9.86987741      -0.01041213       0.00932823       0.02316004
H        9.76595733       2.86552229      10.43167034      -0.02747458       0.00187691       0.03736670
O        7.14942484       6.84016296       0.07411377       0.00435883       0.01051540       0.00713210
H        7.36394153       6.39830245      -0.81236470       0.00227346       0.00511429       0.00883001
H        6.19939929       7.16263429       0.01761044       0.00573990       0.01280979       0.00485214
O        4.92475479       3.55217358       8.63464079       0.01484059       0.00435726      -0.00103825
H        4.86924404       4.29798407       7.98341132       0.01569979       0.00588464      -0.00028523
H        4.51677090       3.92113891       9.44817373       0.01394676       0.00142267      -0.00065277
O        8.24892979       9.73009448      10.01204825       0.01039428      -0.00529764      -0.00024580
H        8.72647860       9.78051721       9.11868521       0.00904565      -0.00829267      -0.00330362
H        7.25029270       9.70159345       9.78335707       0.01108088      -0.00258689      -0.00149383
O        8.27889709       7.52163184       6.60206361      -0.01371360      -0.00411727       0.00879578
H        7.67187851       7.41217257       5.84636147      -0.01230324      -0.00715498       0.00708891
H        7.91201777       6.96724114       7.31040168      -0.01392358       0.00047386       0.01112274
O       10.05893017       4.40900822       0.71780052       0.00791877      -0.00117290       0.00592448
H       11.04475175       4.34252652       0.80359749       0.00847235      -0.00133574      -0.00025188
H        9.72841244       3.75013112       1.37147870       0.01032786      -0.00074123       0.00875761
O        7.58842225       3.31844638       8.41852714       0.00911859      -0.00537822       0.01081893
H        6.62640478       3.28006107       8.64043013       0.00638634       0.00234110       0.00376469
H        8.08120067       2.72790972       9.03416459      -0.00007481      -0.00335439       0.02042116
O        7.89316496       5.90738506       8.89110318       0.00354111      -0.00072113       0.01171370
H        7.80742143       4.93241486       8.72275137       0.00951691      -0.00099342       0.01268480
H        8.84010366       6.08087640       8.98377575       0.00275624       0.00555534       0.01238189
O       10.78517519       1.71511403       4.58146461       0.00758976      -0.00551143      -0.02488953
H       11.45861484       2.26542086       5.03472097       0.00102396      -0.00785312      -0.01182849
H       11.26994993       0.92305369       4.31514773       0.01329283      -0.00007294      -0.03061138
O        9.44249863       2.35128996       2.40616997      -0.00694460       0.00063750      -0.01089506
H       10.02823057       2.21125265       3.20467111       0.00000903      -0.00436842      -0.01620701
H        9.70462470       1.68443402       1.76216869      -0.01501708       0.00571972      -0.01936623
O       -1.09873290       7.38773512      10.02097717       0.00483841      -0.00854886       0.00885262
H       -0.56542861       6.67411410      10.39394426       0.00518197      -0.00613621       0.01246385
H       -0.51592131       7.76714736       9.28372645       0.00692207      -0.00990544       0.00859714
O        4.72235710       5.72718918       7.13131113       0.00532004      -0.00291327      -0.01006873
H        3.80304812       5.89153383       7.41593918       0.00565640      -0.00593373      -0.00734860
H        4.67177302       5.59105358       6.17217370       0.00133755      -0.00694830      -0.00968859
O        0.29649214       0.44018973       9.37609389      -0.01145038       0.03317427      -0.00219600
H        0.77720421       1.17444635       8.95791166      -0.01098944       0.03673221       0.00570412
H        0.99203927      -0.09773622       9.80152237      -0.01165227       0.02928840      -0.00419744
O        2.51502744       0.40372481       5.75211437      -0.00998953      -0.01440604      -0.00347567
H        1.97727520      -0.26145971       6.23372673      -0.01046690      -0.01129735      -0.00176707
H        3.46230435       0.17535901       5.82181620      -0.00846347      -0.01141290       0.00379466
O        9.12325970       9.56351394       2.83030599      -0.00062371      -0.00144424       0.01174533
H        8.53907268      10.29392096       3.18360951       0.00177217       0.00021566       0.01268838
H        9.66983044       9.18562360       3.58637958       0.00113718      -0.00229316       0.01032455
O        1.34398885       6.80863979       2.51268407       0.00208664       0.00506823       0.00097513
H        1.86804819       7.55144150       2.09415225      -0.00323905       0.00455052      -0.00262987
H        1.50789848       6.85004568       3.46805353       0.00445109       0.00817238       0.00145671
O        9.90756924       6.77419414       1.74588520       0.00117797       0.00091493       0.00406963
H       10.81925406       6.86055207       2.14442194       0.00020120       0.00265449       0.00572598
H        9.86846585       5.82205733       1.39653730       0.00541291       0.00148040       0.00241228
O        1.77881136       5.81501759       5.11975738       0.00812528      -0.00603901      -0.00242215
H        1.84229746       5.94576544       6.09080016       0.00528197      -0.01208065      -0.00082548
H        0.80629783       5.69037844       4.95033996       0.00947237      -0.00460687      -0.00620295
O        3.91326098       4.83510009      -0.29767178       0.00654303       0.00549766       0.00189102
H        4.52269948       4.65797273       0.45124711       0.00826096       0.01477189       0.00301544
H        3.01504559       4.68549011       0.06775828       0.00775277      -0.00114263       0.00234233
O        9.23793862       9.77660236       7.62897117      -0.00117347      -0.00831372       0.00248512
H        8.89963119       8.95048739       7.19193891      -0.00687679      -0.00599172       0.00130017
H       10.20264351       9.82865139       7.43691371      -0.00100836      -0.01314117       0.00352154
O        1.82726659      11.22295236       3.25817562      -0.00276778      -0.01351508      -0.00374727
H        2.15693071      11.31779922       4.20180543      -0.00316570      -0.01673989      -0.00232843
H        2.17259344      10.37427518       2.95752821      -0.00776804      -0.01442008      -0.00532407
O        1.72190122       3.10830176       5.84755728       0.00041577      -0.01111615      -0.00471671
H        1.84595369       4.02100223       5.52480353       0.00053525      -0.01006739      -0.00135572
H        2.47523435       2.60589512       5.49180894       0.00139876      -0.00851832      -0.00675991
O        7.15781287       2.84066686       5.60117957       0.01421269      -0.00765163       0.00766587
H        7.50992041       3.50176754       4.97528992       0.00705244      -0.00317189       0.00824524
H        7.26953200       3.21474358       6.48780321       0.01170330      -0.00864124       0.00805058
O        8.00883200       4.68943153       3.66352264      -0.00190312       0.00104701       0.01292735
H        7.58406376       5.55606012       3.84793571      -0.00328630       0.00266883       0.00711098
H        7.54306238       4.35237569       2.88530386       0.00586899       0.00052080       0.00923015
O        1.66886151       2.87852686       8.61742801       0.00517502       0.02662255      -0.00740952
H        1.98533030       2.79625761       7.69915471      -0.00735219       0.00926524      -0.01101083
H        2.37978210       2.54691819       9.19700138       0.00483015       0.02105150      -0.01049704
O        7.37253890      11.53357916       6.82202721      -0.00037044      -0.00863595      -0.00126129
H        8.15631781      10.98146401       7.03747331      -0.00194450      -0.00865697       0.00400212
H        7.66140682      12.33124647       6.34565126       0.00600937      -0.00669364       0.00603268
O       -0.49591403       8.43002859       4.63249168       0.00719877      -0.00791040       0.00280508
H       -0.11850486       8.88781231       5.40734956       0.00553714      -0.01441354       0.00670227
H       -0.85159494       7.58608248       4.96114125       0.01399881      -0.01543869      -0.00691581
O        5.79844861       9.48363160       9.34767635       0.01156726       0.00187058      -0.00928400
H        5.21685218       8.85531738       9.81054164       0.01026014      -0.00351386      -0.02079130
H        5.30850351      10.30493100       9.17651902       0.00804746       0.00119384      -0.00843648
O       10.29116851       5.53883150       4.91976937       0.00392047       0.00464639       0.00057484
H       10.12685229       5.05610118       5.75769830       0.00504810       0.01481474       0.00661038
H        9.66142229       5.16472745       4.27772076      -0.00709259       0.00582717       0.01008679
O        3.40147639       1.53361159      -0.58898457      -0.00398687       0.00960708      -0.00619999
H        3.01027243       0.63457347      -0.54520039      -0.00868260       0.01005588      -0.00846621
H        4.27170103       1.37326422      -0.98754334      -0.00605682       0.00518358      -0.00695565
O        5.76907605       4.78071133       1.75006016       0.01036143       0.01416540      -0.00392388
H        5.30248486       5.12826266       2.53249002       0.00418635       0.00408424      -0.00246935
H        6.25369237       5.52749753       1.36635757       0.01278290       0.01849812       0.00879584
O        4.61540737       7.48633998      -0.20732078       0.00570205       0.01076895      -0.00936317
H        4.22850560       6.59801776      -0.37121072       0.00612296       0.00956652      -0.00822195
H        3.98300462       7.95678951       0.38705379       0.00446525       0.01102469      -0.01330837
O        7.61726248       0.50589680       3.40082237       0.00342590       0.00371501       0.00465557
H        7.03527490       0.68106990       4.15211680       0.01422312       0.01500172       0.01121338
H        8.11865989       1.32022611       3.21615774       0.00305738       0.00123574      -0.00156110
O        6.68737524       6.97959417       4.36083024      -0.00490999      -0.00368065      -0.00457190
H        5.85311657       6.49761955       4.49589968      -0.00343658      -0.00126291      -0.00773741
H        6.40772528       7.82576252       3.93345937      -0.00352785       0.00303532      -0.00371088
O        4.16350440       2.69845212       4.34010970      -0.00126022      -0.01272416       0.00464818
H        4.78416947       2.00437922       4.61725572      -0.01605666      -0.02714030       0.00659770
H        3.86057030       2.48427688       3.43367550      -0.00552031      -0.00889403       0.00601020
