139
Lattice="13.077868649221175 0.0 0.0 0.0 13.077868649221175 0.0 0.0 0.0 13.077868649221175" Properties=species:S:1:pos:R:3:forces:R:3 energy=-387759.90625 stress="1.1088829523941968e-05 -8.33915728435386e-05 -0.00025175008340738714 -8.33915728435386e-05 -0.0005530762718990445 -0.00014159766578814015 -0.00025175008340738714 -0.00014159766578814015 -0.0004951005685143173" pbc="T T T"
Pr      15.34897790      13.53771680      -2.24679243       0.00277275      -0.00464165       0.00784881
Cl      14.50350353      12.54224048      13.03919514       0.04275065      -0.02118596       0.01311216
Cl      13.25219837      13.72614581       9.34859342      -0.00795909      -0.00852744       0.02376644
Cl       4.42675875      13.77556481       9.45775691      -0.01527596       0.01915339      -0.01224458
O        4.01000238       9.07410691       9.38906975       0.01065969       0.00570717       0.00170363
O        5.03078515       7.17952773       9.18079232       0.00550093       0.00360568       0.00433925
O        5.78598330       8.94621052       7.98569919      -0.00007635      -0.00340539      -0.01435471
C        3.89967990      10.46584385       9.03992259       0.00087774       0.00140492      -0.01061857
C        2.55298055      10.94224053       9.54818747       0.00662538       0.00124488       0.00284387
C        5.02249496       8.44525957       8.77497066       0.00119656      -0.00096351       0.00019586
C        6.07834420       6.39168226       8.58902058      -0.00227237      -0.00365856       0.00070345
H        4.73162975      11.01697324       9.47591525       0.00474131       0.00976807      -0.02937156
H        3.97743844      10.57614093       7.95891591      -0.01586051      -0.00951202      -0.01258510
H        2.28549844      11.87853279       9.03186906       0.00136069       0.00044437       0.00455845
H        1.76987519      10.22817765       9.28895408       0.00460561       0.00008944       0.01271213
H        2.53285601      11.04568405      10.65284578       0.01998606       0.00188895       0.00280381
H        6.02078572       6.43325040       7.50473798      -0.00836343      -0.00656980       0.00076589
H        5.89466657       5.37786120       8.91962270      -0.00478521      -0.00162816       0.00506356
H        7.04718211       6.75821397       8.92905161       0.00168276      -0.00750248      -0.00612371
O        4.81502738       3.83420610      11.66170346      -0.00136268       0.00220180       0.01163919
O        2.68205963       3.98731575      11.34400743       0.00053924       0.00024593       0.00310627
O        3.51959672       2.03068367      12.07155764      -0.00308313       0.00078788       0.00318918
C        6.05134868       3.06736965      11.87372411      -0.00237744       0.00211066       0.01194286
C        7.06106270       3.59512447      10.89391489      -0.00744101      -0.01290326      -0.00081292
C        3.68861086       3.20643013      11.71684765      -0.00128251       0.00091606       0.00588311
C        1.45102284       3.28832337      11.10675407       0.00429752      -0.00136322      -0.01099034
H        6.34059577       3.23609317      12.91016004       0.00466557       0.01441824       0.00746244
H        5.83112645       2.01617498      11.70337188      -0.00573789       0.00070021       0.02673691
H        7.99131703       3.04028524      11.00988451      -0.00918335      -0.01561221      -0.00146743
H        6.71016342       3.45289445       9.87285761      -0.01547922      -0.02195536       0.00340772
H        7.25934647       4.65210842      11.06874182      -0.00133612      -0.01225427      -0.01327655
H        1.50503323       2.76701638      10.13753017       0.01605733      -0.00413296      -0.00976966
H        0.67741242       4.04282314      11.01378494       0.00683003      -0.00127874      -0.02359995
H        1.18892209       2.61399434      11.93609241      -0.00534052      -0.00237443      -0.01326248
O        8.88457291       5.58519286       6.89539235       0.00009457      -0.00196417       0.00196416
O        7.91523484       6.81797232       5.41098916      -0.00234736      -0.00259617       0.00413550
O        9.21720552       7.82430382       6.96954820       0.00554860      -0.00020885      -0.00106931
C        9.77316105       5.43932146       8.02744022       0.00388815      -0.00321990      -0.00136078
C        9.85463787       3.97061245       8.34853121      -0.00125991      -0.00242591       0.00282018
C        8.72232703       6.84162807       6.47547578      -0.00113732      -0.00613397      -0.00110352
C        7.52662902       8.12119064       4.93148061      -0.00139683      -0.00291342       0.00232363
H       10.74421140       5.85873116       7.76067938       0.00516611      -0.00863838      -0.00657606
H        9.37128119       6.02683614       8.85585901       0.01041529       0.00109398      -0.00121626
H       10.44558117       3.82634383       9.25422381       0.00200766      -0.00258702       0.00041582
H        8.85975250       3.55916100       8.51896436      -0.00237475       0.00285100       0.00894538
H       10.32157401       3.42633211       7.53191366      -0.00759941      -0.00729579       0.00242120
H        7.02871087       8.66926908       5.72796142       0.00074838      -0.00122885       0.00249401
H        6.85225785       7.93176081       4.10234365      -0.00291473      -0.00258914       0.00387236
H        8.39505342       8.67708007       4.58485954      -0.00073299      -0.00497437       0.00023127
O        7.58572360       5.77001597       0.65376521       0.00167790      -0.00148914      -0.00348945
O        5.86996589       7.08951905       0.60441907       0.00325063      -0.00012773      -0.00293701
O        7.81993023       7.88159209       1.44537632      -0.00254840      -0.01193327       0.00199509
C        8.99153091       5.55492446       0.93439534       0.00049272      -0.00254405       0.00002015
C        9.30047669       4.10448006       0.68363611       0.00025654      -0.00182205      -0.00876105
C        7.15868502       7.00543021       0.95006235       0.00866878       0.00617719       0.00509474
C        5.29667161       8.39601532       0.80087522       0.00462257       0.00020708       0.00125897
H        9.56759271       6.21884033       0.28554000       0.00402388       0.00034118       0.00640115
H        9.18583136       5.84876793       1.96686989      -0.00129073      -0.01088445       0.00212303
H       10.35406157       3.91609535       0.88049765      -0.00121704      -0.00393220      -0.00083835
H        8.72552834       3.45845062       1.34643096      -0.00289313      -0.00718720      -0.01506357
H        9.08467256       3.83726854      -0.34811581       0.00577782       0.00597166      -0.01304176
H        5.33117991       8.66836919       1.85616415      -0.00022811      -0.00545128       0.00250971
H        4.27020556       8.31349628       0.45782223       0.00625336       0.00260630      -0.00396420
H        5.85102655       9.13380776       0.22380131       0.00811400       0.00186077       0.00799654
O        2.13463443       8.24987056       2.77529332       0.00562288      -0.00155079       0.00549807
O        2.60240873       6.46322097       1.65638699       0.00604562      -0.00059845       0.01073649
O        3.45590399       6.68141765       3.74333014       0.01184601       0.00440770       0.00933772
C        2.22197629       9.04144338       3.98449751       0.00371936       0.00406978       0.00159383
C        1.32670135      10.23767602       3.79670049       0.00208861       0.00165361       0.00045064
C        2.79985145       7.09345267       2.82015639       0.00237858       0.00477001       0.00060993
C        3.20874340       5.16465370       1.58329345       0.00787602       0.00008050       0.00964549
H        1.91442140       8.42172585       4.82855309       0.00552081       0.00605053       0.00477636
H        3.26619764       9.32180202       4.13735691       0.00398219       0.00616533       0.00099611
H        1.39694926      10.89016148       4.66731612      -0.00061338       0.00316309      -0.00142530
H        1.61224375      10.80775154       2.91255227       0.00142820       0.00105302      -0.00056255
H        0.28628528       9.93016304       3.68761681       0.00302808      -0.00076516      -0.00138420
H        4.29245380       5.24941388       1.63230527       0.00830570       0.00296138       0.00358996
H        2.90295566       4.77696797       0.61773527       0.00382639      -0.00486708       0.01384479
H        2.84729482       4.52733522       2.38983488       0.01461038       0.00240578       0.01495823
O        9.35393717      10.82347803       0.78343256      -0.00135872       0.00088786      -0.00279886
O        7.26826941      11.36879735       0.60076992      -0.00153156       0.00058452       0.00356096
O        8.54004913      12.45501523       2.12456122       0.00333005       0.00239652       0.00093323
C       10.62805170      10.93281209       1.46183237       0.00023833      -0.00007698      -0.00591663
C       11.54111599       9.90492834       0.84949197      -0.00175703      -0.00123629      -0.00641343
C        8.40774686      11.62738930       1.25597173       0.00021490      -0.00163531      -0.00249726
C        6.15291481      12.14478465       1.05757093      -0.00087894      -0.00155425       0.00809482
H       11.00563665      11.94969503       1.33928120       0.00068489      -0.00027221      -0.00714681
H       10.46228609      10.75586074       2.52709312       0.00214034       0.00096407      -0.00541812
H       12.52216041       9.94781274       1.32276529      -0.00126749      -0.00227140      -0.00750068
H       11.12882128       8.90465218       0.98199790      -0.00293173      -0.00058785      -0.00553987
H       11.67392964      10.09225819      -0.21547274      -0.00279844      -0.00197229      -0.00675507
H        6.04919935      12.05610021       2.13731877       0.00307746      -0.00276822       0.00835353
H        5.28536898      11.73419259       0.54826967      -0.00221190      -0.00223528       0.01134919
H        6.28638206      13.19453161       0.79395808      -0.00316664      -0.00105357       0.00873058
O       11.41966774       4.07877584       3.15920365      -0.00652970       0.00729565       0.00315700
O       10.60736057       2.10679066       3.51871720      -0.00727685       0.00961439       0.00188738
O       10.78726860       3.53996484       5.26282942       0.01708675      -0.00067142       0.01253831
C       11.73611143       5.40932902       3.62629940       0.00442871       0.00389903       0.00414711
C       12.34562774       6.14746472       2.46521167       0.00175193       0.00504245       0.00439060
C       10.92370520       3.26404635       4.09699680       0.00356627       0.00224195      -0.00509214
C       10.07405342       1.12214286       4.42506140      -0.00021728       0.00503623       0.00081900
H       10.81468968       5.87674288       3.98315647       0.00917894       0.00802442       0.01098964
H       12.42156210       5.33238817       4.47168090       0.00820047      -0.00258381       0.00082788
H       12.60278637       7.16526968       2.75771444       0.00654213       0.00318125       0.00580887
H       13.25641119       5.65578832       2.12733413      -0.00168099       0.00347610      -0.00198611
H       11.65301061       6.20059005       1.62610342      -0.00195190       0.00969820       0.00728355
H       10.80991530       0.88839311       5.19343320       0.00659117       0.00054250      -0.00693333
H        9.84164037       0.26089194       3.80919024      -0.00709475       0.00825289      -0.00017920
H        9.16919691       1.49961021       4.90000635       0.00489694       0.00441253       0.01154795
O        5.26169735       3.20441412       4.99724134      -0.00936407      -0.00101656      -0.00527571
O        3.56558727       2.40441359       6.07915341      -0.02015518       0.00498043      -0.01844624
O        4.61937095       4.22582614       6.91252836      -0.01655522      -0.00323200      -0.00759679
C        6.27753811       4.23102671       4.84162597      -0.00430691      -0.00520036       0.00270373
C        7.05838793       3.90416331       3.59891579      -0.00147587      -0.00383203       0.00416923
C        4.49960438       3.36577254       6.07449073      -0.01561523       0.00129735      -0.00819713
C        2.62860412       2.52102556       7.15502286      -0.02712309       0.00565462      -0.02425667
H        5.77645161       5.19646941       4.76893418       0.00041890      -0.00267732       0.00473351
H        6.91070171       4.24003896       5.72759650      -0.00771031      -0.01142828       0.00512201
H        7.84144509       4.65229934       3.47162086       0.00131384      -0.00594014       0.00875844
H        7.52598736       2.92164333       3.67141528      -0.00549854      -0.00584093       0.00187840
H        6.42001009       3.92011163       2.71451837       0.00119148       0.00169101       0.00251503
H        3.16152265       2.65069810       8.09494100      -0.03307855       0.00407077      -0.02111620
H        2.06538842       1.59327242       7.16542001      -0.02823351       0.00631657      -0.02870435
H        1.96709790       3.37129571       6.98667799      -0.02477452       0.00647530      -0.02881067
O        7.71394460      11.32436433       5.63486514       0.00067824       0.00234143       0.00130571
O        5.79218927      11.58798935       4.67054588       0.00151961       0.00399761      -0.00012794
O        5.99523350      12.16716733       6.85006677       0.00224274       0.00271422      -0.00412166
C        8.54043913      11.34251048       6.82951238       0.00013006       0.00448264       0.00165388
C        9.93721867      10.96432583       6.41422455      -0.00028187       0.00218238       0.00225578
C        6.46304902      11.73422944       5.82852028      -0.00210923       0.00602731       0.00555515
C        4.43308568      12.03984189       4.74141583       0.00206603       0.00709559      -0.00183791
H        8.49026479      12.34246029       7.26424558       0.00095204       0.00522286      -0.00066040
H        8.11909891      10.63081678       7.54078237      -0.00045502       0.00640705       0.00309196
H       10.59670025      11.01622631       7.28081843      -0.00013508       0.00369363       0.00218393
H        9.96474057       9.94406360       6.03862539      -0.00128496       0.00159898       0.00457204
H       10.31390068      11.64493978       5.65143769       0.00013626       0.00031486       0.00075592
H        3.88122438      11.45994153       5.48188838       0.00061122       0.00999498      -0.00110331
H        4.01921165      11.87631781       3.74952791       0.00269367       0.00507936      -0.00178021
H        4.38954003      13.09455579       5.00801277       0.00426304       0.00771838      -0.00503668
