140
Lattice="12.439270751915075 0.0 0.0 0.0 12.439270751915075 0.0 0.0 0.0 12.439270751915075" Properties=species:S:1:pos:R:3:forces:R:3 energy=-369476.71875 stress="-0.0005159592838026583 0.000356351665686816 5.114122905069962e-05 0.000356351665686816 -0.0007618136005476117 0.0004282842855900526 5.114122905069962e-05 0.0004282842855900526 0.0002022242551902309" pbc="T T T"
Pr      13.87436266      12.34195385       1.48733427       0.00729879       0.00686473      -0.00769082
Cl       6.48079996      11.74526237       8.28142698       0.03420088      -0.00187504       0.01876867
O        7.66106139      12.10671163       9.14524920      -0.02216792      -0.00053638       0.00010890
O        5.18937707      12.42657366       8.66171151      -0.02099717       0.01023740       0.01410919
Cl       2.68536200      12.89515513       4.26317915       0.00643957      -0.00454843      -0.00566292
O        3.41428147      12.41446131       2.94117827       0.00717461      -0.00268799      -0.00573123
O        1.15287998      12.93857433       3.87886011       0.00824559       0.00802146      -0.01037403
Cl       2.85061591      12.77478428      -1.01748366      -0.01990736       0.02905238      -0.02297832
O        0.84480546      10.65365606       1.29842301       0.00881900       0.00762284      -0.01050583
O        1.37477079      13.38397922      -0.46521815      -0.01786125       0.01493531      -0.00275359
O        1.05314620       7.52617517       4.38297651      -0.00838327       0.00505131       0.00065910
C        2.70308802       9.19665077       4.29226597      -0.00114232      -0.00313944       0.00811514
C        1.64751744       9.65725229       5.30120638      -0.00687744       0.00444376      -0.00212675
C        1.91989395       8.19288382       3.46035203      -0.00366646       0.00291723       0.00338548
C        0.73932968       8.42888195       5.45279648      -0.00075972       0.00150311       0.00604853
H        3.09660030      10.01447012       3.68916873       0.00551173      -0.00222215       0.00683461
H        3.54156356       8.71773947       4.79805523      -0.00923830      -0.00438844       0.01092549
H        2.07252472       9.96142824       6.25729687      -0.00792944       0.01040052       0.00073138
H        1.08556258      10.50318370       4.90340033      -0.00528491      -0.00162151      -0.00621721
H        1.33762045       8.71481527       2.69509417       0.00358474       0.00186500       0.00139606
H        2.53789677       7.43153349       2.97834473      -0.00228932      -0.00218087       0.00703019
H        0.90662369       7.90729234       6.39634397       0.00687872       0.00127256       0.00248772
H       -0.31941661       8.70209079       5.40647778      -0.00313640      -0.00027534       0.01376750
O        5.24002978       8.49277382      11.47832982      -0.00453722      -0.00560851       0.00610057
C        3.51791716       8.04627499       9.94435304      -0.00025123      -0.00623068       0.00060487
C        4.21186858       9.33643130       9.51157530       0.00110921      -0.00573266       0.00396621
C        3.89923352       7.98945071      11.41320015      -0.00414175      -0.00660098       0.00192487
C        5.51903732       9.26337122      10.29838680       0.00052705      -0.00975761       0.00520432
H        2.44043144       8.05997935       9.78025262       0.00046217      -0.00619795      -0.00198495
H        3.94632770       7.18740497       9.42311836       0.00100727      -0.00572047       0.00166230
H        4.37810477       9.40637260       8.43761933       0.00414747      -0.00576089       0.00373584
H        3.62629153      10.20745454       9.81145297       0.00026301      -0.00633603       0.00214016
H        3.23659071       8.62801447      12.01469117      -0.00619882      -0.00761598       0.00015900
H        3.89565380       6.98133662      11.83046951      -0.00455409      -0.00709552       0.00080194
H        6.30323594       8.75435108       9.72593709      -0.00021109      -0.01100785       0.00659475
H        5.90204314      10.24192575      10.59826142       0.00096515      -0.00969625       0.00570084
O        5.52497816       4.64593727      10.07570569      -0.00509602      -0.00114322       0.00142334
C        6.04451302       2.51240470      10.95660891       0.00257361       0.00007230       0.00007677
C        7.29541553       3.09838148      10.30381347       0.00025737       0.00517446       0.00003141
C        4.95712647       3.34357164      10.29255407      -0.00089300      -0.00164706       0.00390407
C        6.94753099       4.57899512      10.27853341      -0.00445503       0.00393009       0.00145528
H        5.91991356       1.44772127      10.77121660       0.00623716       0.00101680       0.00031405
H        6.05764459       2.69039664      12.03634322       0.00358506       0.00024645       0.00116330
H        8.21609924       2.89637242      10.85034963       0.00119771       0.00719384      -0.00247732
H        7.40409540       2.69929806       9.29194573      -0.00061524       0.00654908      -0.00137326
H        4.68253876       2.90205267       9.32601119      -0.00191497      -0.00327328       0.00327110
H        4.04968998       3.45265309      10.89085772       0.00060359      -0.00470377       0.00469753
H        7.19015608       5.05253937      11.23696473      -0.00638039       0.00295749       0.00258607
H        7.43766041       5.14402225       9.48334276      -0.00674725       0.00669637       0.00289708
O       12.34583410       9.51014052       8.34793818      -0.00171056      -0.00276417       0.00709760
C       11.01955934      11.32629216       9.10663208       0.00235799       0.00142574       0.00363746
C       10.46462190      10.02031749       9.67442582      -0.00179046       0.00352255       0.00426954
C       11.88219541      10.81538258       7.95980029      -0.00013006      -0.00309271       0.00463554
C       11.68121796       9.11728000       9.56107893      -0.00423723       0.00078622       0.00710888
H       10.24266157      12.01476156       8.78054031       0.00346699       0.00273566       0.00176178
H       11.63891824      11.82857210       9.85395663       0.00274536       0.00129537       0.00252336
H       10.09184933      10.11099180      10.69333627      -0.00177882       0.00637505       0.00527406
H        9.64997816       9.64786294       9.04798754      -0.00235912       0.00542339       0.00583994
H       11.29670757      10.71720162       7.03659213      -0.00046295      -0.00395803       0.00567204
H       12.74677798      11.44852090       7.74913537       0.00225911      -0.00487009       0.00265768
H       12.35703672       9.27017844      10.41280638      -0.00457045      -0.00162032       0.00696397
H       11.44274937       8.05363905       9.48894936      -0.00783367       0.00051892       0.00691133
O        8.56948869       6.53566819       7.46035156       0.00179166       0.00507531       0.00760284
C       10.57362654       6.15373127       6.30009180      -0.00257605      -0.00446096       0.00332209
C        9.60534223       6.86580184       5.35702157      -0.00236877      -0.00299402       0.00428194
C        9.60056130       5.55765152       7.30370343      -0.00223225       0.00111435       0.00686532
C        8.60521698       7.44669268       6.34793787       0.00230625       0.00283064       0.00557488
H       11.20699387       5.41272283       5.81386197      -0.00656600      -0.00766751       0.00337193
H       11.21909358       6.88417035       6.79277810       0.00124171      -0.00587198       0.00038914
H       10.07660411       7.62820879       4.73737829      -0.00118355      -0.00588310       0.00163380
H        9.11226432       6.14701043       4.69811259      -0.00651924      -0.00251243       0.00710806
H        9.16410000       4.62408067       6.91789018      -0.00663480       0.00203073       0.00957161
H       10.03690239       5.35417900       8.28385163      -0.00061303       0.00127958       0.00610572
H        8.94635904       8.42323982       6.71009852       0.00651869       0.00187403       0.00235003
H        7.59631396       7.54045014       5.94382912       0.00147468       0.00522433       0.00783019
O        8.17586812      10.38642584       1.27427979       0.00127691      -0.00545490      -0.00765254
C        5.86110906      10.26472949       1.76068677       0.00199991       0.00336697      -0.00064901
C        6.39070327      11.63573364       2.17501129       0.00667289       0.00389054      -0.00759393
C        7.14741331       9.45755467       1.65695108      -0.00109285      -0.00118782      -0.00410104
C        7.66318351      11.72056796       1.34923019       0.00772092      -0.00289842      -0.00705335
H        5.15533022       9.83632890       2.47113210       0.00175436       0.00886997      -0.00233395
H        5.37367338      10.31176985       0.78485497       0.00174387       0.00371069      -0.00380692
H        5.69860046      12.44929854       1.97147435       0.01141375       0.00430951      -0.00602987
H        6.62102259      11.64453677       3.24449639       0.00990881       0.00384363      -0.00570524
H        7.41679838       9.01556766       2.62627792      -0.00063390       0.00128981      -0.00133812
H        7.08798308       8.66505398       0.90985452      -0.00513637      -0.00222260       0.00043529
H        7.44722894      12.08594664       0.33636469       0.00665583      -0.00311920      -0.00788045
H        8.43027211      12.36054531       1.79159840       0.00988260      -0.00647733      -0.00968608
O        5.84667083       5.71873378       5.70470589       0.00215739      -0.00037073       0.00289831
C        3.57875834       6.27059212       6.10326174       0.00263590      -0.00180489       0.00440371
C        4.03906033       5.23868826       7.12938916       0.00142932      -0.00607806       0.00043795
C        4.64877580       6.11854094       5.02936608       0.00182337      -0.00033119       0.00364836
C        5.54224367       5.44161709       7.08367414       0.00165129      -0.00762866       0.00118741
H        2.57496399       6.11821317       5.71231470       0.00195941       0.00130548       0.00474726
H        3.61807236       7.27054504       6.54498765       0.00506513      -0.00340903       0.00787409
H        3.63117808       5.38545038       8.12675976       0.00187942      -0.00918280       0.00128257
H        3.77176549       4.23204639       6.79590815      -0.00006928      -0.00433847      -0.00318153
H        4.36803191       5.34029365       4.30819169       0.00124951      -0.00020850       0.00347903
H        4.84750915       7.03558302       4.46884663       0.00138493      -0.00022852       0.00421755
H        5.84092423       6.29438765       7.70377423       0.00306436      -0.01170951       0.00554278
H        6.13098401       4.58019441       7.39781427       0.00036520      -0.01061812      -0.00356250
O       10.39421653       5.56814578      -0.02591534       0.00567204       0.00205195      -0.00342497
C       11.56026484       7.16896777       1.30868223       0.00504050       0.00445375      -0.00646949
C       10.20655283       7.72596901       0.87316387       0.00435909       0.00302488      -0.00585265
C       11.70923099       5.93364038       0.41808183       0.00609538       0.00627390      -0.00837278
C        9.43905870       6.45153707       0.57617941       0.00537184       0.00197321      -0.00368819
H       12.36928560       7.88451032       1.17273602       0.00435776       0.00597370      -0.00645746
H       11.54087831       6.88946997       2.36481378       0.00616075       0.00367540      -0.00727054
H        9.73247290       8.35527033       1.62305040       0.00437765       0.00268826      -0.00454327
H       10.31534275       8.32298392      -0.03472546       0.00223542       0.00286572      -0.00531492
H       12.31791713       6.13951607      -0.46850681       0.00203305       0.00893998      -0.01023263
H       12.16324818       5.08932848       0.94903639       0.01085469       0.00689781      -0.01086295
H        9.04518431       5.99601331       1.49441473       0.00599611       0.00242397      -0.00371093
H        8.61720639       6.58103763      -0.12942743       0.00484002       0.00069441      -0.00389159
O        9.55032350       3.53264288       2.38845642      -0.00609004      -0.00074723      -0.00512695
C       10.90157894       1.64913006       2.49261817       0.00047894       0.00370336      -0.00965875
C       11.47107881       2.64892627       3.50632350      -0.00278705       0.00263080      -0.00710484
C       10.15141630       2.56620923       1.53506816      -0.00419307       0.00202006      -0.00713331
C       10.44999413       3.79956310       3.46757997      -0.00326204       0.00226337      -0.00818160
H       11.66205113       1.03782738       1.98127611       0.00115710       0.00635007      -0.01040716
H       10.21042032       0.95563175       2.97633113       0.00183991       0.00081506      -0.00932638
H       11.58039859       2.22161360       4.50123786      -0.00180512       0.00242098      -0.00944948
H       12.45813627       2.99351496       3.19579143      -0.00157222       0.00519259      -0.00738867
H       10.82845074       3.05448649       0.82344751      -0.00485247       0.00554618      -0.00619927
H        9.35500185       2.07495957       0.97650774      -0.00166965       0.00076362      -0.00794557
H        9.85117139       3.85681970       4.37922607      -0.00274718       0.00149057      -0.00635588
H       10.93841170       4.76913915       3.32017063      -0.00625408       0.00219411      -0.00963119
O        6.97541554       1.60605422       6.46338536      -0.00105840       0.00175124       0.00279343
C        5.67269153       2.33808761       4.60690408      -0.00140640      -0.00595062      -0.00045353
C        7.12029466       2.80583407       4.46164246      -0.00263426      -0.00025314       0.00271973
C        5.62029604       1.86253919       6.06127252      -0.00008267      -0.00733846      -0.00063533
C        7.83103486       1.78938092       5.33710954      -0.00024243       0.00118142       0.00191885
H        4.94792018       3.12567985       4.40642342      -0.00326112      -0.00557335       0.00177634
H        5.47160637       1.51386486       3.92020425       0.00049088      -0.00282133      -0.00150113
H        7.48660786       2.81707265       3.43718978      -0.00154782      -0.00093116       0.00073576
H        7.22735747       3.80948542       4.87987626      -0.00520171      -0.00111502       0.00033085
H        5.22076085       2.62359620       6.73402900      -0.00935565      -0.01501483       0.00043580
H        5.02479482       0.95564779       6.19868842       0.00585684      -0.01499581      -0.00567178
H        7.96239112       0.83682946       4.80033044       0.00131377       0.00111073       0.00424555
H        8.80563176       2.11078209       5.71012454      -0.00132027       0.00381558       0.00245680
