148
Lattice="12.290076238961753 0.0 0.0 0.0 12.290076238961753 0.0 0.0 0.0 12.290076238961753" Properties=species:S:1:pos:R:3:forces:R:3 energy=-375658.34375 stress="-0.0004231621278449893 -0.00031626623240299523 -0.00013147770368959755 -0.00031626623240299523 -0.0002670909452717751 -0.0004300308210076764 -0.00013147770368959755 -0.0004300308210076764 -0.0011050208704546094" pbc="T T T"
Pr      13.99059028      12.36679941       0.59355890      -0.00109018      -0.00489143      -0.00157353
Cl       4.44474298      11.27113975       2.75621545       0.00974202      -0.02418196      -0.00258517
O        3.56020972      11.44420463       1.44291016      -0.00093520      -0.00937252       0.00321758
O        4.78299904       9.85122919       2.77238172      -0.02518237      -0.01190948       0.00244823
O        5.60712267      12.10679131       2.52291759      -0.01722372      -0.03624111       0.01611260
Cl       8.13963623      10.99467810       8.47091581       0.00554037      -0.00530756      -0.00350666
O        9.41878609      10.42851310       7.98753599       0.00286674      -0.01138318      -0.00603259
O        7.85479512      10.29848848       9.80725148       0.00501505      -0.00382990      -0.00346971
O        8.31767489      12.42402897       8.79338163       0.01310706      -0.00622177      -0.00347906
Cl      12.01441883      11.77604415       4.50509444       0.01185012       0.00323626       0.00412840
O       10.60479893      11.88905414       3.95769130       0.01415050      -0.01001312      -0.00332266
O       12.29925339      11.79884610       0.55434418       0.00728801      -0.01091549       0.00193714
O       12.76377793      13.23733232       4.57735684       0.00226229       0.00929624      -0.00382166
O        9.07538014       1.97581303       4.40188479       0.00177848      -0.01779485      -0.00711185
C        9.72839126       2.95621263       3.62755453      -0.00088543      -0.01608139      -0.00516331
C       10.07487410       2.47762174       2.23008402      -0.00499422      -0.01113716      -0.00816387
H        9.02694278       3.79768864       3.58637453      -0.00001109      -0.01513690      -0.00029951
H       10.63610267       3.31991547       4.13568838       0.00114959      -0.01817863      -0.00675887
H       10.58245292       3.26651106       1.66627141      -0.00569298      -0.00955878      -0.00668523
H       10.74592938       1.61954267       2.27518902      -0.00577669      -0.01210125      -0.01292486
H        9.17863726       2.17131333       1.69017125      -0.00659883      -0.00800268      -0.00663204
H        9.56619485       1.14303175       4.31635878       0.00358880      -0.01629797      -0.00701392
O        8.24797552      11.93335376      -0.11637388      -0.01427655       0.01338530      -0.01494300
C        8.42474973      10.95458922       0.89315604      -0.00404674       0.01866376      -0.01098323
C        7.51009514       9.75627918       0.70966670      -0.00065500       0.01485354       0.00116248
H        9.47720459      10.63424999       0.93766983      -0.00237679       0.02334312      -0.01667025
H        8.20202481      11.44730510       1.84205591       0.00054330       0.02308184      -0.01246786
H        7.61444717       9.05378011       1.53895108       0.00709054       0.01964447       0.00446631
H        6.47071940      10.08059611       0.68690003      -0.00170785       0.01052751       0.00595982
H        7.73080956       9.23520987      -0.22437683      -0.00437370       0.01012879       0.00303006
H        8.22994877      11.48039654      -0.97454449      -0.00879660       0.00974305      -0.01299375
O        0.75774265       3.31261446       8.98844154      -0.00162548       0.00502597       0.01565284
C        1.95588693       3.05140554       9.65979871       0.00065312       0.00136837       0.01012009
C        1.82655313       1.92381349      10.68985375       0.00179072      -0.00035149       0.00838614
H        2.76832801       2.80167371       8.96483320      -0.00316110       0.00050376       0.00641093
H        2.24490037       3.96624527      10.17953364       0.00525243      -0.00084090       0.01106465
H        2.78490477       1.81000157      11.22132440       0.00376588      -0.00456619       0.00375582
H        1.02610824       2.17896509      11.40169535       0.00636318       0.00111017       0.01281700
H        1.57020787       0.98112803      10.18756551      -0.00365357       0.00156873       0.00769491
H        0.56997900       2.56035506       8.37888356      -0.00001231       0.01096381       0.00832843
O        1.59627796       1.30853856       2.42360518       0.00355107       0.00001866      -0.00446250
C        2.80800733       2.05593185       2.50001081       0.00253713       0.00270373      -0.00486140
C        2.56010745       3.53312150       2.68279860      -0.00058343       0.00168240      -0.00481457
H        3.44163445       1.67220928       3.30817255       0.00332856       0.00333758      -0.00512820
H        3.38251061       1.88414644       1.56755333       0.00253886       0.00331559      -0.00519022
H        3.50318773       4.07284272       2.59238777      -0.00194442       0.00397311      -0.00286124
H        1.87297592       3.90939034       1.92154723      -0.00026004       0.00055867      -0.00591969
H        2.13874236       3.73501384       3.66612958      -0.00321157       0.00065750      -0.00560796
H        0.95951997       1.12424510       3.61773474       0.00231736       0.00511484      -0.00313011
O        5.58499525       5.07461206       1.86460910      -0.00265175       0.00613023       0.00460190
C        6.31461373       5.27178503       3.06454305       0.00102758      -0.00197634       0.00388634
C        6.23804369       4.08467108       4.00667378      -0.00199240      -0.00512278      -0.00054044
H        7.36680144       5.50084528       2.83367720       0.00160539      -0.00664035       0.00216660
H        5.89369611       6.16301141       3.53810078       0.00676370      -0.00176585       0.00783426
H        6.84076811       4.26443360       4.89920227       0.00010429      -0.01033166      -0.00088346
H        5.20811057       3.92049833       4.32393970      -0.00203061      -0.00299506       0.00060611
H        6.61520068       3.17776690       3.53081374      -0.00607973      -0.00452310      -0.00414807
H        6.07187856       4.42138050       1.32279153      -0.00531764       0.00816187      -0.00016585
O       12.45263812       1.20341697       7.44286959       0.00742716       0.01429533      -0.00257376
C       11.02297829       1.03962313       7.59256830       0.00886092       0.00536689      -0.00006070
C       10.29238856       2.35989862       7.48361908       0.00008759       0.00004804      -0.00306827
H       10.65600191       0.32479062       6.85390170       0.01219492       0.00083262       0.00281262
H       10.86530885       0.58373185       8.56759600       0.01386394       0.00721690       0.00168592
H        9.22184140       2.18377415       7.57996263       0.00153488      -0.00659182       0.00033635
H       10.61404386       3.04419514       8.26871580      -0.00241369       0.00543058      -0.00693300
H       10.47267619       2.82398589       6.51383307      -0.00572174      -0.00268368      -0.00528982
H       12.64227872       1.31561233       6.50081410       0.00483993       0.01757262      -0.00280161
O        7.01134633       3.41340005      12.48247383      -0.00776082       0.00956750      -0.00188643
C        8.12876334       4.09986535      11.92916056       0.00165635      -0.00020946       0.00447959
C        8.82420160       3.29362243      10.85271978       0.00352100      -0.00773609       0.01250184
H        7.81778403       5.08014499      11.54246039       0.01177838       0.00098544       0.00001660
H        8.80590787       4.28486091      12.76495195      -0.00405896      -0.00282537       0.00936171
H        9.69845926       3.83054307      10.47790483       0.01327999      -0.01837891       0.02216103
H        9.13723292       2.32240299      11.23664550      -0.01169417      -0.01064172       0.01558810
H        8.15659442       3.11325142      10.00836038       0.01160140       0.00013967       0.00516951
H        6.40431997       3.22573113      11.74428328      -0.00654537       0.01477178      -0.00422627
O       11.05836656       6.83387263       6.75790323       0.00433350       0.00291774      -0.00111452
C        9.68177671       7.05015244       6.43928974       0.00470281       0.00391951      -0.00056604
C        8.82691554       5.83332951       6.71973343       0.00472805       0.00295079      -0.00580111
H        9.30220541       7.92926681       6.97057216       0.00363235       0.00251007       0.00025362
H        9.67037732       7.27534272       5.37569501       0.00585514       0.00666431       0.00012690
H        7.78245011       6.04026733       6.47979771       0.00547877       0.00304394      -0.00841118
H        9.15745329       4.97857789       6.12924694       0.00751707       0.00537597      -0.00745699
H        8.87076109       5.55609939       7.77613853       0.00241543      -0.00045239      -0.00677992
H       11.11230072       6.42795413       7.62957250       0.00693241       0.04555221       0.01759312
O        3.15718225       5.60329835       5.29323073      -0.00569084       0.00179735       0.00636673
C        2.71026621       6.48092026       4.25868467       0.00178987       0.00592162       0.00610667
C        1.20131874       6.52657973       4.15956723       0.00240362       0.01216997       0.00117106
H        3.11798575       7.48738438       4.40604935       0.00573827       0.00320256       0.00928058
H        3.15706151       6.09297174       3.34354251       0.00325997       0.00521839       0.00705612
H        0.88384726       7.19182553       3.35438627       0.00837386       0.01609971       0.00198010
H        0.78494137       5.54142517       3.95694472      -0.00139096       0.01472044      -0.00253011
H        0.74235511       6.88793236       5.08218635       0.00109650       0.01153928       0.00077936
H        2.71210280       5.86428962       6.10447929      -0.00920054       0.00097618       0.00457637
O        5.42992710       9.32400847       9.36224903       0.00497347      -0.00608706       0.00351980
C        4.53701957       9.88696021      10.31023741       0.00414822      -0.00722361       0.00332317
C        4.52782959      11.40642880      10.26453271      -0.00044015      -0.00730932       0.00038455
H        3.55241490       9.47940910      10.07233455       0.00557953      -0.01062888       0.00489917
H        4.79094681       9.54128844      11.31802217       0.00604925      -0.00442666       0.00367147
H        3.79826138      11.80113160      10.98625050      -0.00429143      -0.00872662      -0.00205916
H        5.50413167      11.80943313      10.53836400      -0.00319099      -0.00334568       0.00237847
H        4.26731756      11.76224143       9.26580248       0.00036425      -0.01040606      -0.00072318
H        6.34408836       9.63754931       9.58055152       0.00470101      -0.00339720       0.00148260
O        2.98687764       7.23224023      -0.46288750      -0.00622365      -0.00753132      -0.03371465
C        2.75537275       7.95177248       0.74420852       0.00141796      -0.01910931      -0.02323718
C        1.74665711       9.06325676       0.55400252       0.00095290      -0.01764023      -0.00811057
H        2.41049194       7.27314032       1.53274252       0.00551051      -0.02763671      -0.02949083
H        3.71851152       8.34988725       1.06056734       0.00247109      -0.02308680      -0.02454348
H        1.57184716       9.58757791       1.49673506       0.00613721      -0.02528063      -0.00353113
H        2.10759240       9.77175375      -0.20459479      -0.00373635      -0.01120140      -0.00411770
H        0.78465879       8.67731884       0.21094917      -0.00112060      -0.01443246      -0.00635099
H        2.13168725       7.04315148      -0.86000911      -0.00414391       0.00316642      -0.03349531
O        5.26396682       3.59044006      10.35641440      -0.00636458       0.00747859       0.00270849
C        4.99297521       5.00492697      10.30154894      -0.00160035       0.00843096      -0.00174719
C        5.85430965       5.73276337       9.29909771       0.00156879       0.00179580      -0.00348687
H        3.93714590       5.16140579      10.06952318      -0.00094813       0.01120889      -0.00230388
H        5.15079673       5.37050406      11.31606494      -0.00106832       0.01108338      -0.00289088
H        5.62942713       6.80134737       9.32092706       0.00575414       0.00266811      -0.00658508
H        6.91466073       5.60253906       9.51738803       0.00085136      -0.00166512      -0.00244739
H        5.66563195       5.37051257       8.28486170       0.00072193      -0.00036649      -0.00239813
H        5.41478543       3.26350800       9.46436935      -0.00064645       0.00550680       0.00447625
O        5.07411965      10.26001632       6.74081455      -0.01074803       0.00902212       0.01373127
C        3.95158674       9.66942178       6.11988482      -0.00872958       0.00737566       0.01153599
C        3.28760660       8.60213235       6.96822309      -0.01040688       0.00822181       0.01065439
H        3.21771202      10.45635913       5.88591162      -0.00860399       0.00847870       0.01127739
H        4.27234160       9.24699417       5.16199055      -0.00838923       0.00767940       0.01240045
H        2.39914446       8.21622056       6.46463948      -0.00951555       0.00804791       0.00916158
H        3.97566715       7.77603791       7.15707846      -0.01056099       0.00795820       0.01156240
H        2.96946074       9.00651769       7.92907969      -0.01172012       0.00760520       0.01014902
H        5.16745040       9.90635253       7.64572424      -0.00221647      -0.00217427       0.00823516
O       11.98036426       8.33560309       9.21164733      -0.00344932      -0.00898577      -0.00096238
C       10.93714257       8.57308315      10.15363486      -0.00167727      -0.00152671      -0.00005156
C        9.77461316       7.61723833       9.98108405      -0.00307775      -0.00014332       0.00752158
H       11.40078786       8.43576460      11.13052210      -0.00057396       0.00345407       0.00003570
H       10.57811300       9.60320529      10.08944846       0.00173399      -0.00147724      -0.00634028
H        9.05217180       7.73318141      10.78897261      -0.00499052       0.01226443       0.00324158
H        9.24633359       7.83500000       9.05432973       0.00054865      -0.01037974       0.00312912
H       10.12713486       6.58250178       9.96929645      -0.00683608      -0.00149998       0.02137117
H       11.62393850       8.48191298       8.32751241       0.00495196       0.02482962       0.00183338
O       10.38313279       6.21864023       3.35008542      -0.00723840      -0.01008105      -0.00270537
C        9.89098293       7.34622833       2.63580041      -0.00036088      -0.00274050       0.00383645
C       10.33052780       7.34395799       1.19033558      -0.00057745       0.00304703       0.00390720
H        8.79859913       7.39745809       2.70426564       0.00044453       0.00389309       0.00449172
H       10.28610129       8.22185786       3.15379492       0.00577807      -0.00863340       0.00888035
H        9.98176477       8.24299654       0.68295953       0.00734247       0.00945236       0.01003138
H       11.41863063       7.30585786       1.12860607      -0.00121514      -0.00643440       0.00359429
H        9.92617617       6.47930936       0.65910927      -0.00852894       0.01036349      -0.00181169
H        9.98304010       5.42697899       2.97857316      -0.01366146      -0.00517031      -0.00569849
