143
Lattice="12.410349377056468 0.0 0.0 0.0 12.410349377056468 0.0 0.0 0.0 12.410349377056468" Properties=species:S:1:pos:R:3:forces:R:3 energy=-400295.875 stress="-9.771408804226667e-05 0.0006775444198865443 9.385463636135682e-05 0.0006775444198865443 -9.941963799064979e-05 -0.0008702177437953651 9.385463636135682e-05 -0.0008702177437953651 -0.001530869398266077" pbc="T T T"
Pr      12.16298607      12.45005382      -0.17445611       0.00028772       0.00043773       0.00325305
O        3.59993762      12.72460903      10.29691479       0.00375211      -0.00038761       0.00506122
O        1.74469092      12.49997341      11.43178780      -0.00105953       0.00946882      -0.00115395
O        2.28712194      11.04267340       9.88888682      -0.00171074       0.00453627       0.00348485
N        2.60847129      12.04918832      10.46683165       0.00034150       0.00433093       0.00282380
O        8.77384533       9.53916443       7.72621620       0.01073408       0.01617789       0.00166011
O       10.51746156      10.81918857       7.51896837       0.01192307       0.01362282      -0.00165102
O        8.61638135      11.41612272       6.64317563       0.01173055       0.01473236      -0.00065637
N        9.29714504      10.57921475       7.29057524       0.01147249       0.01483679      -0.00006385
O       12.65151664      10.38141063       0.77786342       0.00913817       0.00630866       0.01132107
O       11.13195128       9.02217837       1.57245680       0.01220372      -0.01829535      -0.02654588
O       10.56466754      10.96572020       0.75094825       0.00205705      -0.02171725      -0.02673647
N       11.42211262      10.05409571       1.06800143       0.00819372      -0.01132601      -0.01483089
O       11.18045779       1.52447195       4.03722572      -0.01770183      -0.03775810       0.00052691
O        9.50938477       2.81064345       3.34455309      -0.00313249      -0.01323989       0.01126123
O       11.56916582       3.69225661       3.56466998       0.00543475      -0.03760982       0.02274986
C       10.09992854       0.60459033       3.76539543      -0.02892917      -0.02342957      -0.00474069
C        8.90152822       1.52904975       3.62244992      -0.01796573      -0.00826910       0.00206970
C       10.81846606       2.76327177       3.63021598      -0.00393039      -0.03014994       0.01256558
H       10.01971068      -0.10759222       4.58447091      -0.03638362      -0.02639034      -0.00818142
H       10.33238939       0.07800929       2.83841967      -0.03601339      -0.02079818      -0.00802413
H        8.24745161       1.27760201       2.79166145      -0.02149665       0.00556173       0.00078601
H        8.32508844       1.61059068       4.54454814      -0.01618397      -0.00797689       0.00309166
O        0.50227804       4.48282047      10.22697091      -0.00067592       0.00497520      -0.00541440
O        2.68238038       4.44598403       9.77109064      -0.00243810       0.00587997      -0.01226251
O        1.34713268       5.95208384       8.75169520      -0.00545965       0.00340521      -0.00368857
C        1.01708948       3.42432664      11.03840080       0.00177604       0.00653179      -0.00526567
C        2.52886791       3.54002000      10.86955012       0.00176096       0.00355975      -0.01372881
C        1.51278135       5.05953509       9.52045543      -0.00445358       0.00942826      -0.01093793
H        0.62745002       2.47473902      10.65122147      -0.00132363       0.00633034      -0.00034323
H        0.68577061       3.58204214      12.06392198       0.00792197       0.00974864      -0.00410193
H        2.98141371       3.99275038      11.74711153       0.00730506       0.00078684      -0.01550227
H        3.01409749       2.59991481      10.62098133      -0.00239109       0.00285095      -0.01808528
O        2.78863458       1.87494724       1.56790881      -0.00450400       0.00305668       0.00543392
O        1.72387019       1.67780285       3.49160211      -0.00746596       0.00349039       0.00365353
O        0.63460996       1.28278514       1.58292576      -0.00404996       0.00156254       0.00239584
C        3.84863725       2.02625190       2.56403374      -0.00647306       0.00509904       0.00716737
C        3.08165735       2.02499314       3.88560643      -0.00888920       0.00629330       0.00563335
C        1.66546477       1.59175782       2.18841829      -0.00526421       0.00263420       0.00399623
H        4.36014740       2.96222185       2.35483206      -0.00708394       0.00536153       0.00741037
H        4.51316136       1.17169093       2.44603966      -0.00556338       0.00561365       0.00884404
H        3.42181177       1.25046206       4.56616636      -0.00940619       0.00800067       0.00741279
H        3.03910387       2.99204140       4.38300595      -0.01074791       0.00666699       0.00492615
O        6.54084555       6.62837096       3.93275221       0.00062133      -0.00002128       0.00616182
O        7.85175297       8.12754543       2.94129067      -0.01867771       0.01369983       0.00185171
O        6.34433734       8.79762166       4.47573410      -0.01501971      -0.00319266       0.01203990
C        7.37270996       5.84537471       3.06912162      -0.00015992       0.00931072      -0.00319391
C        8.20394993       6.88560363       2.30900666      -0.00945088       0.01791859      -0.00153336
C        6.87844671       7.94184508       3.83622107      -0.01154044       0.00291288       0.00707895
H        6.72214934       5.26175616       2.41900344      -0.00100097       0.01027864      -0.00310075
H        7.98063131       5.17284107       3.67101545       0.00612205       0.00831243      -0.01087213
H        9.27364422       6.73010186       2.42489201      -0.00818020       0.02690532      -0.00284512
H        7.94201100       6.95534179       1.25407280      -0.01094702       0.01892468      -0.00100559
O       10.29480977       1.04406327       8.59024525       0.01488608       0.01540051      -0.00729951
O       12.40486820       0.58621175       8.12354212       0.01243436      -0.00490475       0.00321969
O       11.52638201      -0.09295798      10.05827160      -0.00121121       0.01273596       0.00308013
C       10.43707231       1.41010161       7.18252866       0.02259085       0.01066628      -0.00745362
C       11.94804791       1.39165298       6.99710198       0.02264249      -0.01527202      -0.00792128
C       11.40741312       0.44975332       8.95806648       0.00828743       0.00790423      -0.00035112
H        9.98957181       2.39399273       7.05685208       0.03963007       0.01811963      -0.00895839
H        9.89888322       0.63546583       6.63564703       0.01079425       0.01890147      -0.00692233
H       12.26868070       0.90371133       6.08585110       0.01271580      -0.03482729      -0.00073248
H       12.40902096       2.37549062       7.09688851       0.03782097      -0.02105173      -0.02420919
O        8.60253613       2.17018451      10.84756139       0.00396729      -0.00353360       0.00710092
O       10.53925299       3.21285459      11.01852520       0.00116408       0.00104791       0.00950040
O       10.21486600       1.35300475      12.18531480       0.00227757       0.00217435       0.01216274
C        8.53082980       3.24593946       9.85446379       0.00328493      -0.00534490       0.00515056
C        9.73346237       4.10888236      10.20099127       0.00161915      -0.00281048       0.00451395
C        9.79281663       2.20626580      11.40294587       0.00253189       0.00015883       0.00952929
H        7.59131319       3.77082146       9.96943040       0.00228843      -0.00689246       0.00384688
H        8.58361392       2.78012704       8.87522863       0.00499729      -0.00708325       0.00609440
H       10.33560325       4.41766824       9.35406006       0.00295563      -0.00535442       0.00474048
H        9.47521602       4.95855111      10.82771408      -0.00043359      -0.00076807       0.00088882
O       11.89284265       6.98829568       5.90514513       0.01013118       0.00789669      -0.01841474
O        9.82958461       6.62123804       5.15123187       0.00695401       0.01797503      -0.01374354
O       10.86131984       8.57315786       4.68659747       0.01654395       0.01179719      -0.01993483
C       11.62706548       5.61718863       6.25009638       0.00260520       0.01050839      -0.01281054
C       10.14063013       5.45330546       5.93276723       0.00285894       0.01545817      -0.01533628
C       10.86095226       7.49889937       5.20782645       0.01163553       0.01091987      -0.01676753
H       11.87315553       5.48822540       7.30059452      -0.00065498       0.01371781      -0.01170295
H       12.26310688       4.98477934       5.63115782       0.00082931       0.00447613      -0.00842589
H        9.93518615       4.58019948       5.31657789       0.00183373       0.01746538      -0.01784125
H        9.50361748       5.45808875       6.81566652       0.00130296       0.01524812      -0.01644242
O        1.46380402       5.64042621       1.61421637      -0.01159661      -0.00023479       0.00718033
O        3.56860754       6.35702503       1.55027865      -0.00918648      -0.00884196      -0.00041452
O        2.35814889       6.29896191      -0.34224934      -0.01366459      -0.01113242       0.00209630
C        1.86692109       5.69772684       3.00360951      -0.00789952       0.00084041       0.00596353
C        3.36949635       5.95027508       2.91947347      -0.00785869      -0.00012477       0.00240245
C        2.44891721       6.12644857       0.83714806      -0.01148534      -0.00736354       0.00427717
H        1.59456528       4.75905718       3.47489116      -0.00698055       0.00120449       0.00721778
H        1.32031115       6.50128729       3.49210681      -0.00625306       0.00157362       0.00666890
H        3.73245984       6.74069873       3.56451445      -0.00737236       0.00402322      -0.00297412
H        3.96695422       5.05691894       3.10583333      -0.00792232       0.00118521       0.00781275
O        7.38856517      10.56085154      10.85180655      -0.00035632      -0.00218037       0.00636727
O        5.54701565       9.84021847       9.82725772       0.00341719      -0.00614404       0.00267896
O        6.24677515       8.80642692      11.70617620       0.00534871      -0.00877917       0.00044298
C        7.13673250      11.52078674       9.80988019      -0.00226787      -0.00092039       0.00797725
C        6.10746464      10.82489054       8.93463082       0.00201860      -0.00330505       0.00500467
C        6.38138549       9.64960392      10.87782167       0.00289107      -0.00572789       0.00288439
H        8.06781427      11.72732809       9.28762766      -0.00215140       0.00350334       0.00995407
H        6.75181623      12.43157108      10.27208242      -0.00661939      -0.00354210       0.00918373
H        5.30606906      11.48328007       8.60762567       0.00063109      -0.00582406       0.00380491
H        6.57880415      10.31984265       8.09211978       0.00561333      -0.00107577       0.00560987
O        2.84023531      11.50297086       3.09451425      -0.00869086       0.00082256       0.01141412
O        3.80009836       9.52507966       2.74441228      -0.01161659       0.00294471      -0.00716421
O        4.95036118      11.42062523       2.31346563      -0.01624632       0.00511354      -0.00876221
C        1.92965910      10.53993754       3.66321705      -0.00530007      -0.00182739       0.01254120
C        2.42783250       9.22834654       3.08574981      -0.00767155      -0.00001925       0.00615190
C        3.97092961      10.84660197       2.67889674      -0.01301181       0.00299451      -0.00198454
H        0.91530844      10.79097176       3.36727200      -0.00693676      -0.00160555       0.01834707
H        2.01486912      10.57443806       4.75002063      -0.00007325      -0.00494474       0.01213890
H        2.42092863       8.43440045       3.82393186       0.00154645      -0.00050685       0.00547311
H        1.90527965       8.93936998       2.17460614      -0.01574403      -0.00040048       0.01108322
O        6.64818101       3.00045822      12.93069914      -0.00093821       0.00982077       0.00453374
O        6.93539018       4.97213682      11.94325035       0.00358945       0.00623964      -0.00108983
O        8.59770389       4.10666406      13.17559806      -0.00011939       0.00758917       0.00452513
C        5.57033427       3.11011303      11.97766544      -0.00040278       0.00918943       0.00398302
C        5.56901231       4.59634574      11.64096517       0.00331450       0.00791916      -0.00173850
C        7.48933799       4.03812303      12.72895599       0.00119090       0.00788887       0.00282753
H        4.66128427       2.74835828      12.44314393      -0.00147772       0.01352932       0.00538826
H        5.80534518       2.47486780      11.12103971      -0.00207518       0.00531691       0.00662133
H        5.37113572       4.82166309      10.59597248       0.00575481       0.00374237      -0.00304750
H        4.91135368       5.19153246      12.27288329       0.00337270       0.01167864      -0.00538975
O        3.13578426       8.04342802       6.05999332       0.02498176      -0.02552533      -0.01126870
O        4.49591522       6.54643276       6.97306421       0.00481644      -0.02150394       0.02409047
O        2.76740212       5.85245845       5.71766488       0.02332461      -0.02673781       0.00183034
C        4.08875469       8.84086718       6.79942638       0.00958672      -0.02342761       0.00620019
C        5.11774350       7.81913975       7.27800841       0.00716192      -0.02046999       0.01537636
C        3.41225468       6.73145784       6.22413092       0.01768774      -0.02525192       0.00400850
H        3.56133749       9.33725567       7.61344345      -0.00498855      -0.03114185       0.00145882
H        4.52264845       9.56704902       6.11436265       0.01537859      -0.01868540       0.01573625
H        6.04883085       7.88708409       6.71998951       0.00835621      -0.02678354       0.01656219
H        5.30381595       7.86210236       8.34671736       0.00551026      -0.01195855       0.01514369
O        8.75858360       7.62378162      10.16995534      -0.00141787       0.00609100      -0.01404193
O       10.17399399       6.92607935       8.61342885       0.00830382       0.00015597      -0.00230730
O        8.11514452       6.04830572       8.70086228       0.00966048      -0.00398785      -0.00813556
C        9.99827877       8.29065726      10.48430097      -0.00544785       0.01262163      -0.01220971
C       10.90084755       7.97808396       9.29137782       0.00430107       0.00276232      -0.00211915
C        8.93650116       6.82618393       9.11398154       0.00654596       0.00045663      -0.00776300
H       10.36559334       7.87362785      11.42444082      -0.01165397       0.02329248      -0.00528604
H        9.77973103       9.34976600      10.59788715      -0.00871165       0.01307833      -0.02487896
H       10.99175674       8.81654878       8.60465726       0.01255392      -0.00158304      -0.00611341
H       11.87302826       7.57456877       9.56388145       0.00089478       0.00225794       0.00897188
