149
Lattice="12.50457672487992 0.0 0.0 0.0 12.50457672487992 0.0 0.0 0.0 12.50457672487992" Properties=species:S:1:pos:R:3:forces:R:3 energy=-87894.2265625 stress="-0.001677327323704958 -0.00030770566081628203 0.00026061157404910773 -0.00030770566081628203 -0.0015594580909237266 7.331414599320851e-05 0.00026061157404910773 7.331414599320851e-05 -0.001998243387788534" pbc="T T T"
N        9.54266748      11.08980733       2.65097897       0.00981243       0.00304066      -0.00116381
C        9.16008759      10.28052979       1.64346169       0.00005111       0.00405535       0.00255144
C       10.69157494      10.91548676       3.32921858       0.00958562       0.00260343      -0.00897971
C        9.95665181       9.21632314       1.29806740      -0.00342804      -0.00050007      -0.00268993
C       11.52237051       9.87160779       3.00067896       0.00610474       0.00372069      -0.01169686
C       11.15951884       9.01850521       1.96693846      -0.00178537       0.00182056      -0.00801986
H        8.98490393      11.90911415       2.86335874       0.00684661       0.00457335      -0.00199918
H        8.24528968      10.53653942       1.13151340      -0.00300993       0.00172990       0.00534236
H       10.91902766      11.64937155       4.08549093       0.01479758      -0.00221391      -0.00776614
H        9.66982213       8.58500862       0.47217394      -0.00882093      -0.00006465      -0.00057103
H       12.46314060       9.75922765       3.51702293       0.00779743       0.00063243      -0.01724955
H       11.83141196       8.22960232       1.65965768      -0.00370299      -0.00130261      -0.01087267
B       12.36574458      11.80948788       0.35282054      -0.00500402      -0.00452076      -0.02004587
F       13.03148670      12.62246514      -0.53895657      -0.01200813      -0.00402242      -0.02484566
F       12.69938805      12.17872564       1.68668588       0.01367214       0.01302263      -0.03328264
F       10.96777936      11.95033431       0.20832324      -0.00714362      -0.00924086      -0.01009089
F       12.71383854      10.46189495       0.16237507      -0.00645900      -0.00936782      -0.00612786
C        9.49881955       8.80048991      10.36991508       0.00214833      -0.00044532      -0.00876531
C       10.19115094       7.60310070      10.50458444      -0.00467265      -0.00480264      -0.01355531
C       10.03368393       9.83392590       9.60967385       0.01870281       0.00973514       0.01326161
C       11.42419053       7.44039838       9.88382820       0.00213172       0.00297295      -0.00087994
C       11.25769178       9.66401340       8.97616331       0.02467873       0.01600644       0.03358082
C       11.95562562       8.47004302       9.11758725       0.01618722       0.01513714       0.02247525
H        8.53531015       8.93175223      10.85056485      -0.00349519      -0.00494450      -0.01726127
H        9.77698946       6.79152563      11.08823175      -0.01015185      -0.00766715      -0.02180677
H        9.49365886      10.76691622       9.51341306       0.01700838       0.01054035       0.02086937
H       11.96763240       6.51038901       9.99637524      -0.00354830      -0.00167629      -0.00772815
H       11.67420721      10.46631241       8.37976194       0.02929267       0.01200874       0.03602854
H       12.90949217       8.34134639       8.62443573       0.02041171       0.01154496       0.03061571
C        5.09246842       3.97839367       7.69176730      -0.00539692      -0.01382328       0.00761019
C        4.44316668       4.88712213       8.52021098      -0.00551556      -0.01188940       0.00493104
C        6.33035421       3.46242668       8.06153428      -0.00298748      -0.00869146       0.00667529
C        5.03515423       5.28453946       9.71366105      -0.00400493      -0.00525426       0.00185914
C        6.92234725       3.85830711       9.25602416      -0.00146689      -0.00244993       0.00360640
C        6.27493341       4.77301061      10.08016140      -0.00212983      -0.00123065       0.00151229
H        4.63458082       3.67654540       6.75687380      -0.00707819      -0.01946839       0.01051039
H        3.47375366       5.28112895       8.24360941      -0.00704093      -0.01594223       0.00563292
H        6.84385960       2.76830082       7.40795549      -0.00281040      -0.00993894       0.00851518
H        4.52292333       5.98111985      10.36612679      -0.00396904      -0.00374214      -0.00020912
H        7.88896088       3.46109357       9.54072476       0.00002299       0.00139609       0.00297467
H        6.73379170       5.08603009      11.01041666      -0.00119644       0.00358334      -0.00102331
C        4.34790048      11.25499124       8.57895898      -0.00186233       0.00598822       0.00207759
C        5.49601116      11.81321941       8.02819468      -0.00186200       0.00809410       0.00494806
C        4.38099131       9.97820114       9.12501522      -0.00160946       0.00544177       0.00033178
C        6.67986302      11.08360256       8.01851251      -0.00166303       0.00901726       0.00548400
C        5.56429657       9.25125924       9.11180747      -0.00143078       0.00661100       0.00001474
C        6.71201771       9.80304715       8.55634290      -0.00145972       0.00779446       0.00255153
H        3.42245203      11.81225383       8.58009239      -0.00216447       0.00481106       0.00191221
H        5.46548289      12.81544745       7.61724560      -0.00157314       0.00872691       0.00692729
H        3.48172477       9.55293542       9.55249844      -0.00168547       0.00491936      -0.00098039
H        7.58371008      11.50596842       7.59697118      -0.00142448       0.01026549       0.00835966
H        5.59615276       8.24721190       9.51872020      -0.00167902       0.00574915      -0.00166212
H        7.62706258       9.22914444       8.52526071      -0.00107053       0.00894078       0.00240561
C        3.33298509       9.02761499       6.03635857      -0.00381118      -0.00204703       0.00149606
C        3.18540271       7.65418798       6.18726117      -0.00703864      -0.00119278       0.00491237
C        2.20953847       9.83691440       5.90357214      -0.00159323       0.00010939      -0.00067653
C        1.91640068       7.08397945       6.17788014      -0.00843277       0.00216945       0.00715218
C        0.94191289       9.26660998       5.90881113      -0.00306882       0.00359667       0.00138512
C        0.79281829       7.88825510       6.02913884      -0.00636157       0.00463305       0.00574903
H        4.31880176       9.47639156       6.04502468      -0.00284657      -0.00453804       0.00051526
H        4.05743090       7.02320300       6.30778523      -0.00871192      -0.00294363       0.00632709
H        2.32466318      10.91039306       5.81229749       0.00110877      -0.00058429      -0.00363011
H        1.80468184       6.01268165       6.29312706      -0.01120498       0.00311066       0.01046656
H        0.06212786       9.89518453       5.84531894      -0.00139177       0.00538708      -0.00037351
H       -0.19814760       7.45130025       6.03971079      -0.00727136       0.00726972       0.00796865
C        8.90317126       7.97282363       4.61720822       0.00317270      -0.00312991       0.00657895
C        9.42598180       6.74506523       5.00994619       0.00153036      -0.00351422       0.00613136
C        7.73439210       8.45277948       5.19366260       0.00243923      -0.00329256       0.00483733
C        8.78189476       5.99876338       5.98994853      -0.00058148      -0.00439148       0.00361715
C        7.08484791       7.69736527       6.16128098       0.00047201      -0.00389474       0.00299282
C        7.60990274       6.47657025       6.56558395      -0.00124494      -0.00447834       0.00211197
H        9.40213899       8.54099748       3.84851947       0.00549583      -0.00164295       0.00879005
H       10.32884349       6.36893774       4.54242041       0.00266103      -0.00340107       0.00810508
H        7.32212351       9.40648436       4.88343608       0.00364295      -0.00271139       0.00571740
H        9.18219408       5.04044984       6.29629853      -0.00150907      -0.00471589       0.00342498
H        6.17380156       8.06427481       6.61330957       0.00028735      -0.00354177       0.00210784
H        7.10427914       5.89729449       7.32595488      -0.00273243      -0.00523055       0.00058509
C        4.29491765      10.61760452       2.26880625      -0.00301748       0.00466544       0.00291133
C        3.14468238      10.42009111       1.51240700       0.00186175       0.00898755      -0.00534708
C        5.48710508      10.00538179       1.89863649      -0.00177675       0.00376054       0.00902309
C        3.18788202       9.59872186       0.39170694       0.00791274       0.01271600      -0.00749444
C        5.53254788       9.19075806       0.77338259       0.00404061       0.00664550       0.00733331
C        4.37908637       8.98297535       0.02772802       0.00872219       0.01127268      -0.00080149
H        4.26229644      11.24273551       3.15332767      -0.00787885       0.00202778       0.00435057
H        2.21351150      10.90571806       1.77510121       0.00084482       0.00962152      -0.01006319
H        6.37218419      10.13678370       2.51002254      -0.00556035       0.00095662       0.01482371
H        2.28287705       9.45312458      -0.18275152       0.01145938       0.01649927      -0.01437932
H        6.45255473       8.68925766       0.49555051       0.00482019       0.00577239       0.01211630
H        4.40572373       8.32645880      -0.83232265       0.01344705       0.01367636      -0.00250212
C       11.08134436       2.62033783       0.73402151       0.00653169       0.00618720      -0.00567685
C        9.80116425       2.37205485       0.25193124       0.00818240       0.00317872      -0.00805290
C       11.48737738       3.92814664       0.97671075       0.00038111       0.00684466       0.00055289
C        8.92780893       3.42774386       0.01423410       0.00448011       0.00013217      -0.00463296
C       10.61943300       4.98633206       0.73166291      -0.00334419       0.00391059       0.00364025
C        9.33817860       4.73544893       0.25076761      -0.00176151       0.00080602       0.00085952
H       11.76191372       1.79737686       0.90488526       0.00961968       0.00813387      -0.00759435
H        9.50503262       1.34938157       0.05774256       0.01262174       0.00275463      -0.01217454
H       12.48837659       4.11447914       1.34648053      -0.00117770       0.00987144       0.00313391
H        7.92740172       3.22980884      -0.35324441       0.00553571      -0.00249686      -0.00653312
H       10.94171604       6.00624792       0.90527208      -0.00831434       0.00438616       0.00825348
H        8.65846484       5.56040827       0.07030056      -0.00449015      -0.00139174       0.00363436
C        8.13077667       1.17864170       5.19202554       0.00208953      -0.01090673       0.00506427
C        7.04237188       1.92399719       4.74743091       0.00195663      -0.01379796       0.00150719
C        9.42308002       1.56194952       4.84175014       0.00192802      -0.00983449       0.00687987
C        7.24860995       3.04558319       3.95254944       0.00175880      -0.01554590      -0.00067830
C        9.62425866       2.67285344       4.02894586       0.00186571      -0.01155338       0.00447746
C        8.53665788       3.41476357       3.58671588       0.00154563      -0.01445116       0.00083972
H        7.96975571       0.31438926       5.82435983       0.00247660      -0.00980935       0.00634401
H        6.03662566       1.64069356       5.03446299       0.00202392      -0.01487363       0.00016681
H       10.27630078       1.01534984       5.22615166       0.00137607      -0.00756450       0.01058365
H        6.41209872       3.64187984       3.61452599       0.00128900      -0.01791168      -0.00371849
H       10.62359673       2.95933098       3.73153076       0.00166379      -0.01044887       0.00593296
H        8.69675117       4.28220302       2.95976628       0.00148848      -0.01577374      -0.00080287
C        2.23281407       3.55054934      11.64504182      -0.00732289      -0.00596453       0.00025955
C        1.20154867       3.53897400      10.71477465      -0.00441027       0.00140171      -0.00300476
C        3.21122445       2.56451828      11.61777054      -0.00887956      -0.00705544      -0.00331891
C        1.14481442       2.53292411       9.76060808      -0.00358841       0.00722004      -0.00856598
C        3.15647085       1.56017935      10.66049053      -0.00868998      -0.00205062      -0.00821441
C        2.11940097       1.54569786       9.73776661      -0.00581646       0.00529838      -0.01117852
H        2.26399140       4.32205927      12.40247477      -0.00715774      -0.00992120       0.00390106
H        0.42847639       4.29566625      10.75500471      -0.00335486       0.00202459      -0.00019444
H        4.00607905       2.56870348      12.35384774      -0.01109453      -0.01225324      -0.00113743
H        0.32562281       2.49963698       9.05387622      -0.00173558       0.01285657      -0.01058371
H        3.90596088       0.77872465      10.65172994      -0.01101104      -0.00400411      -0.00934119
H        2.04293350       0.74508413       9.01470123      -0.00483516       0.01019908      -0.01646393
C        3.30721430       1.70946887       3.78587182      -0.00003005       0.00410356      -0.00929979
C        3.38560686       3.08009042       4.00906155      -0.00014687       0.00267940      -0.00169440
C        2.06730697       1.08482856       3.72250855       0.00037612       0.00406672      -0.01048942
C        2.22497129       3.82353340       4.18022533      -0.00008550       0.00115567       0.00450248
C        0.90620129       1.82969725       3.89218837       0.00046359       0.00243390      -0.00445468
C        0.98552615       3.19685586       4.12883842       0.00029564       0.00109166       0.00290588
H        4.21049302       1.13275925       3.62841909      -0.00017402       0.00545785      -0.01398850
H        4.34407978       3.58258045       4.02657815      -0.00058934       0.00289468      -0.00033700
H        1.99463065       0.02826630       3.50214256       0.00049240       0.00530338      -0.01579957
H        2.29152026       4.89370535       4.32318152      -0.00017190       0.00012411       0.01064970
H       -0.05539499       1.34251054       3.79448556       0.00059639       0.00276463      -0.00494030
H        0.08337076       3.78399111       4.25158039       0.00044474      -0.00011478       0.00762816
C        3.56561809       6.07204254       1.67619349      -0.00013539       0.00402146      -0.00771199
C        4.63468984       5.40248613       1.09267170      -0.00157491      -0.00029485      -0.00489532
C        3.76649740       6.85543378       2.80448311      -0.00080208      -0.00022078      -0.00500289
C        5.90609116       5.51281806       1.64475516      -0.00340897      -0.00805944       0.00020772
C        5.03834707       6.96909486       3.34935810      -0.00259310      -0.00808612       0.00034873
C        6.10978165       6.29658572       2.77486831      -0.00370264      -0.01172411       0.00262263
H        2.57264886       5.99136360       1.25135222       0.00146301       0.01069489      -0.01248436
H        4.48211918       4.79566512       0.21001289      -0.00135724       0.00226320      -0.00654735
H        2.93928882       7.39027116       3.25446139       0.00026251       0.00293006      -0.00696844
H        6.73707200       4.97826118       1.20117778      -0.00443167      -0.01106648       0.00210102
H        5.20198609       7.59448271       4.21483562      -0.00280385      -0.01152569       0.00261010
H        7.09824057       6.39232358       3.20879144      -0.00504325      -0.01740057       0.00631958
