143
Lattice="11.642614344297538 0.0 0.0 0.0 11.642614344297538 0.0 0.0 0.0 11.642614344297538" Properties=species:S:1:pos:R:3:forces:R:3 energy=-145490.84375 stress="-0.0013100090436637402 0.0010712672374211252 0.00011761180576286279 0.0010712672374211252 -0.0016897753812372684 0.00013089980348013341 0.00011761180576286279 0.00013089980348013341 -0.0019813787657767534" pbc="T T T"
N       10.60218456      10.52362184       4.26391300       0.00844168      -0.01415923       0.01387469
C       10.01501207      10.20759809       3.09683906       0.02297992      -0.00494777       0.00865412
C        9.96444772      10.45448957       5.45008347       0.00839495      -0.00688376       0.00294405
C        8.71911948       9.73935728       3.10094941       0.01454510       0.00427479       0.00211752
C        8.65653398      10.02984741       5.48677066       0.00722739       0.00388676       0.00053220
C        8.03168894       9.63785133       4.30572164       0.00945109       0.00979250      -0.00407122
H       11.57339002      10.81618182       4.26189101       0.01127923      -0.02411672       0.01854120
H       10.61167848      10.31728187       2.20531000       0.01942837      -0.01338689       0.01810712
H       10.51163992      10.76528715       6.32513890       0.00343123      -0.01423923       0.01076190
H        8.25567037       9.43636074       2.17516509       0.01832714       0.00976068       0.00222385
H        8.15068387       9.99748490       6.44094675      -0.00106160       0.00561522      -0.00232089
H        7.01619595       9.26212650       4.30488488       0.00449447       0.01606673      -0.00799102
Br       8.52123322       4.26245231       1.26612143      -0.01624183      -0.00233509      -0.00053876
O        7.73661776       5.45400141       0.48415439      -0.01735401      -0.00201231       0.00140893
O        9.07704721       4.88862210       2.67534212      -0.01512825      -0.00365719      -0.00061315
O        7.50652026       3.03557479       1.56615034      -0.01516110      -0.00282604      -0.00006463
O        9.78648594       3.72324088       0.41052023      -0.01702708      -0.00105923      -0.00212175
O        7.13079919      10.20451774       8.64050407       0.01180986       0.00635093      -0.00432312
C        6.40970813       8.97965908       8.78981153       0.00488654       0.01248905       0.00451803
C        5.58677927       8.63133555       7.56512546       0.00033355       0.01137523       0.00841171
H        7.16536217       8.20871750       8.96204115      -0.00087506       0.00814468       0.00922128
H        5.77645067       9.01335091       9.68225161       0.00620335       0.02384428       0.00473735
H        5.12640715       7.64725532       7.68518479      -0.00730959       0.01611777       0.01547290
H        4.79495754       9.36073468       7.38822843       0.00583854       0.01634111       0.00511411
H        6.21918121       8.59708476       6.67599358      -0.00160690       0.00133362       0.00770040
H        6.59859771      10.97827038       8.89840099       0.01084504       0.00944770      -0.01334213
O        9.79001691       9.62271690       8.31732149       0.00752103       0.00505236       0.00419328
C       10.50378820       9.00980450       9.37804255      -0.00117543       0.00431648       0.00937223
C       11.15586491      10.02668910      10.29712388       0.00588810       0.00294870       0.00535402
H        9.84624566       8.34170725       9.94835143      -0.00912765       0.01410237       0.01113209
H       11.26871498       8.38270024       8.91133006      -0.00597587      -0.00539729       0.01512311
H       11.75789709       9.53551730      11.06420737       0.00098599       0.00178303       0.00826041
H       11.80643563      10.68690940       9.72275154       0.01196866      -0.00551867       0.00291473
H       10.40236695      10.64646784      10.78793487       0.01059970       0.01145548       0.00123520
H        8.92584320       9.93667672       8.63945708       0.00477243       0.00464692      -0.00267057
O        8.37377228       4.69305832       6.07322695      -0.00660169      -0.00001504      -0.00101080
C        9.55919019       5.44514531       6.35332474      -0.00330088      -0.00605518       0.00134698
C        9.43801275       6.87228378       5.87867495       0.00458878      -0.00538230       0.00208122
H        9.77701893       5.41888083       7.42944551      -0.00544343      -0.00782560       0.00150633
H       10.36769382       4.93297119       5.83004431      -0.00514433      -0.00922719       0.00215483
H       10.33293299       7.44633271       6.12351985       0.00782256      -0.01099233       0.00272970
H        9.27973635       6.90910721       4.80024777       0.00573198      -0.00392828       0.00209765
H        8.60040660       7.37063797       6.37564109       0.00736211      -0.00097288       0.00194599
H        7.61973450       5.23336103       6.33146725      -0.00397795       0.00619347      -0.00701414
O        2.75762082      10.29407199       5.18716730      -0.02399798       0.00721854       0.01219245
C        3.12883815       8.94182969       4.90982835      -0.00384019       0.01452506       0.00464517
C        2.21774664       8.30234969       3.88457623       0.00680476       0.00817803      -0.00007987
H        4.17100791       8.88660304       4.58034028      -0.00279158       0.03196631       0.00560547
H        3.05084249       8.40446679       5.85817222       0.00369187       0.00770554       0.00119933
H        2.44432287       7.23998734       3.76941838       0.02353609       0.01313826      -0.00827569
H        1.17797218       8.39465432       4.19898103       0.00540975      -0.01091411      -0.00018013
H        2.32174001       8.77464760       2.90677866      -0.00029554       0.01689255       0.00362433
H        3.21079886      10.89434132       4.57651912      -0.03266460       0.01691199       0.01514722
O        5.85721362       1.06214727       9.10166448      -0.00955072      -0.03189361      -0.00498372
C        4.47833862       1.10180395       8.70508138      -0.01055935      -0.01629954       0.00092223
C        3.55299840       0.97228826       9.89087599      -0.00636938      -0.01595082       0.00325501
H        4.28418863       2.02976374       8.15404531      -0.00179373      -0.00999117       0.00955449
H        4.35725615       0.27352695       8.00424044      -0.02147320      -0.00919881      -0.00490738
H        2.51448789       0.89451062       9.56368911      -0.00903293       0.00847368       0.00795360
H        3.80747602       0.09645557      10.48770796      -0.02088298      -0.02798340      -0.00905120
H        3.61483082       1.85423718      10.52870334       0.01317919      -0.02635996       0.01491696
H        5.97789850       1.70793145       9.80735272      -0.00193758      -0.04181117       0.00239342
O       11.08985904       7.78678337       2.50459865       0.00084022      -0.02121773       0.00396591
C       10.37179660       7.52801740       1.29785901       0.00360289      -0.00887008      -0.00007069
C       11.17636491       6.66056502       0.36165380       0.00171810      -0.00559095      -0.00464088
H        9.40511812       7.07055640       1.52072240       0.00066698      -0.00554788      -0.00616580
H       10.18053923       8.50564546       0.84703426       0.00950919      -0.00493771       0.00668491
H       10.60460944       6.40322115      -0.53030908       0.00269558       0.00533244      -0.00813369
H       12.09828024       7.16515336       0.06854534       0.00490594      -0.00811782       0.00150017
H       11.43401937       5.72098587       0.85239975      -0.00468983      -0.01079763      -0.01181214
H       11.35101598       6.93408188       2.87103680      -0.00655172      -0.02514111      -0.00049168
O       11.53427465       4.09096946       3.63433411      -0.01179488       0.01329738      -0.00430280
C       11.38325572       2.70881830       3.92574327       0.00232291       0.01514345       0.00989267
C        9.95110684       2.30844606       4.23258591       0.00539917       0.00064497       0.00261761
H       11.75354357       2.10958576       3.08293957       0.01600622       0.01084232       0.01952624
H       12.01832482       2.49939511       4.79265057      -0.00240898       0.03127193       0.01681316
H        9.93514298       1.34227751       4.73473884       0.01382907       0.00146413       0.00435250
H        9.47397925       3.03371780       4.88930221      -0.00648311      -0.00337739      -0.00187820
H        9.34854260       2.24098890       3.32547768       0.01223601      -0.00763434      -0.00111651
H       10.72290570       4.36556511       3.17284384      -0.01593164       0.00146864      -0.00390267
O        6.33839822       0.50980305       3.88188901      -0.00028032       0.00763422      -0.01628059
C        6.40461010       1.76056135       4.59104882      -0.00543568       0.00365366      -0.00903046
C        6.96638628       1.57660617       5.98216076      -0.00876462      -0.00309896      -0.00884891
H        7.00244664       2.47091048       4.01590792      -0.00597590       0.00834554      -0.00335282
H        5.37710023       2.11710567       4.63031172      -0.00637555       0.00070442      -0.00975629
H        7.06763233       2.54785323       6.47031092      -0.00890493      -0.00550531      -0.00436325
H        6.33960697       0.92612613       6.58852951      -0.01047243      -0.00530027      -0.01318346
H        7.97162529       1.15268145       5.95179793      -0.00910199      -0.00350323      -0.00902226
H        7.23945548       0.17726601       3.82423023       0.00207716       0.01523322      -0.02351405
O        5.27948126      11.71874670       1.30574637       0.00199306       0.01625139      -0.01671958
C        6.10170052      10.71071143       0.75309213       0.00290990       0.01138812      -0.00626150
C        7.45209881      11.24095451       0.30112478       0.00665438       0.00518334      -0.00144897
H        6.22458055       9.88243450       1.46400173      -0.00224695       0.01534137      -0.00082192
H        5.55742592      10.30691617      -0.10632317       0.00682926       0.00754963      -0.00659093
H        8.06066032      10.43888547      -0.12662217       0.00521629       0.00183459       0.00314554
H        7.32679052      12.00998062      -0.45955503       0.01393299       0.00398937      -0.00360979
H        7.99061399      11.69500934       1.13498642       0.00491523       0.00510335      -0.00051071
H        5.63428959      11.94807424       2.18466133      -0.00188094       0.01859834      -0.01597893
O        1.82836684       3.65745602       9.71464148       0.02493829       0.00013030      -0.02643031
C        1.88963766       4.96312328      10.28624772       0.00864449      -0.00585064      -0.01182301
C        3.26997008       5.57058325      10.16405159       0.00392175       0.00688154       0.00621175
H        1.13862304       5.61331601       9.82018729       0.00727779      -0.00737590      -0.01126146
H        1.60485317       4.83680384      11.33031613       0.00131955      -0.01953266      -0.01592183
H        3.29292567       6.57326224      10.59576534      -0.00884168       0.00251989       0.01611849
H        4.01015980       4.95202706      10.67243528       0.00447784       0.00813971       0.00646482
H        3.56934912       5.64425356       9.11638334       0.01115521       0.01985350       0.00949377
H        2.21277720       3.71379835       8.83508177       0.04307827       0.01144066      -0.01758640
O        3.17102806       1.20860035       4.13603069      -0.01925704       0.00082228       0.00001442
C        2.98918696       1.86026395       2.86565930      -0.00889288      -0.00425403      -0.00424388
C        2.29044954       0.96537042       1.86345938      -0.00824803      -0.00534695      -0.00329351
H        2.44945128       2.80076999       3.01141497      -0.00508013      -0.00134477      -0.01088978
H        3.99248094       2.09971982       2.51065976      -0.00646669      -0.00996149      -0.00050564
H        2.09467381       1.51372071       0.94006016      -0.00343742      -0.00780530      -0.00556853
H        2.91847932       0.10760737       1.62923623      -0.00999433      -0.00769340       0.00091970
H        1.33047295       0.62023247       2.25489637      -0.01037784      -0.00123855      -0.00546837
H        2.33709435       1.25455086       4.61382803      -0.01734760       0.02177195       0.00108212
O        5.75574050       7.63422661       2.71454150       0.01537338       0.00471717      -0.00298285
C        6.26399330       6.57892276       3.53975953      -0.00063653       0.00519329       0.00680907
C        5.55315366       5.26361359       3.31351296      -0.01215789       0.01131976       0.00962105
H        7.33760020       6.45342882       3.37203162      -0.00120294      -0.00627875       0.01431170
H        6.12112743       6.92142949       4.56866632      -0.00384058       0.01279248       0.00363445
H        6.01383439       4.48659897       3.92392249      -0.02404056       0.01037470       0.01692395
H        4.49375941       5.33299479       3.56182574      -0.01265767       0.02376681       0.00271584
H        5.65318190       4.94780460       2.27319566      -0.00967698       0.00499677       0.01201782
H        5.82797829       7.32622450       1.80507211       0.02552668       0.00046295      -0.00061087
O       11.52192891       1.11642310       7.02706793       0.01956868      -0.00721598      -0.00199284
C       10.99697980       2.25068922       7.74071493       0.01057357      -0.01070372      -0.00341570
C       10.66206600       1.92068976       9.17621436       0.00703438      -0.01163477      -0.00457692
H       11.71672061       3.07610817       7.69797535       0.00550729      -0.00655356      -0.00098975
H       10.11006876       2.55761606       7.18430663       0.01047060      -0.01695821      -0.00631489
H       10.34391819       2.80841683       9.72102828      -0.00656322      -0.01387335      -0.00912964
H        9.86968363       1.17248262       9.22980377       0.01554348      -0.02038701      -0.00654077
H       11.54431740       1.54320762       9.69736548       0.00811820      -0.00033139       0.00127713
H       12.17201007       0.69826552       7.60003449       0.02650191       0.00110030      -0.00401542
O        5.79443544       4.42379947       8.32973778      -0.00980920      -0.01290041      -0.00599858
C        6.88564010       5.10797313       8.95417945      -0.01406094      -0.00954168      -0.00313793
C        7.99953225       4.16464630       9.32688001      -0.01042956      -0.00501221      -0.00275943
H        7.26603076       5.89493719       8.28492675      -0.01676035      -0.00635859      -0.00055337
H        6.48383250       5.60443574       9.83826279      -0.01807146      -0.01368138      -0.00296545
H        8.84527049       4.70447560       9.75038100      -0.01522025      -0.00247435       0.00326018
H        7.67045204       3.44883947      10.08139395      -0.01012427      -0.00986442      -0.00751007
H        8.34267873       3.62051613       8.44468389      -0.00372142       0.00049299      -0.00328286
H        6.17012280       3.68189305       7.84322900      -0.00315264       0.00075275      -0.02143500
