146
Lattice="12.16343007124455 0.0 0.0 0.0 12.16343007124455 0.0 0.0 0.0 12.16343007124455" Properties=species:S:1:pos:R:3:forces:R:3 energy=-341862.34375 stress="-0.0028124384116381407 -0.00016538823547307402 0.00015722646639915183 -0.00016538823547307402 -0.002037655794993043 -0.0018764957785606384 0.00015722646639915183 -0.0018764957785606384 -0.0038501352537423372" pbc="T T T"
Rb      13.76631708      12.54183167      -0.27291525       0.01741332       0.01605639      -0.00867681
I       10.84238638      12.29322513       1.38616007       0.03908281      -0.00868649       0.02861439
O        3.40585861       7.53073891       7.26016999      -0.00945240       0.00748822       0.00706145
C        4.58573630       8.32519220       7.17844990      -0.00525540       0.00084767       0.00182396
C        5.51704346       7.76271689       6.10835262      -0.01315108      -0.00189772      -0.00346011
C        4.29189604       9.79889209       6.95150787      -0.00018194       0.00285363       0.00475408
H        5.07944975       8.22485865       8.14829060      -0.00224501      -0.00247317      -0.00168717
H        6.45028688       8.33039544       6.07103963      -0.00728999      -0.01221520      -0.00122542
H        5.74353846       6.71444017       6.31935994      -0.02429469      -0.00560392      -0.00824693
H        5.04262662       7.81769903       5.12562722      -0.01304837       0.00751082      -0.00166412
H        5.20511759      10.39003245       7.04268059       0.00320801      -0.00192317       0.00129601
H        3.57290732      10.16422896       7.68623234       0.00576046       0.00459744       0.00978033
H        3.87048926       9.97236643       5.95978065      -0.00428391       0.00700336       0.00836970
H        2.65975411       8.03733092       6.89652704      -0.00252730      -0.00293397      -0.01368341
O        1.42819045       8.91507168       5.93000600      -0.01822519       0.00094128      -0.00818402
C        1.69461177       8.46651971       4.58917988      -0.00039877       0.00410704      -0.00998908
C        1.19608440       7.04184839       4.42499628      -0.00380370       0.00335890      -0.01043686
C        1.12150586       9.46440829       3.60245598      -0.00932050       0.00286651      -0.00837934
H        2.78577691       8.47385684       4.52643736      -0.00841099       0.00713648      -0.00588217
H        1.44092780       6.63942471       3.44390127      -0.00233176       0.00444473      -0.01183902
H        1.64343807       6.40059803       5.18650775      -0.00266476       0.00272207      -0.01211335
H        0.10962806       7.00633690       4.53162753      -0.00179704       0.00280301      -0.01063617
H        1.39795341       9.22499288       2.57530991      -0.00548982       0.00429166      -0.00834030
H        1.49599023      10.46298374       3.83292733      -0.01422016       0.00427845      -0.00711412
H        0.03036442       9.48455128       3.66244530      -0.00769265      -0.00310066      -0.01110569
H        0.47539021       8.88005921       6.06543810      -0.00401220       0.00874438      -0.01707473
O        3.21743645       1.57603471       4.16476866      -0.00401491      -0.00059202       0.00957865
C        2.94585444       1.50459000       2.76523162      -0.00783162      -0.00455101       0.00559819
C        2.71066272       2.89111188       2.19288552       0.01308143       0.00153279       0.00792077
C        4.07686154       0.77026433       2.05255386      -0.00569338      -0.00985593       0.01275796
H        2.01900416       0.92127178       2.70519650      -0.00732720       0.00901580       0.00003342
H        2.39784312       2.86541735       1.14774486       0.02120133       0.00391627       0.00391866
H        1.92318840       3.40460677       2.73986198       0.01163758       0.00716536      -0.00046362
H        3.63183143       3.48140785       2.24791968       0.01584832      -0.00667972       0.01506045
H        3.87054329       0.56882374       0.99995283       0.00004195      -0.00144883       0.01000454
H        4.29647876      -0.18254543       2.53344328      -0.02219643      -0.01600455       0.00797617
H        4.97990347       1.37961436       2.07484516      -0.00055657      -0.02096759       0.02232594
H        3.90341624       2.23991351       4.29331483      -0.00809902      -0.02139762       0.01173951
O        8.21909343       7.67552543      10.94062848      -0.01073802      -0.02174157       0.00585844
C        7.53195441       8.75763483      10.28795895       0.01056629       0.00183022       0.01142153
C        7.59809299       8.60214539       8.78705484       0.00948843      -0.00949233       0.00838608
C        6.09840838       8.85481282      10.78370653       0.00633276       0.01081601       0.00431389
H        8.07591518       9.65645711      10.57872092       0.01401013      -0.01474130       0.00736474
H        7.16401877       9.46902881       8.28904781       0.01772968      -0.00302787       0.00690727
H        8.62897115       8.51104140       8.45780236       0.00892293      -0.01639832       0.01283989
H        7.04982981       7.70770446       8.48135043       0.00268714      -0.00149523       0.00804280
H        5.59170615       9.70719375      10.32501831       0.01760166       0.01551525       0.00232805
H        6.08682037       8.96849537      11.86843278       0.00695632       0.01576376       0.00584568
H        5.54462965       7.94866430      10.51425413      -0.00196580       0.01750648       0.00901068
H        7.95132567       6.86214586      10.50077263      -0.01319183      -0.00290856       0.01617537
O        4.10145082       2.19521604      11.02764820      -0.02545795      -0.00850967       0.02936465
C        4.19240878       3.48646505      10.37125015      -0.01899429      -0.01948169      -0.00233442
C        2.95734784       4.30940980      10.66770807      -0.01183957      -0.00414804      -0.00835310
C        5.46449405       4.20065017      10.79040744      -0.01366100      -0.02591532       0.01451957
H        4.23182327       3.25912476       9.30574127      -0.01068635      -0.02546420       0.01475424
H        2.98876071       5.25659194      10.12495313      -0.00261680      -0.01174481      -0.01840739
H        2.05011973       3.78038397      10.37173526      -0.01665631      -0.00254020      -0.01148643
H        2.89471817       4.52212556      11.73416648      -0.02139732       0.00557053      -0.01265211
H        5.53330425       5.17162986      10.29298011      -0.00175250      -0.02995616       0.00001972
H        6.35298851       3.62045491      10.54267099      -0.02074425      -0.03458656       0.02708883
H        5.46095923       4.38948851      11.86757880      -0.02487973      -0.01175011       0.00760959
H        4.55772346       2.28241679      11.87157711      -0.03046155      -0.01129982       0.00702360
O        9.55766049      10.77092536       8.98820503       0.00649223      -0.00073206       0.03254032
C       10.78051644      10.08327886       9.18832280       0.00701863       0.00535239       0.00614644
C       11.54652242       9.85869484       7.90109263      -0.00948626       0.01880962      -0.00759006
C       11.64474908      10.79156728      10.21172170       0.02492079       0.00943100      -0.00965792
H       10.47677077       9.11630245       9.60319143       0.02149276       0.01015937       0.00474817
H       12.37550833       9.17168200       8.08603628      -0.00203066       0.02073188      -0.02020447
H       10.89142083       9.44486188       7.13419106      -0.01324704       0.01579260      -0.00238796
H       11.97541562      10.79133309       7.52421502      -0.01603184       0.01886675      -0.01000193
H       12.52991829      10.18950806      10.43980512       0.02946640       0.00620884      -0.02636313
H       11.08783347      10.97105049      11.12977777       0.04308087       0.00750243       0.00123361
H       11.95798387      11.76056506       9.80163514       0.02007917       0.00669739      -0.01271595
H        9.68472828      11.58552118       8.49207988      -0.01441532      -0.01562051      -0.03571616
O        8.44511699       5.52765801       4.98188841       0.00212330      -0.00006953       0.00472952
C        9.36838619       5.73034705       6.05602867       0.01484637      -0.00138637       0.00233543
C        9.83817975       7.16797998       6.10810935      -0.00337361       0.00838429      -0.00633014
C        8.75911211       5.27015802       7.36613475       0.01024598       0.00745532       0.00513810
H       10.21566040       5.08346105       5.81348218       0.01024634       0.01102951       0.00812369
H       10.60656635       7.27646952       6.87564168       0.00118291       0.01564058      -0.00811076
H       10.23657035       7.49192521       5.14647907      -0.00737891       0.00519350      -0.00699505
H        9.01090391       7.83362129       6.36394883      -0.00389691       0.00253378      -0.00496360
H        9.48225776       5.32756982       8.18249718       0.01022318       0.01695523       0.00569448
H        8.41533482       4.24378778       7.27487464       0.02011809       0.00220999       0.01099624
H        7.90201208       5.89607755       7.62245505       0.00668845      -0.00016300       0.00076475
H        7.78428351       6.22780434       5.03139309       0.01508527      -0.01583439      -0.00451834
O        3.64713818       8.87963755       1.04867640       0.00298819       0.00937530      -0.02575177
C        3.57395360       7.54738151       1.59158373      -0.01427067       0.01586497       0.00062519
C        2.36600244       6.81510367       1.03557436      -0.00726515       0.01494336      -0.01982084
C        4.86313669       6.78900576       1.34068345      -0.00962216       0.01087537       0.00190809
H        3.45322338       7.69694872       2.66647292      -0.02216284       0.02035125      -0.01685715
H        2.28224016       5.81183390       1.46057215      -0.01174633       0.01716818      -0.01525760
H        1.44336936       7.35400410       1.24689941      -0.00990593       0.01769292      -0.02709711
H        2.46066305       6.71065786      -0.04575531      -0.00486802       0.01250578      -0.01721688
H        4.84324345       5.81738657       1.84011729      -0.01960118       0.01250485       0.01248410
H        5.72640169       7.34344833       1.70388812      -0.01538481       0.00738305       0.01008972
H        4.99740015       6.61346518       0.27126578       0.00227821       0.00049692       0.00914250
H        4.04253306       8.79834478       0.17440847       0.00025430       0.00228974      -0.00336117
O        7.38113727       0.27113600       7.99960972       0.00696337      -0.00414985      -0.03232884
C        7.26993893       1.51699070       8.68796823      -0.00632702      -0.01698273       0.00601713
C        8.65586337       2.07230717       8.99853755      -0.00538749      -0.01337051       0.00597371
C        6.42293773       2.48145071       7.87433905       0.00355551      -0.00614849      -0.00509647
H        6.76582805       1.29074757       9.63393276      -0.00533047      -0.02640112      -0.01969439
H        8.60040264       3.04516772       9.49259266      -0.01093201      -0.02167626       0.02038728
H        9.20179296       1.39217157       9.65446899      -0.00659041      -0.02386963       0.00490789
H        9.22297551       2.20439715       8.07293321      -0.00125761      -0.00295230       0.01406886
H        6.32286129       3.45376340       8.35452926      -0.00150357      -0.01162469       0.01679554
H        5.42907153       2.06264548       7.70645631       0.00567825      -0.00216763      -0.01303904
H        6.88934592       2.63458617       6.90321371       0.00893503       0.01173645       0.00966927
H        7.40369837       0.46830848       7.04994273       0.01420607       0.00139403      -0.00915524
O        9.45763712       9.50734704       2.99269423       0.03593262      -0.01128203       0.02012080
C        9.29080467       8.66439355       1.85085436       0.01310892       0.00158870       0.01385611
C       10.63682299       8.25996600       1.26801333       0.00094700      -0.00495911      -0.00691384
C        8.51041712       7.46137984       2.32366384      -0.00647369       0.00843924      -0.00184667
H        8.71421628       9.19434190       1.08060707       0.01501709       0.02414331       0.02970856
H       10.50503573       7.57439416       0.42959028      -0.01947897       0.01416107      -0.01803499
H       11.18431677       9.13880273       0.92185538       0.00769837      -0.00524415       0.00331980
H       11.22812802       7.76697121       2.04323027       0.00499027      -0.02883381      -0.02671462
H        8.23788915       6.82459757       1.48317227      -0.01586773       0.02813462      -0.01222508
H        7.60464876       7.78141175       2.84198287      -0.00195324       0.01708101       0.00114283
H        9.10987191       6.87869241       3.02281991      -0.02147804      -0.01660039      -0.01019241
H        9.87112552      10.32915198       2.68169809       0.00733671      -0.00295368       0.02124749
O       11.86975715       3.45677580       1.26737298       0.00274962       0.00491858       0.00537229
C       10.99055708       4.02979331       2.24366411       0.00050306       0.01690823      -0.00410381
C        9.58183595       4.13013955       1.67964642       0.00182420       0.00592514      -0.00860643
C       11.03064116       3.24329858       3.54885757      -0.00210180       0.02749673       0.00180990
H       11.38288355       5.03695400       2.41968288      -0.00143704       0.01871896      -0.01456631
H        8.88803638       4.50487052       2.43331761      -0.00237034       0.01091233      -0.01543820
H        9.56418543       4.80098749       0.82031283       0.00034194      -0.00507268      -0.01700443
H        9.24758187       3.14360268       1.35313278       0.00831494       0.00051777       0.00299851
H       10.34450688       3.68371750       4.27341272      -0.00830162       0.02644756      -0.00410622
H       12.03527055       3.22895555       3.97444193      -0.00455719       0.03450092       0.00666876
H       10.73591772       2.20771074       3.37019251       0.00547511       0.02510357       0.00451244
H       11.55047520       2.54343576       1.14451915       0.01076350       0.00071096       0.02326183
O        7.59965554       1.13056739       5.22009632       0.02408671      -0.00537214      -0.00102018
C        6.76852177       1.53134696       4.11117943       0.00225371      -0.01812652       0.00354367
C        6.37857660       2.99881926       4.22557622       0.01019316      -0.01408774      -0.00292823
C        7.50022880       1.23819207       2.81872340       0.01485974      -0.01969098       0.00423884
H        5.87647337       0.90847889       4.20262165       0.01604819      -0.01266739       0.00413550
H        5.79460252       3.30577486       3.35258678       0.00482470      -0.01695440      -0.00073145
H        5.78621752       3.19064241       5.12238587       0.00988384      -0.01449608      -0.00012806
H        7.26041841       3.63899935       4.27172553       0.00669435      -0.01282419      -0.00566885
H        6.99107905       1.66456719       1.95349957       0.00639355      -0.02837227       0.00013074
H        7.63301622       0.16864947       2.66248965       0.01699513      -0.01793131       0.01321263
H        8.48959829       1.69578627       2.84701080       0.00660022      -0.01146059      -0.00187136
H        8.51260335       1.30773930       4.96878182       0.00331861      -0.00431808       0.00447920
