146
Lattice="16.442854848158355 0.0 0.0 0.0 16.442854848158355 0.0 0.0 0.0 16.442854848158355" Properties=species:S:1:pos:R:3:forces:R:3 energy=-1175481.25 stress="-2.69232095888583e-05 0.00012915385013911873 -0.0002183293254347518 0.00012915385013911873 9.88202664302662e-05 -2.3219516151584685e-05 -0.0002183293254347518 -2.3219516151584685e-05 -0.00038261135341599584" pbc="T T T"
Rb      15.53621892      17.19247515      -1.83939669       0.00628057      -0.02001387      -0.01211312
O       15.22225649      15.27705970       0.11531403       0.01057357      -0.01937366      -0.00107288
O       14.47043111      17.30495149       0.60176352       0.02506009       0.01743317       0.00209093
O       14.41462446      15.69176099       2.18380154      -0.00637382       0.01625931      -0.01354480
C       14.64919189      16.15393737       1.06642236       0.00702506      -0.00316116       0.01610112
H       15.33315661      14.42961306       0.56286333      -0.01637786      -0.01845852       0.01258340
Cl       5.28185443       6.00359928      10.28765657      -0.00772478      -0.00820553      -0.00590450
Cl       5.96912683       7.84721013      12.44746776      -0.00801847       0.00135437      -0.00770321
Cl       5.05974417       5.13050764      13.06462268       0.00956437      -0.00726184       0.00361060
C        5.94550854       6.16140223      11.93120810       0.00077439      -0.00031626      -0.01259045
H        6.96827674       5.80811670      11.89572898       0.00435516       0.00405928      -0.00858381
Cl       3.39131126       4.54040767       7.52162798       0.00911905       0.01376620      -0.00156195
Cl       1.38673814       6.49344443       8.36004112      -0.01678164      -0.00631252      -0.00529984
Cl       0.84437769       3.64976749       8.65034296       0.01422016      -0.00954781      -0.01248292
C        2.08579873       4.89989277       8.67908621       0.00085504       0.00447514      -0.00425601
H        2.53495049       4.92214209       9.66592797      -0.00647737       0.00555249      -0.00059855
Cl      11.39301951      13.66464018      10.35008053      -0.00244859       0.00161184       0.00551050
Cl      13.89264093      12.14099526      10.38028589      -0.00441649      -0.00590429      -0.02352484
Cl      13.66152790      14.54785801       8.73702244       0.00186261       0.01011159       0.00207850
C       13.15886681      13.75065675      10.22687751      -0.00002485      -0.00074296      -0.00552611
H       13.51520042      14.33792816      11.06460925       0.00540794      -0.01020794      -0.00102231
Cl       8.96067204      10.36250582       4.59750692      -0.00204167      -0.01008277       0.01083097
Cl       7.77063916       9.57594612       7.14568495      -0.01077914      -0.00685626      -0.00023627
Cl       8.19227379      12.40608325       6.53416306      -0.01300628      -0.01160967       0.00511372
C        7.81430524      10.80939889       5.87046470      -0.00379629      -0.00541115       0.00319100
H        6.82741043      10.86409009       5.42715182      -0.00038332      -0.01105613      -0.00043075
Cl       7.93432360       5.75932269       3.75031404       0.00399669      -0.02687052       0.00670767
Cl       5.15173692       5.24743372       3.01297909       0.00621686      -0.00573258       0.00850992
Cl       6.27961250       4.03304594       5.41065731      -0.01333306       0.01946987       0.02706987
C        6.30235733       5.44811414       4.35187135      -0.00207769      -0.00239979       0.00530788
H        5.99008098       6.30879647       4.93303682       0.01172097       0.01109087      -0.01140904
Cl       1.04082307      14.76639789      10.02069522       0.01204035       0.01359507       0.01265191
Cl       2.20833164      15.53327736       7.46248514      -0.00064565      -0.00781858      -0.00293167
Cl       3.93386678      14.69029436       9.66030066       0.01931104       0.00441243      -0.00813681
C        2.36090198      14.47441780       8.86930647       0.00710774      -0.00042537       0.00591182
H        2.29167004      13.44428239       8.53858341       0.00481401      -0.00427184       0.01272572
Cl      12.68347500       9.46060988       5.49399349      -0.02556579       0.00415155      -0.00196204
Cl      14.58550231      11.48592870       6.39078686      -0.01691622      -0.00192866      -0.01034081
Cl      11.75526686      11.70894731       7.09815708      -0.01368350      -0.00124767       0.01200164
C       13.08865014      10.60578039       6.77788024      -0.01583415       0.00262875      -0.00431486
H       13.27577738      10.03677310       7.67928037      -0.01024432      -0.00108692      -0.00917232
Cl      13.82256594       9.86020702      13.91034975      -0.00249232       0.03265287      -0.01052225
Cl      11.32760654      10.23669881      15.38153699      -0.02395967      -0.00808117      -0.01327124
Cl      12.21971989       7.54315064      14.66395188       0.02448478      -0.00184235      -0.01469257
C       12.72634998       9.18654398      15.11803583       0.00447591       0.01447147      -0.00687563
H       13.26707128       9.11308496      16.05370418      -0.00143576       0.01875228       0.00213316
Cl       8.88642772       5.35099815       7.76015536      -0.00083709       0.02277708      -0.00433084
Cl       8.33435596       2.52332736       8.23486216      -0.00156078       0.00907484       0.00679473
Cl      10.74430214       3.31697772       6.78202746       0.00615007       0.00724833      -0.00032091
C        9.60241445       3.75218825       8.05544753       0.00295674       0.01224361       0.00319368
H       10.14155263       3.80563989       8.99367504       0.00752996       0.01973506       0.00390556
Cl       2.81294739      11.16724819      10.48225691      -0.01123545       0.02206701      -0.02051210
Cl       1.26301981      10.40523174       8.12483778      -0.01549162      -0.01469515       0.00052312
Cl       3.89299774       9.21443037       8.61145700       0.01092046       0.03530420      -0.02054518
C        2.42290293       9.86105680       9.35320935       0.00652382       0.01410740      -0.01234394
H        1.95343037       9.06287639       9.91637103       0.02555184       0.01395708      -0.00074071
Cl       6.59758057      -0.70798676       3.52695276       0.02182215       0.00479546       0.00192275
Cl       8.67674795       0.88367138       4.81227856       0.00039893       0.02231537      -0.00440201
Cl       7.72993211       1.61693395       2.14978289       0.00305603      -0.00098442      -0.01110393
C        7.29974525       0.91552652       3.71805270       0.00304441       0.01040534      -0.00724446
H        6.53578948       1.54656631       4.15370942      -0.00463617       0.00808002      -0.01717344
Cl      12.20999777      16.14115556      15.07438766       0.00363670      -0.02988486       0.01764576
Cl      12.99590734      13.65062405      13.80194337      -0.00747249      -0.01733455      -0.01604928
Cl      10.23168364      14.04089657      14.65251973      -0.01365149      -0.00041951      -0.01667000
C       11.67410439      14.81445236      14.02341065      -0.00250025      -0.00669063       0.00162131
H       11.43702000      15.22812242      13.04978435       0.01030824       0.00658205       0.00493121
Cl      14.44268747       9.87505538       2.06400025       0.00410241      -0.00329581       0.01015314
Cl      16.48373081      10.89885573       0.24172039       0.00366118       0.00198511       0.01332110
Cl      15.72928949      12.43432137       2.59987056      -0.01697138       0.01050103      -0.00046915
C       15.93843208      10.81515922       1.92874805      -0.00386542       0.00937730       0.00700513
H       16.70255124      10.29567034       2.49605277      -0.00602397       0.01720008       0.01538341
Cl      11.57427617       2.76219550       2.69345821      -0.00192428      -0.01523250      -0.01999234
Cl      14.01671891       4.20308827       1.99588006       0.00052723       0.00368041       0.00562589
Cl      13.92052824       2.55289510       4.40969067      -0.01057494      -0.01228383       0.00038469
C       13.33803378       2.72283010       2.74391527      -0.00307460      -0.01421836      -0.00243305
H       13.69580253       1.88291992       2.14793540       0.01223031      -0.00944501      -0.00193009
Cl       5.94964317       9.06399422       3.00012658      -0.00181121       0.00775629       0.00551635
Cl       3.55735610       8.98039825       4.64795386      -0.00357161       0.00721852       0.00054009
Cl       3.39258048       9.95995767       1.89340530      -0.00234744      -0.01256318      -0.00743296
C        4.19352402       8.83610820       2.99884116       0.00223100      -0.00425823       0.00053153
H        3.98917372       7.83135173       2.64931282       0.00849750      -0.01004308       0.01019529
Cl      10.62909275       2.31819157      13.79201988       0.00656885       0.01643488       0.00383027
Cl      11.45258111       4.42131674      11.94155331      -0.01809955       0.01980545      -0.00729358
Cl       8.65087978       3.58662461      12.06376017      -0.00988398      -0.02197120      -0.00874837
C       10.15279383       3.81977038      12.98490941      -0.00946679       0.00603810      -0.00473678
H        9.96203152       4.56251983      13.75186952      -0.02214117       0.00917754      -0.01001285
Cl       7.58232255      11.56874830      -1.04710412      -0.00302173       0.01084656       0.00828362
Cl       7.99577976      12.41329379       1.71736376      -0.02093518      -0.02564494      -0.00617871
Cl       6.77753191      14.24744876      -0.19947857       0.01652545      -0.01273659       0.01413453
C        6.96257530      12.55641445       0.29123569       0.00726754      -0.01151924      -0.01583125
H        5.97946429      12.17821361       0.54805925       0.01140103       0.00680326      -0.00818016
Cl      11.27474247       9.83544644      10.89028948      -0.00735345      -0.00755735       0.00539148
Cl       8.52358606      10.58325786      11.51021659      -0.00050798      -0.00634009       0.00195924
Cl       9.12139768       7.90643635      10.47582113      -0.00257447       0.00434273      -0.00915498
C        9.70474501       9.26357530      11.46251117      -0.00341903      -0.00493285      -0.00518147
H        9.83496453       8.90243673      12.47558270      -0.00845425      -0.01196824      -0.01009411
Cl       1.39083469       5.95429694      16.23137286       0.00779636       0.00076825       0.00957225
Cl      -0.79309592       4.60560351      14.85064575       0.00672661      -0.00453154       0.00478912
Cl       1.56531518       3.10248296      15.68607843      -0.00430086      -0.00810499       0.01989142
C        0.48093751       4.44882381      16.07669664       0.00203938      -0.00598946       0.01639080
H       -0.00282120       4.23404854      17.02395603      -0.01198259      -0.00687924       0.01151204
Cl       2.27126071      12.74361183       4.41046341       0.00853863       0.00449033       0.01425453
Cl       4.22623788      12.41535861       6.55885286       0.01196548      -0.02089046       0.01042303
Cl       5.12913741      12.70030602       3.80810069       0.00045259       0.00555025       0.01048513
C        3.88462836      13.15790933       4.99243434       0.00962065      -0.00598419       0.01573902
H        3.92922603      14.23450791       5.11276735       0.00992102      -0.00869140       0.03001072
Cl       5.90911700       7.35185210      -0.34571075      -0.01808682      -0.01783259       0.00645117
Cl       7.53451857       4.92124903      -0.39723419      -0.00156952      -0.00597772       0.00463256
Cl       8.80510802       7.53012144      -0.71597402      -0.02457422       0.00247683       0.01008077
C        7.47867687       6.63871076       0.04547660      -0.01049260      -0.00835155       0.00991369
H        7.61329594       6.70031106       1.11862532      -0.01118698       0.00465121       0.00961161
Cl       1.01680610       9.07782941      13.89611664       0.02397934      -0.01075691      -0.01219549
Cl      -0.46813803       7.40133723      12.01503024       0.00442073       0.00096121      -0.00051467
Cl       2.44617938       7.42167354      11.96744667       0.00652051      -0.02573011      -0.01269102
C        0.99937842       7.56559196      12.97940860       0.00741494      -0.01037560      -0.00488880
H        1.02670152       6.75295167      13.69411420       0.00375319      -0.01438671      -0.00884953
Cl      11.17389580      13.67622686       4.11113554       0.01373291      -0.00836748      -0.00430787
Cl      12.01776624      12.96944159       1.41208514      -0.01049895       0.01735646      -0.01414996
Cl      10.44489906      15.39321857       1.86456748       0.00647211       0.00628328       0.02628997
C       11.67653336      14.30810056       2.53390601       0.00335474       0.00464268       0.00012346
H       12.59888574      14.87078313       2.64720801       0.00386620       0.00104707      -0.00281704
Cl       1.51599833      15.52698239       2.05984968      -0.00710830       0.01634855       0.00792304
Cl       3.03354311      13.73968892       0.33361602      -0.01045505       0.00339931       0.01226760
Cl       3.79019039      16.55369076       0.55494331       0.00065074       0.00145033       0.00696972
C        3.10543536      15.15623600       1.40501405      -0.01401973       0.01294541      -0.00277353
H        3.77699375      14.91319409       2.22131950      -0.02163219       0.00883469      -0.00395435
Cl      12.03198542       6.78681418       8.24851950       0.00202009      -0.00521486      -0.00221797
Cl      14.60154936       8.05427463       8.81560910      -0.01180571       0.00641415       0.01282696
Cl      14.09524101       5.30994161       9.67606975       0.00411148       0.00507450      -0.00238010
C       13.76222282       6.53472235       8.43732974      -0.00199156       0.00286748       0.00448253
H       14.16787333       6.17397048       7.49992516       0.00321237       0.01114912       0.00549418
Cl       2.79073995       0.25685141      13.63413765      -0.00010038      -0.01481604       0.00440052
Cl       2.23740707       2.47146330      11.81228054      -0.01371656       0.00509784       0.01543605
Cl       4.90184507       1.26829073      11.89654274       0.00510424       0.01900833       0.01131454
C        3.17009135       0.98614963      12.05305533       0.00109081       0.00052570      -0.00185800
H        2.86737853       0.27463578      11.29288262       0.00770251      -0.00245194      -0.00897388
Cl      -0.25869171       8.44454987       5.23747392       0.00074738      -0.01342171       0.00602033
Cl      -0.56319298       5.53620945       5.26281390       0.00503990      -0.00303712      -0.02497276
Cl       0.84914199       6.82665948       3.07312038       0.01413715       0.01340125      -0.00127614
C        0.46996289       6.89721885       4.80982113       0.00857346      -0.00431363      -0.00511891
H        1.40367610       6.80483715       5.35157651       0.00362289      -0.00784051       0.00178784
Cl       3.69525115       1.09655158       4.31383667       0.02632968       0.01089382       0.01556797
Cl       1.86352569       2.85043277       2.86678274       0.03216083      -0.00237109      -0.01226971
Cl       1.07994562       1.73566693       5.44589019      -0.00019777      -0.01984072      -0.03340836
C        2.41493715       2.32412009       4.46291127       0.01091166       0.00082676      -0.00256909
H        2.85686196       3.17862146       4.96031923      -0.00820252       0.00423235       0.00978853
