137
Lattice="12.419875027406649 0.0 0.0 0.0 12.419875027406649 0.0 0.0 0.0 12.419875027406649" Properties=species:S:1:pos:R:3:forces:R:3 energy=-178327.765625 stress="4.642276689992286e-05 0.0005870474560651928 -0.0002968503686133772 0.0005870474560651928 -0.0011302129132673144 -0.00046566472155973315 -0.0002968503686133772 -0.00046566472155973315 -0.0021906758192926645" pbc="T T T"
Rb      15.61679749      11.95716261       0.67287658      -0.00467098      -0.00672713      -0.00136100
F       13.40666135      11.09364740       0.11836128       0.01264152      -0.03816368      -0.02911976
O        3.21948525       2.63084303       6.23318675      -0.00172563      -0.00420916       0.00305809
O        1.86934654       4.16211377       6.93506849      -0.00156703      -0.00566831       0.00444660
O        3.84112341       4.80154707       6.02282371      -0.00208777      -0.00252134       0.00089046
C        4.46502296       2.22052771       5.61596162      -0.00172657      -0.00416428       0.00338334
C        4.72718677       0.79950922       6.02862236       0.00041023      -0.00280023       0.00619747
C        3.05621648       3.95063802       6.36138683      -0.00467777      -0.00756288       0.00375065
C        1.59698443       5.55213847       7.20153764      -0.00246167      -0.00639240       0.00517491
H        4.36498731       2.32533461       4.53426970      -0.00217029      -0.00625388       0.00329953
H        5.25173945       2.90377070       5.93015033      -0.00251657      -0.00247210       0.00192975
H        5.71235989       0.50137676       5.67181937       0.00060236      -0.00218304       0.00683241
H        4.71031078       0.70013269       7.11340252       0.00062520      -0.00036003       0.00630647
H        3.99794584       0.11059012       5.61148106       0.00124359      -0.00460802       0.00785764
H        2.40095310       5.98937089       7.78427074      -0.00289485      -0.00637044       0.00588462
H        0.66531760       5.55071149       7.76033141      -0.00252658      -0.00700215       0.00462753
H        1.49350651       6.10714157       6.27206403      -0.00198337      -0.00574087       0.00555849
O        4.98000286       2.60084055       9.08970078       0.00375437      -0.00331922       0.00342379
O        3.01935934       2.36695137       9.97803919       0.00545307      -0.00890808       0.00430821
O        3.72963178       4.45166656       9.45055426      -0.00039719      -0.00491071       0.00620046
C        6.03687224       3.44440897       8.56676378       0.00102150      -0.00108320       0.00263251
C        7.17246823       2.53132962       8.18795265       0.00233573       0.00208646      -0.00026019
C        3.89962554       3.25864796       9.49887522       0.00320937      -0.00914955       0.00495372
C        1.74596507       2.94175122      10.31718823       0.00398959      -0.01334143       0.00468312
H        5.64564093       4.01421786       7.72245916      -0.00163963      -0.00099632       0.00395489
H        6.32971912       4.15822632       9.33584350       0.00089243      -0.00122964       0.00285125
H        8.02922404       3.12274143       7.86793181       0.00018495       0.00411454      -0.00156963
H        7.46801162       1.92598770       9.04276996       0.00538523       0.00234027      -0.00129318
H        6.88912927       1.86307770       7.37639939       0.00217664       0.00189626       0.00005494
H        1.86441358       3.70306848      11.08717909       0.00102457      -0.01650964       0.00829728
H        1.13985617       2.11496479      10.67576523       0.00498597      -0.01595011      -0.00014897
H        1.30001577       3.39301295       9.43220188       0.00434192      -0.01048967       0.00603426
O        3.00778211      10.39618989       6.12426129      -0.00389981      -0.00283308       0.00549069
O        4.87284059       9.37729423       6.52076502      -0.00421244      -0.00303251       0.00307133
O        2.94799458       8.19086896       6.61513605      -0.00512195      -0.00411284       0.00434728
C        1.56455577      10.37973416       6.04830004      -0.00403450      -0.00186479       0.00617485
C        1.11999259      11.77931913       5.71756606      -0.00321501      -0.00270104       0.00230497
C        3.55784472       9.21619420       6.44420080      -0.00399670      -0.00016046       0.00404757
C        5.60654500       8.14764109       6.66953802      -0.00469281      -0.00262108       0.00260397
H        1.25447794       9.66218885       5.28984718      -0.00466739      -0.00410947       0.00880620
H        1.16204086      10.02673107       6.99805300      -0.00350370       0.00164762       0.00775957
H        0.03164383      11.80803643       5.67545047      -0.00301942      -0.00283445       0.00033694
H        1.46099251      12.49324438       6.46757538      -0.00438181      -0.00112011       0.00122063
H        1.50852158      12.09116963       4.74809422      -0.00103647      -0.00521975       0.00251359
H        5.29991201       7.63941964       7.58137297      -0.00133950      -0.00068857       0.00476056
H        6.64849542       8.44577214       6.71944280      -0.00442812      -0.00358406      -0.00235924
H        5.43047233       7.51228490       5.80470931      -0.00872183      -0.00458153       0.00469163
O        5.81863042       9.70471515       9.40981157      -0.00416234       0.00438688       0.00174458
O        3.78116861      10.38913795       9.17677254      -0.00521480       0.00178871       0.00748982
O        4.81651516      10.74249214      11.15206614       0.00390562       0.01279244      -0.00019753
C        6.97238738       9.43814318      10.24585415       0.00013851       0.01357596      -0.00234878
C        8.07476547       8.89971314       9.37737419      -0.00260213       0.01296586      -0.00517607
C        4.80470588      10.31706860      10.01451839      -0.00223447       0.00768882       0.00436461
C        2.62514851      11.09679271       9.68175566      -0.00222823       0.00834744       0.00692415
H        7.25143436      10.35441589      10.76629289      -0.00079886       0.01740783      -0.00916125
H        6.68665469       8.69621300      10.98580646       0.00620574       0.01703787       0.00331873
H        8.91444096       8.61992378      10.01505115       0.00160556       0.01843128      -0.00843377
H        7.74785400       8.00929733       8.84276038      -0.00257571       0.00987288       0.00025337
H        8.40950358       9.63610431       8.64828537      -0.00888788       0.01071896      -0.01001419
H        2.21840717      10.63585982      10.58388887      -0.00025408       0.01769538       0.01278046
H        1.89999417      11.04978809       8.87562423      -0.00595276       0.00196260       0.01074770
H        2.89164645      12.13580145       9.87502574       0.00154877       0.00967512      -0.00533445
O        9.40857613       7.63334066       6.53158964      -0.00148851       0.00275575      -0.00014941
O        8.95490911       9.68100365       6.00734981      -0.00485846       0.00132030      -0.00273133
O       11.12775409       9.06300752       6.15952827      -0.00580657       0.00396180      -0.00524992
C       10.36532797       6.59665271       6.85863417       0.00052202       0.00477794       0.00038502
C        9.59240360       5.42616870       7.40619499       0.00230324       0.00415227       0.00113299
C        9.95009129       8.81151165       6.22318971      -0.00103235       0.00351878      -0.00311833
C        9.40247533      11.01916894       5.75078633      -0.00660202       0.00170812      -0.00397938
H       10.91901603       6.33967169       5.95302601       0.00047913       0.00485647       0.00059125
H       11.07599356       6.99810540       7.58134442      -0.00015646       0.00641072      -0.00023815
H       10.27887773       4.60123578       7.60321791       0.00355744       0.00551149       0.00199153
H        9.09033772       5.68354210       8.33890003       0.00175239       0.00406003       0.00075400
H        8.84569306       5.08588340       6.68857774       0.00321932       0.00238517       0.00128779
H        9.97083377      11.39740398       6.60040382      -0.00618915       0.00269270      -0.00493243
H        8.50014666      11.60475408       5.60802337      -0.00745977       0.00030977      -0.00318052
H       10.02644651      11.04926158       4.85967321      -0.00791630       0.00195757      -0.00462884
O        2.98001364       9.87488655       2.85999494      -0.00367892       0.00388046       0.00254629
O        4.81851268      10.94068134       3.28050541      -0.00451720       0.00034445       0.00393568
O        4.69869802       8.73593822       3.78686655       0.00244522      -0.01684868       0.00828862
C        2.21898967       8.62898630       2.85212269      -0.00527066       0.00634739      -0.00618707
C        0.83482701       8.94804032       2.36828674      -0.00486517       0.00730795      -0.00428514
C        4.21407615       9.74829556       3.36252039      -0.01615062       0.02531022      -0.00774774
C        6.15678417      10.94076413       3.82365650      -0.00538525       0.00172558       0.00321986
H        2.73611036       7.93230882       2.18965745      -0.00514139       0.00995302      -0.01098722
H        2.24989172       8.21370256       3.86096965      -0.00470133      -0.00110450      -0.00824165
H        0.27763018       8.01651040       2.25225258      -0.00307794       0.00847282      -0.01489692
H        0.30642134       9.56784225       3.09384810      -0.00686608      -0.00025316       0.00103141
H        0.86317045       9.49246906       1.41603519      -0.00290709       0.01465568      -0.00090712
H        6.11007500      10.72785621       4.88883449      -0.00504484      -0.00097253       0.00333172
H        6.54137380      11.93848880       3.63383783      -0.00424223       0.00075600       0.00570346
H        6.76378054      10.20022316       3.31554837      -0.00501190       0.00151199       0.00226295
O        8.37609172       9.86627636       1.38896531       0.00506052       0.00672916      -0.00010800
O        6.31375859       9.31608034       1.10961004       0.00536448       0.00461803       0.00270922
O        7.91221910       7.79585216       0.57833394       0.00703663       0.00598323      -0.00411388
C        9.80498424       9.62314717       1.24563743       0.00428738       0.00923347      -0.01013850
C       10.51246910      10.91560130       1.55018231       0.00813295       0.00579476      -0.00356466
C        7.57533506       8.87531407       0.99461854       0.00484377       0.01065981       0.00091732
C        5.30123309       8.35095410       0.80457846       0.00660367       0.00426856       0.00087507
H       10.08105512       8.81592419       1.92703779       0.00865192       0.00294662      -0.01934224
H        9.99316479       9.28215697       0.22757587      -0.00168826       0.01781933      -0.01414835
H       11.55780331      10.87897653       1.22531649       0.00337896       0.00525861      -0.01773229
H       10.03960193      11.72695835       1.00179564       0.00118189       0.01356420       0.01404507
H       10.45741314      11.15292852       2.61386785       0.02537001      -0.00889037       0.00048429
H        5.47410085       7.90177529      -0.17046068       0.01029539       0.00276837       0.00210190
H        4.36851628       8.90605897       0.78000866       0.00647995       0.00323585      -0.00273056
H        5.29187760       7.58944561       1.57952190       0.00479084       0.00480470       0.00161335
O        5.17864647       4.39625145       3.13567499      -0.00240122       0.00101396      -0.00320001
O        7.30313206       4.23722496       3.54899330      -0.00296276      -0.00138332      -0.00724000
O        6.42942150       6.28241555       3.13710235      -0.00130746       0.00590515      -0.00010417
C        4.00701676       5.22249994       2.93680630      -0.00264820       0.00052905      -0.00001804
C        2.83110224       4.30312461       2.74388161      -0.00258225       0.00130242      -0.00140514
C        6.30973147       5.09067837       3.26372496      -0.00317303      -0.00857556      -0.00205531
C        8.58822630       4.87488184       3.63098372      -0.00241342      -0.00353131      -0.00560383
H        3.89339806       5.87230109       3.80320297      -0.00224341      -0.00165972       0.00198549
H        4.17294847       5.84329339       2.05709297      -0.00353187       0.00354558       0.00166553
H        1.93537289       4.89434848       2.55021159      -0.00301132       0.00099389       0.00163958
H        2.99470050       3.63996655       1.89268460      -0.00304925       0.00394177      -0.00351527
H        2.65094594       3.69654768       3.63053451      -0.00061890      -0.00171252      -0.00304323
H        8.87319864       5.27125862       2.65676508      -0.00338844       0.00155064      -0.00389731
H        9.27581314       4.09695463       3.95112010      -0.00240284      -0.00493775      -0.01042178
H        8.56003780       5.69128108       4.35178201      -0.00113590      -0.00694406      -0.00141267
O        7.65591839       2.45025038      11.64605316       0.00536445      -0.00819927      -0.00041703
O        6.02427113       3.83556450      11.94737361       0.00936283      -0.00404367       0.00161088
O        8.04114906       4.66012623      11.32839830       0.01218164      -0.00816160       0.00312488
C        9.05166468       2.18408506      11.37311001       0.00444126      -0.01233625      -0.00041487
C        9.18724658       0.69801600      11.17744028       0.00040793      -0.01149070      -0.00734554
C        7.31831499       3.73970281      11.61860282       0.00823790      -0.00854713       0.00194451
C        5.55215277       5.19138427      12.01087466       0.01199339      -0.00346150       0.00240533
H        9.35522053       2.75453837      10.49427490       0.00684208      -0.00960502       0.00220770
H        9.63682627       2.54241470      12.22327692       0.00565015      -0.02058116       0.00213107
H       10.24013872       0.41935512      11.12861151      -0.00016701      -0.01242235      -0.01175869
H        8.73020791       0.16658075      12.01075147       0.00203680      -0.01461985      -0.00851279
H        8.69565343       0.37598165      10.25898646      -0.00232118      -0.00595632      -0.00747016
H        6.14671656       5.75704782      12.72482043       0.01316816      -0.00415108       0.00210580
H        4.51331852       5.11741827      12.31965474       0.01220149      -0.00157489       0.00295280
H        5.60616543       5.66083206      11.02954281       0.01231875      -0.00303011       0.00262663
