148
Lattice="12.78758160173838 0.0 0.0 0.0 12.78758160173838 0.0 0.0 0.0 12.78758160173838" Properties=species:S:1:pos:R:3:forces:R:3 energy=-162194.546875 stress="-0.0019538484048098326 0.00045763222442474216 7.252927389345132e-05 0.00045763222442474216 -0.0004517249180935323 0.0004659957776311785 7.252927389345132e-05 0.0004659957776311785 -0.0018157189479097724" pbc="T T T"
Rb      13.14716588      11.94339651      -0.16728466       0.01521881      -0.02693709       0.01508754
O        9.58993277      11.49451230       1.89678407      -0.02997756      -0.00838903       0.03055388
N       11.97832985      11.45188309       2.14074365      -0.04523587       0.01211983      -0.00515842
C       10.78842262      11.47154302       2.02723828      -0.01509756       0.00206422       0.01350475
C        2.38960718       9.46270222       6.18000047      -0.00135598      -0.00373125      -0.00439377
C        1.76549216      10.65291567       6.53583671      -0.00457960      -0.00520159      -0.00600350
C        3.64737396       9.48857863       5.58977909       0.00012655      -0.00138962      -0.00076942
C        2.40217344      11.86756468       6.30391539      -0.00636715      -0.00405818      -0.00402804
C        4.28438793      10.70133557       5.35968789      -0.00190295      -0.00001575       0.00103548
C        3.66241535      11.89198897       5.71746797      -0.00508214      -0.00167403      -0.00070227
H        1.89575699       8.51426658       6.35230532       0.00004207      -0.00464736      -0.00573105
H        0.77828296      10.63437537       6.98282001      -0.00585045      -0.00703564      -0.00933897
H        4.12524877       8.55932058       5.30517317       0.00311747      -0.00015418       0.00123295
H        1.91963811      12.79809352       6.57837861      -0.00885653      -0.00518987      -0.00543877
H        5.26730035      10.72472010       4.90506852      -0.00051908       0.00207256       0.00429284
H        4.16241190      12.83496453       5.53974466      -0.00646877      -0.00076881       0.00080310
C        6.97087143      10.02934623       8.62681639       0.00838043       0.00134501      -0.00233090
C        6.80564924      11.39253218       8.84555118       0.01721450       0.00414948      -0.01545713
C        5.85886203       9.19809696       8.58785185       0.00401136       0.00712031       0.01246397
C        5.53483967      11.92052185       9.03081358       0.02141114       0.01310071      -0.01366874
C        4.58798555       9.72177934       8.79562123       0.00823171       0.01622128       0.01307298
C        4.42660564      11.08135570       9.02170216       0.01714551       0.01914479      -0.00026825
H        7.96281425       9.61962051       8.48394013       0.00517800      -0.00535785      -0.00358097
H        7.66929956      12.04581853       8.86556480       0.02103867      -0.00108775      -0.02717428
H        5.97769874       8.14122131       8.38247948      -0.00245177       0.00464340       0.02379860
H        5.40988953      12.98716064       9.16214530       0.02771257       0.01471213      -0.02182724
H        3.72496417       9.07285196       8.74806242       0.00438763       0.02067314       0.02436495
H        3.43149564      11.48700355       9.15637949       0.02030134       0.02604244       0.00070214
C       11.93469004      10.11104929      10.15110131       0.00621747       0.00869543       0.00044288
C       11.97610003       8.82616262      10.68442086       0.00522721       0.00891578       0.00048316
C       10.77028126      10.87061327      10.25641473       0.00818191       0.01078221       0.00249993
C       10.84576557       8.28877322      11.29109807       0.00562030       0.01119784       0.00301155
C        9.64948233      10.33809876      10.88461638       0.00817579       0.01291469       0.00420229
C        9.68228171       9.04201111      11.38560701       0.00734715       0.01328282       0.00516944
H       12.80182153      10.50674551       9.63010903       0.00583729       0.00769900      -0.00022743
H       12.88174094       8.23857427      10.61219479       0.00427328       0.00802516      -0.00041805
H       10.72766663      11.86683609       9.82966256       0.01104858       0.01116380       0.00379544
H       10.87594874       7.28103249      11.68786412       0.00486374       0.01163062       0.00344457
H        8.74418653      10.92214114      10.97740328       0.00932890       0.01409867       0.00506774
H        8.80018633       8.62451063      11.85286076       0.00799964       0.01539384       0.00787970
C       11.46418071       6.73888559       6.86276805      -0.00912751       0.00203364      -0.01774950
C       11.74467685       8.06303865       7.17922953      -0.00915885       0.00063837      -0.01243343
C       10.24146980       6.39888856       6.29886880      -0.00667748       0.00536115      -0.02472559
C       10.80326810       9.05135425       6.91925137      -0.00686652       0.00228517      -0.01359535
C        9.29982809       7.38750884       6.04020859      -0.00432745       0.00712847      -0.02563831
C        9.58253074       8.71398422       6.34529782      -0.00436130       0.00566322      -0.02011377
H       12.19875405       5.97129266       7.05922806      -0.01118767       0.00051900      -0.01651031
H       12.69332601       8.31837344       7.63606986      -0.01096194      -0.00166533      -0.00790630
H       10.01961307       5.36215840       6.07893367      -0.00666451       0.00662272      -0.02960786
H       11.01580386      10.08360316       7.16765813      -0.00667558       0.00120938      -0.00944984
H        8.34429496       7.12564901       5.60283765      -0.00239371       0.00948988      -0.03085559
H        8.84864895       9.48352800       6.14283191      -0.00245373       0.00706644      -0.02113059
C        1.10118735       8.55521455       3.08830680      -0.01348750       0.00158268      -0.01992434
C        1.28186954       7.31724747       2.48591660      -0.01135152       0.00188505      -0.01927783
C        1.89862426       9.63175942       2.71670568      -0.01334249       0.00197104      -0.01830494
C        2.24857643       7.15660750       1.49595644      -0.00927140       0.00220110      -0.01712346
C        2.87121485       9.47009540       1.73653991      -0.01199800       0.00260253      -0.01707330
C        3.04297667       8.23296167       1.11863446      -0.00945486       0.00254457      -0.01587002
H        0.34281325       8.69167881       3.84797219      -0.01453018       0.00122466      -0.02111048
H        0.67039462       6.47498205       2.78777361      -0.01116736       0.00144294      -0.02040627
H        1.76036948      10.58483146       3.20927324      -0.01438968       0.00149421      -0.01777393
H        2.38726291       6.19054925       1.02533743      -0.00715232       0.00210772      -0.01584550
H        3.52107902      10.29778019       1.47256776      -0.01163372       0.00267781      -0.01593069
H        3.81348979       8.10362422       0.36816863      -0.00765178       0.00265758      -0.01380326
C       11.87021007       2.64048948       0.42819361       0.00107334      -0.00393421      -0.00655283
C       11.99325953       3.82515019       1.14698681       0.00271127      -0.00321118      -0.00858516
C       10.69757185       1.89881333       0.49567678       0.00181346      -0.00443907      -0.00149001
C       10.94374189       4.26285120       1.94255658       0.00518079      -0.00263014      -0.00596021
C        9.64507100       2.33973932       1.28875474       0.00422378      -0.00399629       0.00128502
C        9.77208340       3.51885197       2.01203569       0.00583071      -0.00291499      -0.00102787
H       12.70655922       2.30873001      -0.17224661      -0.00118016      -0.00477432      -0.00904534
H       12.91317919       4.39286069       1.09692692       0.00247616      -0.00319713      -0.01186967
H       10.58454671       0.96771117      -0.05061601       0.00162600      -0.00503366       0.00013523
H       11.03101617       5.18510907       2.50484697       0.00680808      -0.00223675      -0.00702830
H        8.73880173       1.75294838       1.35486079       0.00512950      -0.00474974       0.00585504
H        8.94844491       3.86540151       2.61972381       0.00792544      -0.00287997       0.00166610
C        7.91419284       1.77527240       4.08671356       0.00514276      -0.01093673       0.00855950
C        7.11748155       2.86928093       4.40453857       0.00682443      -0.00880514       0.00418201
C        7.35509103       0.64460976       3.50047973       0.00310023      -0.01326615       0.01568672
C        5.74694512       2.82340953       4.17934205       0.00672947      -0.00816835       0.00514154
C        5.98546409       0.60662947       3.26688026       0.00329132      -0.01278305       0.01663923
C        5.18062876       1.68335147       3.62282359       0.00490797      -0.00990793       0.01081314
H        8.98183050       1.81576611       4.25965664       0.00527987      -0.01136810       0.00688342
H        7.56865818       3.76264684       4.81932950       0.00816645      -0.00784062       0.00000586
H        7.99256558      -0.17854216       3.19818290       0.00150020      -0.01547334       0.01950175
H        5.12012204       3.67263724       4.42602841       0.00813574      -0.00641438       0.00170828
H        5.53955899      -0.26339731       2.79945082       0.00262479      -0.01517925       0.02199090
H        4.11517122       1.64015867       3.45486171       0.00486007      -0.00880473       0.01096118
C        2.14447401       3.93051665      11.39304673       0.00280870      -0.01300910      -0.00845198
C        1.63768550       2.77181832      10.81680742       0.00673306      -0.01314127      -0.01125702
C        3.49276913       4.01573837      11.71601808       0.00008952      -0.01391712       0.00176848
C        2.46939740       1.67390642      10.62246595       0.00788959      -0.01284549      -0.00593745
C        4.32742166       2.92239381      11.51591617       0.00106481      -0.01378813       0.00746427
C        3.81018494       1.74246310      10.99214438       0.00532818      -0.01331460       0.00248383
H        1.49257539       4.77696039      11.56253888       0.00201887      -0.01291497      -0.01406431
H        0.59890725       2.73755347      10.51087305       0.00893481      -0.01353452      -0.01781501
H        3.89885969       4.93960105      12.11079956      -0.00269052      -0.01435764       0.00526868
H        2.08397542       0.77416487      10.15238920       0.01016369      -0.01191287      -0.00891731
H        5.38090412       2.99155574      11.75736867      -0.00116318      -0.01442895       0.01593307
H        4.45106216       0.88117908      10.86499704       0.00705795      -0.01236615       0.00472948
C        2.48343614       3.29758632       2.23102721      -0.00157363       0.00052536       0.01118702
C        2.32423698       2.01574174       1.71377738      -0.00104287      -0.00015899       0.01308315
C        1.99696554       3.60692917       3.49433065      -0.00421493       0.00279967       0.00945681
C        1.67124890       1.04811750       2.46653708      -0.00308434       0.00170564       0.01334515
C        1.32588954       2.63770273       4.23533954      -0.00598733       0.00451041       0.00970484
C        1.15518936       1.35987597       3.71886631      -0.00526027       0.00392678       0.01163475
H        3.00124840       4.04729157       1.64770697      -0.00066178      -0.00049725       0.01093847
H        2.72973118       1.78514366       0.73541059       0.00057072      -0.00211609       0.01433302
H        2.13366935       4.60353139       3.89706396      -0.00517420       0.00342299       0.00788570
H        1.55189227       0.03145983       2.11603155      -0.00276623       0.00160871       0.01425745
H        0.93119966       2.88149646       5.21400914      -0.00807775       0.00619730       0.00828385
H        0.62085879       0.59826762       4.27060113      -0.00672896       0.00535093       0.01195440
C        6.14764460       5.47722867       1.29362779      -0.00428002       0.00806008       0.01438311
C        7.30690531       5.19698736       0.58275354      -0.00600127       0.01165074       0.01051226
C        6.04847881       6.65774728       2.02414190      -0.00379281       0.00558897       0.01812896
C        8.37543641       6.08615937       0.61825714      -0.00741331       0.01310461       0.00989546
C        7.11335187       7.55104139       2.04943905      -0.00508480       0.00697143       0.01787533
C        8.28330162       7.26024031       1.35530573      -0.00694492       0.01091059       0.01329223
H        5.33071815       4.76611799       1.29279944      -0.00336814       0.00714293       0.01472454
H        7.39233654       4.27538230       0.02096991      -0.00656267       0.01380213       0.00703026
H        5.13869803       6.88322323       2.56540583      -0.00255349       0.00243990       0.02133716
H        9.29248731       5.84042190       0.09738811      -0.00883543       0.01631225       0.00629120
H        7.03996869       8.47594028       2.60674252      -0.00463929       0.00479591       0.02110934
H        9.11472003       7.95289606       1.39368118      -0.00815611       0.01213802       0.01222939
C        7.64217192       3.26806765       7.82038678      -0.00120803      -0.01137399       0.01121171
C        8.10699448       2.74685064       9.02280542      -0.00161172      -0.00575577       0.01374348
C        7.51577713       4.64363561       7.66766772       0.00540482      -0.01194277       0.00261505
C        8.43286631       3.59606276      10.07396531       0.00478130      -0.00055375       0.00734968
C        7.84278727       5.49572741       8.71633175       0.01153425      -0.00696650      -0.00362566
C        8.29453295       4.97191391       9.91989384       0.01111709      -0.00125154      -0.00134906
H        7.38482780       2.60591489       7.00400931      -0.00607596      -0.01522166       0.01609536
H        8.21626391       1.67535206       9.13593719      -0.00658850      -0.00522141       0.02088870
H        7.15775731       5.05560908       6.73103710       0.00580454      -0.01626208       0.00089617
H        8.80070513       3.18785799      11.00842366       0.00485829       0.00372971       0.00897253
H        7.75706659       6.56885289       8.59569789       0.01666901      -0.00752664      -0.01115960
H        8.53430424       5.63963719      10.73574719       0.01622042       0.00272239      -0.00600949
C        4.12267670       5.64012764       8.44372500      -0.00109170      -0.01157035       0.00535074
C        3.16126667       4.94220259       7.72273235      -0.00294124      -0.00569610       0.00242725
C        3.73577560       6.52939499       9.43767307       0.00103004      -0.00586062       0.00078222
C        1.81317592       5.13547475       7.99837867      -0.00252480       0.00557077      -0.00471039
C        2.38778332       6.73740223       9.69971228       0.00167307       0.00430974      -0.00548385
C        1.42412129       6.03775076       8.98286998      -0.00026506       0.01008507      -0.00824031
H        5.17274982       5.47418970       8.24804834      -0.00166129      -0.02031884       0.01088765
H        3.46468083       4.24064643       6.95490705      -0.00492388      -0.00958072       0.00550597
H        4.48613927       7.05736009      10.01247819       0.00223850      -0.00996388       0.00274247
H        1.06836250       4.56678372       7.45528146      -0.00413407       0.01103117      -0.00772124
H        2.09806253       7.42071205      10.48989309       0.00337386       0.00886214      -0.00894780
H        0.37258681       6.17480379       9.20679676      -0.00006911       0.01872357      -0.01398779
