146
Lattice="12.095738500691777 0.0 0.0 0.0 12.095738500691777 0.0 0.0 0.0 12.095738500691777" Properties=species:S:1:pos:R:3:forces:R:3 energy=-228805.375 stress="0.0006171381683088839 -0.000355919633875601 0.0003797612735070288 -0.000355919633875601 0.0005277369054965675 -5.419977787823882e-05 0.0003797612735070288 -5.419977787823882e-05 -0.00040898643783293664" pbc="T T T"
Rb      12.55192503      12.51596412      -0.61418341      -0.00654897       0.00172066       0.00246029
Br      12.60379587       9.41274613       0.27100294      -0.00376938      -0.00128591       0.00359967
O        2.84237595       1.89598893      10.83302265      -0.01186976       0.00575370       0.00039366
C        4.11261855       1.81309799      11.47380736      -0.01142228      -0.00273322      -0.00114557
H        4.21924923       2.57159210      12.25480722      -0.00596028      -0.00432986      -0.00047776
H        4.93292728       1.93424740      10.75905025      -0.01195681      -0.00680957      -0.00238162
H        4.19524046       0.83314160      11.93940036      -0.01576727      -0.00374335      -0.00261484
H        2.78840204       2.77602448      10.41975059      -0.00783283       0.00572401       0.00152974
O        4.01172701       9.89424809       7.60063554       0.00211860       0.02084956      -0.00127727
C        4.90286382       8.95130135       7.00869216       0.00189988       0.01171118      -0.00722367
H        4.74474794       7.93754971       7.38486313      -0.00853191       0.01567373       0.00176647
H        5.95034442       9.22489288       7.16481736       0.00090349       0.00690110       0.00083271
H        4.69910653       8.95918882       5.94051522       0.00824307       0.00526296      -0.00495213
H        3.96727006       9.74104102       8.54777570      -0.01890911       0.01805227      -0.03096858
O        8.36614971       7.08665585       9.86834174      -0.00143340       0.00569662       0.00206226
C        7.24834181       7.96547226       9.88151864      -0.00232909       0.00581422       0.00362785
H        6.31443087       7.43737436       9.66402172      -0.00219721       0.00449091       0.00522240
H        7.36617497       8.77083528       9.14965137      -0.00390188       0.00486307       0.00331019
H        7.19208207       8.40573167      10.87464265      -0.00111839       0.00596280       0.00355116
H        8.40839699       6.70027183       8.97646637      -0.00222092       0.00610328       0.00307843
O        7.55405728       9.65439935       1.87364331       0.00400633      -0.00276619      -0.01710095
C        7.41589522       8.25054123       1.77609074      -0.00074556      -0.00530022      -0.00321045
H        7.87738782       7.74919559       2.63630775      -0.00127460       0.00307058      -0.00050032
H        7.87839902       7.85851103       0.86118883      -0.00255111      -0.01372000      -0.00112158
H        6.34686216       8.03724142       1.75450434      -0.00062197      -0.00187714      -0.00066165
H        8.49918499       9.81760459       2.05447337       0.00136184      -0.00388597      -0.01233885
O       11.45573945      10.73035029       5.28632643       0.01213330       0.00747931       0.01215695
C       11.42761926      12.06630942       5.73136792       0.01454616       0.00852484       0.00761224
H       10.64785828      12.59398626       5.17909773      -0.00061920       0.00208569       0.02463894
H       12.37627462      12.58541815       5.55889673       0.00652897       0.01391542      -0.01564219
H       11.18457283      12.14782373       6.79872667       0.03880966       0.01198247       0.01250809
H       12.31644557      10.35300166       5.53568413       0.01674727       0.01101591       0.00306998
O        6.79263498       4.86673246      10.42569329       0.00286222       0.00279729       0.00261915
C        5.98476902       5.09592893      11.57779299      -0.00208043      -0.00123293       0.00040861
H        6.00732334       6.14657589      11.88005818      -0.01668045       0.00038171      -0.00565275
H        6.31935598       4.48337095      12.42225008       0.00361554       0.00806578       0.00428474
H        4.95641065       4.83119256      11.33578079       0.00224227      -0.01574247      -0.00052772
H        7.52265043       5.51283457      10.44100760       0.00033517       0.00488672       0.00559865
O        7.20013913       5.73676385       7.74455778      -0.00537731       0.00307170       0.00349754
C        7.21698111       4.97158179       6.54167967      -0.00169611      -0.00398567       0.00850643
H        6.20967339       4.68258894       6.23223800      -0.00079751      -0.00879273       0.00867219
H        7.82597732       4.06842580       6.64301092       0.00042199      -0.00157928       0.01431357
H        7.64872439       5.59599084       5.76389296      -0.00288996      -0.00730541       0.00530308
H        6.81209270       5.21085350       8.46058788      -0.00173001       0.00412741       0.00772955
O        2.93875385       4.40210134       9.62802836       0.00664568      -0.00175637      -0.00423391
C        3.60700074       4.35725392       8.36136681       0.00267727      -0.00235249      -0.00052245
H        3.86787553       5.35984082       8.01693921       0.02313133      -0.00691193       0.00360787
H        3.00843985       3.84954840       7.60154160      -0.00104177       0.01055460      -0.00599562
H        4.52752243       3.79857537       8.51592407      -0.00620538      -0.02046397      -0.00052834
H        2.20850702       5.02571159       9.58102043       0.00241792       0.01369110      -0.00676453
O        8.89306779      11.10653943       8.10012653       0.01243275       0.00995138      -0.00750186
C        9.73039483       9.95175357       7.83467919      -0.01870542       0.00710048      -0.00812421
H        9.56042038       9.57716090       6.82692898      -0.01236811       0.00825295      -0.00920442
H        9.55657309       9.17169746       8.57992133      -0.00854768       0.00641070      -0.01074791
H       10.76100913      10.28518538       7.91244522      -0.00656173       0.00699350      -0.01175183
H        7.98178460      10.80344370       8.15415282      -0.02293080       0.00095403       0.00060426
O        5.85912848       5.86089114       3.50527667      -0.00763711      -0.00320940       0.01874435
C        5.53817332       6.97564710       4.33595791       0.01062346      -0.01218323      -0.01480043
H        4.84198796       6.60779612       5.08883525      -0.00502934      -0.01222414       0.00059485
H        5.05841731       7.77914243       3.76849736       0.00027333      -0.00890669      -0.00033993
H        6.42635397       7.37759241       4.83441087      -0.00417906      -0.00562818       0.00350450
H        6.48312977       6.17632848       2.84605120       0.01794064      -0.00028944      -0.00219751
O        2.53704146       3.36532268       4.20038681       0.00927508      -0.00212805       0.01564509
C        3.05744737       3.50778304       2.88506004      -0.00344875      -0.00252387       0.00813970
H        3.30448636       2.53652676       2.43516282      -0.00820743      -0.00351232       0.00763952
H        3.94170487       4.15350140       2.85952864      -0.00202608      -0.00431773       0.00170192
H        2.28499994       3.97849031       2.27547231      -0.00622621      -0.00171742       0.01474188
H        3.24535195       3.06310891       4.78368725       0.00736821      -0.00532614       0.00526386
O        2.10455440      10.24482816       5.52756014       0.00426858      -0.00011113      -0.00295401
C        2.71300254      11.00163625       4.49224999       0.01164533      -0.00000480       0.00226015
H        3.79087527      10.81561750       4.44243866       0.00869381      -0.01361457      -0.00206016
H        2.54076445      12.07795831       4.61733758       0.02663799       0.00091636       0.01148260
H        2.27786868      10.67692253       3.54742082       0.00557758       0.01380396       0.00046343
H        2.63123970      10.30770336       6.33923414       0.00569929      -0.00551806      -0.00173135
O        9.08922726       8.45386691       4.78435230      -0.00087747       0.00358087      -0.00670907
C        9.91205621       7.41065482       5.29518138       0.00241339       0.01310283      -0.00745639
H        9.49335828       7.09784096       6.25435307      -0.00671031       0.00637680      -0.01079911
H       10.93320040       7.76062935       5.46704263      -0.00194883       0.01642750       0.00652499
H        9.94422241       6.55442956       4.61464048       0.01359433       0.01279438      -0.00710368
H        9.62413094       8.98248557       4.17601525       0.00552161       0.00839091      -0.01733322
O       11.12037470       6.38075792       8.52328696      -0.00371560       0.00621712      -0.00217706
C       11.70038157       6.53329020       9.82665113       0.00024652      -0.00020882      -0.00230520
H       12.67655739       7.02721357       9.78094493       0.00358474      -0.00717819      -0.00433638
H       11.78211615       5.57199534      10.34036663      -0.00499233      -0.00194943      -0.00525335
H       11.02983744       7.17117235      10.39419508       0.00670543       0.00332479       0.00063498
H       11.59098170       5.68672561       8.05317908      -0.01166481       0.00371781      -0.00301386
O        4.95593880       2.36294310       5.86247112       0.00614293      -0.00950319      -0.00703561
C        5.80397214       2.12298237       4.74961336       0.00884826      -0.00398510      -0.00455299
H        5.24505456       2.36644746       3.84674281       0.01076616       0.00595362      -0.00398031
H        6.11697149       1.07445627       4.71122980       0.00527146      -0.00421056      -0.01399822
H        6.69772113       2.75370566       4.76574468       0.01066032      -0.00729215       0.00114049
H        5.43264940       2.00738030       6.62709179       0.00993001      -0.00977758      -0.00363995
O        0.58400564       8.36116649       7.26553242       0.00848335       0.00249714       0.00950801
C        1.57164407       7.41574154       6.91415901       0.00039107      -0.00227863       0.00015229
H        1.15529480       6.54960894       6.38323035      -0.00741994       0.00423622      -0.00373761
H        2.12430805       7.05570231       7.79602514       0.00065613      -0.01198278      -0.00420597
H        2.27601602       7.90632183       6.24605878       0.00149865      -0.00298372       0.00049032
H       -0.13981475       7.86533449       7.67916294       0.00490659       0.00450471       0.00638686
O        5.11960551      -0.01356173       2.15386070       0.00591573      -0.00230695      -0.00889212
C        6.45187748       0.45282011       1.93318353      -0.00075041       0.00001592      -0.01002754
H        7.12754549       0.10973942       2.71848957       0.00658466      -0.00030428      -0.01722226
H        6.48138868       1.54467006       1.86197540       0.00111372      -0.00066030      -0.01260087
H        6.78735790       0.01703857       0.99636385      -0.00627010      -0.00153327      -0.01491456
H        4.82641352       0.30747968       3.01214671       0.00731502       0.00351992       0.00637352
O        9.87609165      11.83454279      10.58609983       0.00026866       0.00635955      -0.01122779
C        9.14773740      10.77172133      11.20502504       0.00310893       0.00745510      -0.00271752
H        9.50568724       9.79238640      10.87507256       0.00456452       0.00686002       0.00033599
H        8.07563663      10.85639592      10.99944461       0.00277886       0.00509231      -0.00139715
H        9.28929982      10.83440216      12.27797922       0.00528157       0.01260703      -0.00405842
H        9.61614940      11.79268682       9.64997455      -0.00191341       0.00441996      -0.00622876
O       10.92819111       6.12398631       2.37905833      -0.00646928      -0.04829831      -0.01031238
C       10.35480421       6.32592395       1.10594266      -0.00483176      -0.01825838      -0.00638950
H       10.85196930       5.72113159       0.33974501      -0.00895849      -0.00701061      -0.01715842
H       10.39550510       7.37317302       0.78538853       0.00506897      -0.01299757       0.01513483
H        9.30869730       6.01980625       1.15449465      -0.00672114      -0.00981142      -0.01305860
H       11.87923830       6.34873896       2.29213587      -0.00952795      -0.03654768      -0.00071722
O       11.65747035       2.46101851       1.18664493      -0.00589129      -0.00116995      -0.00466752
C       10.27771940       2.84688855       1.19088600       0.00053303      -0.00030939       0.01296830
H       10.14641334       3.80500328       1.69043385       0.00102702      -0.00043502       0.00995252
H        9.65997055       2.08821360       1.67923613       0.00395344      -0.00024644       0.01899368
H        9.95692879       2.93866842       0.15374432      -0.00982191      -0.00461417       0.01254889
H       12.05502787       2.77952082       2.00195053       0.00840222       0.01713848       0.00160736
O       10.23985551      10.01654288       2.40165175       0.00077057      -0.00207204       0.00363733
C       10.56078851      11.39889250       2.47556560      -0.00139966      -0.00224262       0.01233960
H       10.49120668      11.87539750       1.49209727      -0.00528666       0.00436383       0.01576817
H       11.55913064      11.55039720       2.88618860      -0.00045645      -0.00324918       0.01029128
H        9.83692462      11.86857678       3.13975321       0.00018269      -0.00784057       0.01812004
H       10.91505642       9.60882870       1.81679004       0.00141343       0.00248547       0.00138959
O        1.43081543       6.69807965       1.80452282      -0.01377697      -0.00501522       0.00815624
C        2.36044180       6.93408616       2.86006454      -0.00700183      -0.00045618       0.00049186
H        2.18756471       7.90047747       3.33995564      -0.00485812       0.00092351      -0.00121619
H        3.38791436       6.90966176       2.49114400      -0.00948036      -0.00009777      -0.00642310
H        2.23244869       6.13783251       3.59366388      -0.00051545       0.00159389       0.00415181
H        1.32244206       7.52764651       1.29880790      -0.01759051      -0.00627624       0.00617134
O        7.06790967       1.31839173       7.57760181      -0.00801378       0.00039685       0.00255132
C        7.39414995       2.06727996       8.74666823       0.00153515      -0.00830814       0.00345570
H        8.22922771       2.75122930       8.57428208       0.00764111      -0.01559970       0.00492947
H        7.63470750       1.41946166       9.59429060      -0.00384790      -0.01302844       0.00113279
H        6.52419759       2.66645387       9.00442010       0.00751849      -0.00010058       0.00703522
H        7.82227610       0.75424987       7.36399645      -0.00811720      -0.00355649      -0.00388099
O        4.31820441       9.38642489       1.80438985       0.00147691       0.00014508       0.00189203
C        4.27779081       9.20613098       0.40438477      -0.00079940       0.00456573       0.00094390
H        5.27905719       9.28143857      -0.04034503      -0.00132340       0.00400071       0.00009578
H        3.60945271       9.92334981      -0.08368479       0.00032023       0.00818393       0.00442068
H        3.88089500       8.20843910       0.20982958      -0.00363824       0.00645950      -0.00174063
H        4.72088841      10.25318669       1.97197123       0.00205963      -0.00083767       0.00327028
