147
Lattice="12.11319811403308 0.0 0.0 0.0 12.11319811403308 0.0 0.0 0.0 12.11319811403308" Properties=species:S:1:pos:R:3:forces:R:3 energy=-151828.109375 stress="-0.0016831222455948591 6.081717037886847e-05 -0.0002650786627782509 6.081717037886847e-05 -0.0009954231791198254 -0.0002417858486296609 -0.0002650786627782509 -0.0002417858486296609 0.0006789836334064603" pbc="T T T"
Rb      12.04383369      12.37405394      -0.46386893      -0.00945144       0.00187883       0.00162782
N       10.31763365      11.19478891       1.61870449      -0.00993454       0.01249516       0.01719907
C       10.24272352      10.45082728       0.71592531      -0.00671276      -0.01708168      -0.01187921
O        8.18218782      11.09702705       3.32309312       0.00013351      -0.00768528       0.01021805
C        7.23607431      10.89032761       2.27793750      -0.00667730      -0.01487881       0.01735485
C        7.21808243       9.45142574       1.79545011      -0.00391539      -0.01658046       0.02292714
H        6.26151900      11.17682301       2.67858853      -0.00513422      -0.01705763       0.02233241
H        7.46126832      11.55406870       1.43585434      -0.01442002      -0.01699561       0.01391757
H        6.48590737       9.32556917       0.99563458      -0.01061392      -0.02232976       0.03011516
H        8.19635858       9.18134072       1.39747898      -0.00631264      -0.01353217       0.01499637
H        6.95903322       8.78067778       2.61909551       0.00702700      -0.01448469       0.02790658
H        9.06314045      11.17114961       2.87946853      -0.00427248      -0.00482677       0.00430483
O        2.62662461       7.99321094       5.19576787      -0.00476164      -0.00061470       0.00161397
C        3.35482480       9.21710586       5.22835233      -0.00601226       0.00008589      -0.00135091
C        4.80829818       9.03359363       4.84089566      -0.00670487       0.00106660      -0.00357668
H        2.87494820       9.96855079       4.58995053      -0.00773053      -0.00121975      -0.00146326
H        3.27681038       9.57310879       6.25728482      -0.00471394       0.00141472      -0.00174236
H        5.35748627       9.97682450       4.88810031      -0.00706185       0.00120994      -0.00380943
H        5.29053005       8.31544787       5.50610025      -0.00522679       0.00107676      -0.00462131
H        4.88819357       8.65637746       3.81748858      -0.00773998       0.00174636      -0.00381951
H        2.49693659       7.74755256       4.27554612      -0.00353672      -0.00349457       0.00226542
O        7.06246266       2.26226395       7.18435555      -0.00307544      -0.00942913      -0.01193911
C        7.01835251       1.45372117       8.35989749      -0.00363085      -0.00281702      -0.00804976
C        5.59762292       1.15441553       8.78205204      -0.00415856       0.00413962      -0.00537722
H        7.57636162       0.52887575       8.18846372      -0.00657520      -0.00523627      -0.00364758
H        7.52074103       2.00790406       9.15507971      -0.00118609      -0.00007674      -0.01144999
H        5.59278716       0.56143964       9.69896965      -0.00565202       0.00997583      -0.00177474
H        5.07116883       2.08458626       8.99086515      -0.00123562       0.00715940      -0.01146896
H        5.06442428       0.60641726       8.00316904      -0.00626285       0.00122408      -0.00179240
H        7.19262755       1.69231046       6.39578905      -0.00063412      -0.01008399      -0.01137296
O        9.11898778       6.28338401       2.24362303       0.00628364      -0.00166295       0.00072247
C       10.25988453       7.03015183       1.80254405       0.00708139      -0.00001636       0.00575915
C       10.89682563       7.83439420       2.91325033       0.00327079      -0.00237116       0.00955153
H       10.95918316       6.28029712       1.42548964       0.00864279       0.00127849       0.00598310
H        9.99415576       7.68729711       0.96721518       0.00944009       0.00185543       0.00678381
H       11.74607784       8.39914232       2.52415456       0.00448354      -0.00150593       0.01362412
H       10.19247721       8.56874944       3.31066076       0.00189397      -0.00353584       0.00906266
H       11.22707399       7.18496511       3.72588191       0.00088528      -0.00407960       0.00910683
H        8.48733337       6.91604977       2.59926690       0.00353291      -0.00240102      -0.00301872
O       11.93803188       2.78820663       0.90364495       0.00161374       0.00451857       0.00036579
C       11.42407400       2.43009311       2.20650184       0.00650707       0.00259483       0.00168234
C       11.36845500       3.60864981       3.14856828       0.00838584       0.00116199       0.00349000
H       10.44179449       1.96187089       2.09650804       0.00667137       0.00178656       0.00456360
H       12.09863286       1.65775619       2.58004994       0.00871205       0.00301199      -0.00142223
H       11.04610645       3.27673790       4.13695786       0.01128775      -0.00058668       0.00382374
H       12.35110541       4.07407630       3.24229999       0.00832269       0.00164296       0.00138059
H       10.65179922       4.35855915       2.80429340       0.00704746       0.00110815       0.00651002
H       11.41142715       3.52709445       0.57882157      -0.00074598       0.00383472       0.00261678
O        7.41621533       1.12218335       4.78033958       0.00112325       0.00165832      -0.01036142
C        8.21919089       2.12811208       4.15850864       0.00214662       0.00230542      -0.00790495
C        7.64310860       2.57162772       2.82966485       0.00611937       0.00139570      -0.00984210
H        8.27230215       2.96344431       4.86096407      -0.00065633       0.00247145      -0.00798154
H        9.23765368       1.75368388       4.04049556       0.00286585       0.00331265      -0.00471269
H        8.23669567       3.38081677       2.39712158       0.00543199       0.00354417      -0.00662110
H        7.61527391       1.74480328       2.11819180       0.01147538       0.00198871      -0.01069541
H        6.62591428       2.94221368       2.96130198       0.00452787      -0.00177465      -0.01392168
H        7.67051524       0.26995299       4.35828451       0.00417623       0.00055861      -0.00684672
O        1.17092280       4.32307830       8.67318744      -0.00150684      -0.00108992       0.00125766
C        2.11997688       3.97250699       9.67750879      -0.00341009       0.00055039       0.00352515
C        2.33721149       2.47497663       9.76634107      -0.00217703       0.00093532       0.00522158
H        3.06849895       4.48887070       9.50506399      -0.00346622       0.00119567       0.00521511
H        1.70483957       4.35018573      10.61440071      -0.00572354       0.00092796       0.00215989
H        3.00816141       2.22274577      10.59124932      -0.00110115       0.00250877       0.00474940
H        1.37696512       1.98039573       9.91836008      -0.00150697       0.00012578       0.00669029
H        2.76917688       2.08624749       8.84245164      -0.00273006       0.00026350       0.00532496
H        1.56768087       4.14542854       7.81593433      -0.00005615      -0.00274763       0.00227231
O        4.21763760       1.75468229       0.93238655       0.01922333      -0.00508234      -0.00257224
C        3.86407361       2.34141513       2.18217664       0.00684273      -0.00154263      -0.00824618
C        4.01194218       1.36101184       3.33052332       0.00324070       0.00333053      -0.00382504
H        4.46938836       3.23532234       2.36656444       0.00105134       0.00209376      -0.00700840
H        2.82138273       2.67214414       2.10794101       0.00575286      -0.00668810      -0.01661586
H        3.69447072       1.82137917       4.26933358      -0.01026453       0.00334615      -0.00866103
H        3.38897130       0.48003393       3.16177694       0.01218699      -0.00215943      -0.00747890
H        5.04805935       1.04242626       3.44774264       0.00441897       0.01197254       0.00751619
H        5.06558020       2.10610729       0.61881465       0.01407340       0.00558016      -0.00449113
O        6.17356051       4.70879676       6.59805677       0.01169461      -0.01287319       0.00055051
C        5.58919755       4.85229537       5.30811726       0.00874990      -0.01114568       0.00225949
C        6.51781599       5.59806462       4.36773526      -0.00007570      -0.00135440       0.00180560
H        5.34440107       3.86765409       4.89504479       0.01536328      -0.01161498      -0.00009850
H        4.64934286       5.40788869       5.41424268       0.00530910      -0.01859751       0.00743520
H        6.05827988       5.70821818       3.38066714      -0.00646904      -0.00049996       0.00495948
H        6.73555359       6.59291598       4.76010500      -0.00454355      -0.00136326       0.00412421
H        7.46119535       5.06848674       4.23873758       0.00243017       0.00519411      -0.00559587
H        6.31914162       3.75847004       6.80040612       0.01194628      -0.01442830      -0.00221122
O       10.37055045       1.51081595       6.37622116       0.00503144       0.00166923      -0.01218489
C       11.14752360       2.08567734       7.41844432       0.00324561       0.00144987      -0.01080024
C       10.69975485       1.64294421       8.79696950       0.00275305      -0.00081645      -0.01207763
H       12.21197150       1.85752617       7.27267655       0.00348580       0.00211810      -0.00946796
H       11.02558540       3.16399025       7.32050732       0.00274831       0.00127077      -0.01052129
H       11.31022971       2.14557346       9.55085970       0.00162371      -0.00114334      -0.01112088
H        9.66397291       1.91971150       8.97719882       0.00240842      -0.00237639      -0.01212372
H       10.79871744       0.55611393       8.90593008       0.00432564      -0.00075243      -0.01407870
H       10.36914777       0.55529041       6.48509275       0.00973955       0.00140719      -0.01520017
O        8.58662603       4.02410671      10.25719807       0.00131784      -0.00177813       0.00431466
C        9.33212258       4.80172876      11.19085656      -0.00030082       0.00465128       0.00004932
C       10.67869062       5.21342864      10.63304511       0.00165045      -0.00172055       0.00044832
H        8.75998332       5.68281194      11.50765761       0.00024503       0.00803512      -0.00877380
H        9.43715647       4.17339350      12.08185420      -0.00345646       0.01225594       0.00561422
H       11.25968300       5.76570521      11.37454391      -0.00081284       0.00617027      -0.00358146
H       11.25098490       4.34569987      10.30499404       0.00255331      -0.00538822       0.01220680
H       10.55538219       5.85896490       9.76275857       0.00502711      -0.01164284      -0.00708327
H        8.56079884       4.51425049       9.40584545      -0.00569119      -0.00275175       0.00362059
O        8.64696007       5.38731570       7.80101442      -0.02817908      -0.00192362       0.01139373
C        8.31444882       6.77481763       7.64061226      -0.00041655       0.00353849       0.01682499
C        9.13787717       7.44961676       6.56109890       0.00515619      -0.01258792       0.01152754
H        7.25019022       6.84831767       7.40776168      -0.00002176       0.02786247       0.02436455
H        8.47588705       7.26553131       8.60272222       0.01609908      -0.00181453       0.01634556
H        8.78125621       8.47100331       6.41024965       0.02676178      -0.00509219       0.01525401
H       10.19347838       7.49254805       6.83004444       0.00738449      -0.03603216       0.00458962
H        9.05111124       6.91453323       5.61417908      -0.01299952      -0.00962801       0.01172215
H        8.01587831       4.90906892       7.23732388      -0.04228516       0.01524393       0.01170412
O        4.41485041       7.32023650       0.72413515      -0.00987309       0.00022066      -0.00297982
C        3.05924341       7.18342993       1.14631629      -0.00885472       0.00280505       0.00089596
C        2.82730916       5.93848999       1.97531129      -0.00756117       0.00532126       0.00499582
H        2.73139079       8.08270182       1.68299027      -0.00643094       0.00450507      -0.00055647
H        2.47416818       7.13587922       0.22556857      -0.01135543       0.00085615       0.00270864
H        1.77585455       5.85674304       2.26023784      -0.00676534       0.00737531       0.00853204
H        3.09918372       5.04751429       1.41131991      -0.01017055       0.00348446       0.00672862
H        3.42593761       5.95575631       2.89120052      -0.00437939       0.00725039       0.00288148
H        4.96288122       7.46337347       1.50262045      -0.00762678      -0.00125504      -0.00438479
O        6.86542763       9.82508214       8.91394840      -0.00366974       0.00106026       0.00146818
C        5.48238889       9.68253660       8.60655570      -0.00372571       0.00586277       0.00043400
C        4.93214722       8.32965296       8.99788632      -0.00928357       0.00800282       0.00084506
H        4.90100709      10.47887435       9.08761667      -0.00158855       0.00833851      -0.00090539
H        5.41325987       9.83779598       7.52908262      -0.00234840       0.00528454       0.00061563
H        3.87933254       8.24255205       8.71923962      -0.00937723       0.01152749       0.00010887
H        5.48008612       7.52322559       8.51101334      -0.01174852       0.00600068       0.00186663
H        5.00797521       8.18410925      10.07871443      -0.01036946       0.00866283       0.00076644
H        6.98095043       9.63921263       9.85049928      -0.00434902       0.00270372       0.00134036
O        1.84182070      10.28034227      -0.08156350       0.00170118       0.01304811      -0.01154816
C        2.82795279      11.26161128       0.26873665       0.00746042       0.00835904      -0.01466574
C        4.12146589      10.65348186       0.73807087       0.00365484       0.00201604      -0.01206122
H        3.01769892      11.93352415      -0.57788980       0.01096278       0.00470158      -0.01649454
H        2.38083254      11.86181638       1.06495735       0.01032571       0.01333988      -0.01687500
H        4.84368523      11.44721748       0.91525749       0.00707531      -0.00171088      -0.01015390
H        3.98116243      10.08977630       1.66246410      -0.00156074       0.00267798      -0.01255694
H        4.52078815       9.96910658      -0.01380977       0.00187916      -0.00003582      -0.01117492
H        2.27028089       9.61619909      -0.63056772      -0.00254679       0.00849178      -0.00932643
O        6.21190083       3.14709840      11.57184324       0.00300181       0.00560099      -0.00049353
C        5.45529212       4.35319631      11.65851466       0.00301744       0.00540563      -0.00176150
C        5.55415504       5.21671952      10.42159353       0.00078343       0.00256294      -0.00382358
H        4.41970121       4.04073644      11.81759336       0.00332910       0.00580902       0.00086782
H        5.75804747       4.92998609      12.54177613       0.00441808       0.00723729      -0.00348985
H        4.80754093       6.00688507      10.47593549       0.00179155       0.00346635      -0.00379593
H        6.53358711       5.68840509      10.33775058       0.00109808       0.00110232      -0.00754056
H        5.38725743       4.63084024       9.51615224      -0.00201860       0.00056669      -0.00191514
H        7.06092395       3.36061882      11.14045937       0.00411594       0.00515032       0.00087725
