145
Lattice="11.793473105549376 0.0 0.0 0.0 11.793473105549376 0.0 0.0 0.0 11.793473105549376" Properties=species:S:1:pos:R:3:forces:R:3 energy=-156480.8125 stress="-0.0032666511833667755 0.00047650508349761367 0.0001633534557186067 0.00047650508349761367 -0.0034317641984671354 0.00033591077954042703 0.0001633534557186067 0.00033591077954042703 -0.004622392822057009" pbc="T T T"
Rb      11.13984705      12.56305859       0.67102476      -0.02558841      -0.01983068       0.03603893
O        6.76657459      11.64366504       1.54455552       0.01299554      -0.01690221      -0.00661062
O        5.24136907       9.99386581       1.71475525       0.02756572       0.00679338      -0.01604074
C        7.48882222       9.44177441       1.14125601       0.00796521      -0.01542056      -0.00734507
C        7.24666661       8.08069445       1.00891149       0.00193258      -0.00246608      -0.00243893
C        8.78385602       9.90454451       0.93066374       0.00596108      -0.01281437      -0.00863461
C        8.27285458       7.20215425       0.68326395       0.00000785      -0.01431601      -0.00162633
C        9.81711892       9.04138610       0.60928649       0.00525430      -0.01645002      -0.00792825
C        9.56437588       7.67840189       0.48464091      -0.00089427      -0.01609575      -0.00193835
C        6.39259104      10.44380847       1.50543613      -0.01082420       0.00301790      -0.00275409
H        6.23690136       7.73021360       1.13680311       0.00067681      -0.00574523      -0.00086193
H        8.91167142      10.97545380       1.03353502       0.00753862      -0.01440521      -0.01233326
H        8.06275143       6.14447545       0.57198219      -0.00373103      -0.00950941       0.00140359
H       10.82133557       9.41690959       0.44954094       0.00381996      -0.02021970      -0.01177270
H       10.36660646       6.99657971       0.22822349      -0.00128458      -0.01982658       0.00067615
O        1.64868364       8.09097058       8.64251780      -0.00282156       0.00492777       0.00428188
C        1.24022458       6.12562815       7.35429340       0.00150493      -0.00037670       0.01070771
C        0.99879835       7.39071359       6.52914808       0.00756371      -0.00373138       0.00440192
C        1.39149260       6.68026191       8.77650515       0.00132594       0.00510953       0.00839916
C        1.89212525       8.36554349       7.26424066       0.00428537      -0.00121169       0.00465533
H        0.44202902       5.39038651       7.28447507      -0.00100967       0.00238316       0.01167244
H        2.16364949       5.64238921       7.02711411       0.00017211      -0.00507147       0.01462933
H        1.24954738       7.28924729       5.47824665       0.01413772      -0.00927689       0.00675596
H       -0.04219294       7.71628025       6.59690540       0.00771385      -0.00279395      -0.00352124
H        0.47231157       6.57118475       9.35862624       0.00250855       0.00531361       0.01040000
H        2.21127005       6.20776720       9.32592965       0.00332755       0.00970010       0.00841942
H        2.94576747       8.18280871       7.01229519       0.00536668      -0.00212172       0.01128362
H        1.67383480       9.41893416       7.08262971       0.00463453      -0.00218961      -0.00027260
O        8.66545582       6.02072161       5.48180196      -0.00364423      -0.00447543      -0.00751224
C       10.76425068       5.11010705       4.94995053      -0.00186926       0.00408802      -0.01404271
C        9.74916432       4.59453960       3.93278036      -0.00220509       0.00591242      -0.01413417
C        9.84132516       5.50092257       6.09429400      -0.00087029      -0.00295731      -0.01140600
C        8.60901607       5.59160223       4.10904618      -0.00179598       0.00391093      -0.00923364
H       11.51466234       4.37341564       5.23657595       0.00052392       0.00541040      -0.01779768
H       11.27341258       5.99249099       4.55635147      -0.00535592       0.00665560      -0.01159365
H       10.12572690       4.56810648       2.91066354      -0.00335860       0.00935771      -0.01469611
H        9.42434244       3.58644193       4.20784864      -0.00130497       0.00510457      -0.01712306
H        9.59798695       4.61599942       6.70187609       0.00230914      -0.00533423      -0.01423284
H       10.24027414       6.26728890       6.75972068      -0.00159343      -0.00415942      -0.00991714
H        8.72742770       6.47056214       3.46937867      -0.00024556       0.00804174      -0.00428420
H        7.62830210       5.15020472       3.91799219      -0.00161228       0.00645992      -0.01354006
O        5.74189387       3.21514096       6.55243785      -0.01322626       0.00026211      -0.00421374
C        5.58459208       5.44696695       7.31564451      -0.00637516      -0.00183302       0.00250704
C        6.86938786       4.83629997       7.86875361      -0.00664866      -0.00651523      -0.00286847
C        4.79022104       4.20067983       6.95001927      -0.00985679       0.00160575      -0.00051841
C        7.06184588       3.64248182       6.94137784      -0.01165532      -0.00358206      -0.00681958
H        5.06222934       6.08278709       8.03158713      -0.00273833      -0.00358769       0.00629848
H        5.82566324       6.03225787       6.42593669      -0.00720064       0.00069964       0.00443119
H        7.70820406       5.52888054       7.83678622      -0.00526591      -0.00853205      -0.00383969
H        6.72574906       4.51710568       8.90165401      -0.00419882      -0.00888626      -0.00382978
H        4.22518984       3.83528824       7.82011755      -0.01017466       0.00031134      -0.00176668
H        4.08570508       4.34652925       6.12692739      -0.00977349       0.00652859       0.00060564
H        7.60085781       3.94529324       6.04101313      -0.01340806      -0.00113966      -0.00695896
H        7.56546924       2.79606695       7.40935319      -0.01221751      -0.00566277      -0.01076436
O        7.66269517       9.26759293       4.17240771      -0.01290765      -0.00009835       0.01070353
C        7.63005686      10.92842027       5.87181364      -0.00955898       0.00850010       0.00284332
C        9.06307290      10.63584516       5.43020984      -0.01112026       0.00859431      -0.00084156
C        6.87879080       9.73282340       5.28040665      -0.01286049       0.00801069       0.00795719
C        8.81167734      10.10468921       4.03650206      -0.01511708       0.00130576       0.00263199
H        7.50100908      11.02168514       6.94912092      -0.00545763       0.00961966       0.00352475
H        7.28752320      11.85948770       5.41467438      -0.01139348       0.00722763       0.00374830
H        9.71999092      11.50680309       5.44730860      -0.01327906       0.00964084      -0.00738990
H        9.50849173       9.84654158       6.03753745      -0.00725553       0.01271072       0.00134704
H        6.80143330       8.90994180       6.00315236      -0.01557769       0.01122034       0.01112095
H        5.87560551       9.99060865       4.92762456      -0.01026618       0.00959170       0.00627112
H        8.58788038      10.93694824       3.35404801      -0.01875937      -0.00344658      -0.00094011
H        9.62557038       9.50799331       3.63057072      -0.01609644      -0.00056306       0.00347926
O        3.12913520       6.05737904       2.45856013      -0.00068782       0.00039854      -0.00625324
C        3.71335412       6.77831948       4.59677244       0.00215699       0.00587475      -0.00956637
C        5.00538508       6.67683884       3.78827962       0.00154954       0.00130282      -0.00992373
C        2.83871840       5.80550938       3.82449498       0.00106876       0.00377244      -0.00524473
C        4.47123585       6.57559350       2.36080793      -0.00053942      -0.00267515      -0.00852665
H        3.83368234       6.51482109       5.64445772       0.00215799       0.01091938      -0.00864565
H        3.30609617       7.79077781       4.54319615       0.00351521       0.00559759      -0.01476850
H        5.68962014       7.51527034       3.91249460       0.00192939       0.00110528      -0.01306197
H        5.53217821       5.76185705       4.07325085       0.00094504       0.00234362      -0.00711109
H        3.09559423       4.76945018       4.09584120       0.00089186       0.00496310      -0.00356809
H        1.76386886       5.92053072       3.96790093       0.00144625       0.00484716      -0.00463614
H        4.42730079       7.55901779       1.89195354       0.00021556      -0.00381929      -0.01121777
H        5.06425360       5.91207955       1.72568226      -0.00265166      -0.00547442      -0.00756559
O        2.80427890       3.10995983       1.82399397      -0.01923190      -0.01166129       0.00456131
C        4.65417505       1.85113288       2.56702180      -0.01071846      -0.00162393       0.00226431
C        3.45161009       1.49390944       3.43459506      -0.00528556      -0.00051969       0.00859821
C        4.22852662       3.20158388       2.03887266      -0.01793501      -0.00832042      -0.00582506
C        2.30313521       2.00576245       2.56787371      -0.00956617      -0.01230898       0.00896287
H        5.59074316       1.88586316       3.11984347      -0.00883012       0.00821657      -0.00021723
H        4.78977394       1.11173498       1.77727256      -0.00815583      -0.00773999       0.00763431
H        3.39259689       0.42817286       3.64605317      -0.00046620       0.00109994       0.01782842
H        3.48662331       2.03200303       4.38557793      -0.00487772       0.00753786       0.00411141
H        4.43054949       3.97569051       2.78320837      -0.01568694      -0.00144809      -0.01407236
H        4.68728348       3.50124111       1.09922306      -0.02501233      -0.01514429      -0.01162142
H        1.99228453       1.22671170       1.85601179      -0.00472295      -0.01656446       0.01255727
H        1.42413569       2.32996437       3.14280900      -0.01088426      -0.01624356       0.00961028
O        0.18304693       9.61546932       3.16485124      -0.00606467       0.00460182      -0.01038074
C        1.85311108      10.41636460       1.72300913       0.00285146       0.00384313       0.00447512
C        2.13390587       8.94220674       1.99442984      -0.00429386       0.00035074      -0.00972270
C        1.02703821      10.74045956       2.96143853       0.01093891      -0.00465730       0.01091623
C        0.82887419       8.45353682       2.59950235       0.00165385       0.00153860       0.00575390
H        2.78017160      10.98020608       1.62544068       0.00528637      -0.00095797       0.00578691
H        1.26674203      10.51849390       0.79800018      -0.00111073       0.01678918       0.00872340
H        2.43091806       8.37275538       1.12040544      -0.01788476       0.00446376      -0.01718205
H        2.95301140       8.89083887       2.70907421       0.00508609      -0.00829503      -0.02136490
H        1.69303732      10.88733817       3.82178213       0.01566720      -0.03147723       0.01162237
H        0.38400326      11.62644870       2.91505204       0.02372435       0.00522380       0.02961493
H        0.15646088       8.03003627       1.85149147      -0.00188795      -0.01587173       0.01844126
H        0.97199044       7.71131906       3.38364446       0.01361733       0.01606193       0.01729086
O        5.13523678       7.63272958      10.33338102       0.01056056      -0.01430708      -0.03046496
C        4.25385313       9.66340777       9.58386889       0.00604409       0.00046781       0.01589948
C        5.77363746       9.77407922       9.51829319       0.00525150       0.00151479       0.00400346
C        4.10798495       8.59124013      10.64525668       0.01365559      -0.01907194      -0.00417337
C        6.18730563       8.30839109       9.62475702       0.00684827       0.00063783      -0.02018948
H        3.74885755      10.59421537       9.84380569       0.00988267      -0.00414020       0.03962474
H        3.85794863       9.30943190       8.63257065      -0.00372489       0.01899792       0.01306388
H        6.14573582      10.24695867       8.60967054      -0.00393213       0.01358318       0.00683111
H        6.13792667      10.34541271      10.37467990       0.01294059      -0.00890145       0.00747442
H        4.28672596       9.01778090      11.63990555       0.02248684      -0.03645384       0.00223291
H        3.14876940       8.07621622      10.61733794       0.01396006      -0.01771602      -0.00582483
H        6.27850890       7.85350105       8.63167995       0.00807470       0.01672968      -0.02597535
H        7.12833991       8.16642280      10.15980153       0.00857234      -0.00504315      -0.02134439
O        6.90838497       1.36567179       9.15817470       0.00034171       0.00584558       0.01064983
C        5.24057510       2.51548635      10.39255196      -0.00031683       0.00503457       0.00874734
C        6.48749035       2.35182500      11.26512650      -0.00122234       0.00845499       0.00857121
C        5.48062231       1.46757457       9.31538236       0.00049889       0.00323328       0.01185676
C        7.56021218       2.05084688      10.23169849      -0.00083865       0.00432666       0.01193744
H        4.31299790       2.33474994      10.93641544      -0.00048798       0.00410836       0.00841860
H        5.18802778       3.51875156       9.96499421      -0.00223882       0.00402957       0.00736445
H        6.72701619       3.23930875      11.85188738      -0.00153280       0.00974976       0.00658305
H        6.37854948       1.50553973      11.94743980      -0.00164046       0.00979730       0.01211157
H        5.09745441       0.49747784       9.63899982       0.00257245       0.00399089       0.01471677
H        5.05852131       1.71456227       8.34046188      -0.00062619      -0.00005348       0.01146626
H        8.02655799       2.96586671       9.84022019       0.00304194       0.00236076       0.01163357
H        8.35109968       1.40389115      10.62277241      -0.00355825       0.00258297       0.01429172
O       10.20667947      11.43264039      10.19717133       0.02202769       0.00819123       0.00059765
C       10.87848145      10.17075730       8.33365641       0.01205863       0.00037747       0.00139916
C        9.55727615       9.60634697       8.84645295       0.00828205       0.01270986       0.00343345
C       11.38361899      10.88785260       9.56615533       0.01867487       0.00398613      -0.00342107
C        9.02456188      10.78490747       9.63174762       0.01858437       0.02118295      -0.00418392
H       11.57061543       9.41125336       7.99330103       0.00591747      -0.00649759       0.00586054
H       10.70079229      10.88835455       7.53237271       0.01663686      -0.00359705      -0.00313811
H        8.87477069       9.28927443       8.05822801       0.00723004       0.01341331       0.00495766
H        9.74175493       8.75138511       9.50238965       0.00135808       0.01510228       0.00863990
H       11.87455675      10.17536964      10.24333030       0.01937275       0.00614789      -0.00216332
H       12.07382265      11.70902997       9.34741392       0.01965761       0.00053698      -0.00890671
H        8.51455041      11.50335148       8.98894116       0.03107192       0.02332652      -0.01096708
H        8.36601822      10.51420355      10.45219882       0.00961468       0.03284547      -0.00674534
