143
Lattice="12.403289545551194 0.0 0.0 0.0 12.403289545551194 0.0 0.0 0.0 12.403289545551194" Properties=species:S:1:pos:R:3:forces:R:3 energy=-164661.671875 stress="-0.001741234096698463 0.00018715365877142176 0.0001735797559376806 0.00018715365877142176 -0.0022725083399564028 -8.705790605745278e-05 0.0001735797559376806 -8.705790605745278e-05 -0.0009954770794138312" pbc="T T T"
Rb      10.95154886      11.80179846       1.56253932       0.00702742      -0.03190920       0.02141315
P        9.92021031       9.93235837       4.19792816      -0.01648763       0.00999272      -0.00135414
F        9.07840351      10.41998425       2.84698997      -0.00857667       0.03254682       0.00212051
F        8.65473896      10.31800242       5.09647426      -0.01437777       0.02343742      -0.00739072
F        9.37502243       8.45105237       3.96935369      -0.02579418       0.01799175      -0.02483631
F       10.76457629       9.49758738       5.46474448      -0.03409307      -0.02136260      -0.00211680
F       10.49181981      11.46310555       4.31251000       0.00695073      -0.00103547       0.01803441
F       11.19030216       9.60894160       3.19573643      -0.01430571       0.00840561      -0.00064154
O        4.02834828       3.23111227       5.32195890      -0.00503565      -0.00528109       0.00610562
C        2.84349120       2.46953458       5.39902150      -0.00566226      -0.00479707       0.00292890
C        5.18273067       2.41534644       5.35849133      -0.00835061      -0.01043130       0.01347507
C        1.66119539       3.40351333       5.38299448      -0.00472102      -0.00034207      -0.00384419
C        6.39733916       3.30095348       5.31867955      -0.00222152      -0.01368490       0.01338372
H        2.80119913       1.76861078       4.55250856      -0.00484753      -0.00226608       0.00047460
H        2.85020733       1.86582170       6.32038015      -0.01066141      -0.00408731      -0.00028571
H        5.17399821       1.80456256       6.27447280      -0.01261959      -0.00569171       0.01397562
H        5.17219987       1.71962021       4.50370041      -0.00622318      -0.01143569       0.01535416
H        0.73279083       2.84032193       5.46407105      -0.00611635      -0.00158960      -0.00615952
H        1.71398787       4.09673360       6.22195809      -0.00749423      -0.00377958       0.00046150
H        1.63838330       3.98495338       4.46065621      -0.00081639      -0.00152645       0.00096565
H        7.30517164       2.70330559       5.38988466      -0.00830960      -0.01485094       0.02013933
H        6.44361711       3.86140730       4.38622514       0.00045988      -0.01699981       0.01247656
H        6.37369689       4.00881303       6.14701642      -0.00604015      -0.00957237       0.01201238
O        9.58138780      10.99852929       9.64352380       0.00372659       0.01261652       0.00194395
C        9.91852345      10.72259153      10.97676015      -0.00115454       0.00654393       0.00127178
C        8.25336030      11.49140462       9.51769365       0.00554328       0.01128824      -0.01264310
C       11.35032917      10.23164719      11.02103886      -0.00317991       0.00915915      -0.00184008
C        8.01301691      11.84649119       8.07420081       0.00466933       0.00551371      -0.00723484
H        9.78209614      11.65078201      11.56723717      -0.00371526      -0.00047016       0.00966604
H        9.23358590       9.97336806      11.40576510      -0.00309411       0.00063619      -0.00674468
H        7.54490983      10.72432589       9.86725065       0.00106052       0.00030044      -0.01874605
H        8.12876192      12.37196363      10.16733254      -0.00677612       0.00276935      -0.00723526
H       11.64204579       9.90472884      12.02252259      -0.00247296       0.00754847       0.00423749
H       11.45365387       9.36461767      10.36758258       0.00361918       0.01626520       0.00017656
H       12.04248783      10.99724243      10.66736420      -0.00515141       0.01647557       0.00957701
H        6.99795992      12.22196468       7.94375273       0.01198961       0.01101814      -0.01217943
H        8.71285244      12.61636584       7.74985525       0.01333000       0.01742414      -0.00520594
H        8.15006340      10.97733216       7.43296159       0.01197803       0.01688376      -0.01337858
O        5.32839374       5.06055582       8.78351246       0.00048169      -0.00657770      -0.00049371
C        6.28224954       4.57413276       9.71043244       0.00141990      -0.00426495      -0.00114384
C        4.27131170       5.75096575       9.42838224       0.00091118      -0.00659138      -0.00130382
C        7.33222257       3.77966094       8.97387960       0.00133914      -0.00671247       0.00358304
C        3.23762793       6.14144983       8.40226102       0.00111824      -0.00729853      -0.00267708
H        6.74202972       5.41815419      10.24623796       0.00184652      -0.00275978      -0.00293840
H        5.77687640       3.95043342      10.46348203       0.00194117      -0.00220892       0.00184023
H        3.82601427       5.10458866      10.19945618       0.00125688      -0.00490031      -0.00100219
H        4.66779650       6.63778318       9.94739780       0.00058912      -0.00538272      -0.00311834
H        8.05713720       3.37568336       9.68274359      -0.00063275      -0.00473890       0.00033349
H        6.87280971       2.94872251       8.43668003      -0.00059153      -0.00715391       0.00249518
H        7.86879926       4.40619082       8.25954882       0.00070765      -0.00724420      -0.00090872
H        2.42043775       6.68737751       8.87481281      -0.00064555      -0.00997878      -0.00201197
H        3.66842136       6.78638891       7.63835764      -0.00050953      -0.00723164      -0.00107495
H        2.83579602       5.25215568       7.91747246       0.00287891      -0.00863299      -0.00234348
O        3.49325335       9.85458232       7.81224535      -0.00009175       0.00723761       0.00082425
C        4.87310405      10.14595012       7.70267303      -0.00124347       0.00933596      -0.00426221
C        2.72075799      11.03743450       7.94100148       0.00136822       0.00675430       0.00673161
C        5.65137406       8.86043676       7.58834381       0.00631993       0.01095361       0.00662188
C        1.26518391      10.66973328       8.07899364      -0.00109452       0.00195879       0.00449573
H        5.05042106      10.78511240       6.82337881      -0.00103928       0.00674382       0.00078765
H        5.19663919      10.71661183       8.58646279       0.00017319       0.01052266       0.00038049
H        3.07203045      11.60433776       8.81741076      -0.00027925       0.00305861       0.00519341
H        2.87871666      11.67443694       7.05732921      -0.00320979       0.00840139       0.00676841
H        6.71425238       9.06951107       7.46981385      -0.00283031       0.00879713       0.00309099
H        5.51728029       8.24039706       8.47488649      -0.00055686       0.01051627       0.00076869
H        5.32644572       8.28562719       6.72097255       0.00016789       0.00655328      -0.00111485
H        0.66835529      11.56082487       8.28005774      -0.00061590       0.00186990       0.00939228
H        0.89392127      10.21612984       7.16235074       0.00064104       0.00378950       0.00922310
H        1.13445441       9.96873215       8.90347649       0.00309608       0.00218177       0.00727370
O        1.41329694       9.69478669       4.90957534      -0.00822139      -0.00263831      -0.00625381
C        2.26202307      10.48684158       4.11655867       0.00420585      -0.00584513       0.00218204
C        1.94003352       8.38983725       5.12095956      -0.00831148      -0.00195187       0.00087476
C        1.48179057      11.69679053       3.65328514       0.00433838       0.00073123       0.01115987
C        0.88059408       7.52093373       5.75050127      -0.00792813      -0.00382933       0.00063714
H        3.16330795      10.78523828       4.67702722       0.00020197      -0.01500468       0.00633213
H        2.59598221       9.90230807       3.25005082      -0.00053930      -0.00151062      -0.00049165
H        2.25378362       7.98125215       4.15268752      -0.01131593      -0.00698952      -0.00260520
H        2.82611405       8.45465339       5.76752396      -0.01057100      -0.00173602      -0.00489694
H        2.06524734      12.28925509       2.94521591       0.01085323       0.00652710       0.01172548
H        0.57348299      11.33010770       3.18165219       0.01225114       0.00689386       0.00774900
H        1.18590239      12.32868815       4.49156330       0.00816182      -0.00576562       0.01243547
H        1.29185426       6.53034818       5.95037186      -0.01421881      -0.00122678      -0.00855017
H        0.53444975       7.94324852       6.69313387       0.00087072      -0.00330983       0.00844236
H        0.01934990       7.42187582       5.09159768      -0.01581551       0.00824879       0.00854848
O        9.19508414       6.31326131       7.33296200       0.00092995      -0.00581485       0.00203879
C        8.94436411       7.06285547       8.50405048       0.00694469       0.00529516      -0.00504512
C        8.31101399       6.66529149       6.27635710      -0.00153638      -0.01101106       0.00242448
C        9.90960913       6.61699013       9.57464596      -0.00513133      -0.00915708       0.00641763
C        8.70685090       5.88788495       5.04857567       0.00877737       0.02095804      -0.01434654
H        9.06167792       8.13759541       8.29547098       0.01007296      -0.00650704      -0.00499722
H        7.90350434       6.90590402       8.82997577       0.00216520       0.00545844      -0.00128776
H        7.27712148       6.43168242       6.57833509       0.00243443       0.00287250      -0.00105533
H        8.36955338       7.74427286       6.09168174       0.00728073       0.00103259      -0.00157814
H        9.69521412       7.12086084      10.51773335       0.00407307      -0.00023452      -0.00547834
H        9.82418835       5.54287918       9.74359711      -0.00347436       0.00272028       0.00258169
H       10.93648522       6.83500939       9.27849736       0.00673771      -0.00770000      -0.00171649
H        8.07565150       6.15716388       4.20125245       0.00364986      -0.00474101       0.00545979
H        9.73858379       6.10839974       4.77877015      -0.00919582      -0.01101239       0.00226614
H        8.60997524       4.82045978       5.21787705      -0.00606364      -0.01914695       0.00290814
O        4.34517478       7.95248273       2.51484770       0.00357103       0.01056260      -0.00188655
C        4.83445775       9.17302238       1.99227863       0.00078309       0.01121154      -0.00181574
C        5.03481979       7.55532519       3.69168848       0.00742830       0.01199698      -0.00378320
C        4.04530697       9.50878904       0.74969103       0.00827047       0.00849059      -0.00786582
C        4.53351477       6.20079152       4.12336262       0.00899373       0.01124269      -0.00022595
H        4.74070278       9.96813236       2.74577352       0.00435758       0.01009265      -0.00696987
H        5.90496800       9.08229547       1.76249175       0.00479764       0.00867680      -0.00447924
H        6.11639405       7.52584106       3.49583186       0.00392389       0.01673177      -0.00259580
H        4.87018443       8.30667243       4.47754069       0.00262718       0.01197082      -0.00150135
H        4.37274056      10.46438508       0.33891333       0.00714388       0.00275770      -0.00825520
H        4.17834809       8.74010507      -0.01259574       0.00040548       0.00467516      -0.00068669
H        2.98024629       9.57296098       0.97939503       0.00204255       0.01345959      -0.00424488
H        5.02262586       5.88110907       5.04291484       0.01333781       0.01222465      -0.00398509
H        3.45976855       6.21298895       4.30617963       0.01266387       0.00590021      -0.00157075
H        4.73038585       5.44883523       3.35887918       0.01372645       0.01095283      -0.00422315
O        9.14842925       6.58131320       0.81097601      -0.00004371      -0.01156956      -0.00913564
C       10.28861120       7.42090418       0.86789565       0.00044161      -0.00459407      -0.00063160
C        7.95492691       7.34320365       0.85176483       0.00232202       0.00071135      -0.00707384
C       11.54033776       6.58141331       0.87128540      -0.00395837      -0.02422288      -0.00918965
C        6.78134854       6.40010382       0.88030611       0.00326446      -0.01161802      -0.00221431
H       10.27995826       8.08958786      -0.00676428       0.00631573      -0.00873220      -0.00250801
H       10.23989922       8.04337680       1.76496620       0.00130478      -0.01533470      -0.00523698
H        7.96287974       7.99159936       1.73906857       0.00426927      -0.00469446      -0.01185608
H        7.90523935       8.00128302      -0.03343003       0.00109917      -0.00850302      -0.00921136
H       12.41944397       7.22710036       0.91256902       0.00407974      -0.01347859       0.00002275
H       11.55748936       5.92907055       1.74425020      -0.00482001      -0.01529168      -0.00503230
H       11.60144052       5.96553129      -0.02656291      -0.00044636      -0.00927776       0.00036813
H        5.83693145       6.94080771       0.85462051      -0.00218065       0.00210266       0.00014802
H        6.82021260       5.71940656       0.03084614      -0.00574742      -0.00253034       0.00107642
H        6.80323842       5.80546666       1.79236238       0.00142509       0.00072695      -0.00399230
O        8.83425589       2.72342786       3.13059177       0.00020649      -0.00488687       0.00161441
C        8.11172583       2.03161006       2.13480094       0.00557458      -0.00520658      -0.00052041
C        9.56763143       1.82567720       3.94153487       0.00663450      -0.00072274      -0.00502020
C        7.35365326       3.01426762       1.28246790       0.00352031      -0.01447850      -0.00773305
C       10.29032569       2.55345868       5.04587713      -0.00243407       0.00174740       0.00215977
H        8.81490932       1.45608086       1.49966122       0.01326019      -0.00110225      -0.00101438
H        7.43555746       1.29981832       2.60264327       0.00938156      -0.01072484      -0.00649047
H        8.90327574       1.04875773       4.34326623       0.01257786      -0.00798836      -0.00694956
H       10.31028721       1.31024421       3.31383633       0.01183701       0.01108535      -0.00429767
H        6.83540609       2.49156184       0.47673772       0.01069771      -0.00038819       0.00138137
H        6.61047598       3.54220256       1.87848151      -0.00054455      -0.01240177       0.00737290
H        8.03284886       3.74984818       0.85271245       0.00272559       0.00035115       0.00702666
H       10.89810511       1.83532269       5.59854439       0.00442751       0.00942303      -0.00318834
H       10.93866851       3.32979936       4.63971055      -0.01496902       0.01278329       0.00305987
H        9.59984386       3.02146224       5.74508631      -0.01089247      -0.01043818       0.00150692
