147
Lattice="12.452232530620655 0.0 0.0 0.0 12.452232530620655 0.0 0.0 0.0 12.452232530620655" Properties=species:S:1:pos:R:3:forces:R:3 energy=-196127.515625 stress="0.0005935661611147225 -8.938397149904631e-05 -0.00024292730813613161 -8.938397149904631e-05 0.0012178749311715364 -0.00035885366378352046 -0.00024292730813613161 -0.00035885366378352046 0.0004849648103117943" pbc="T T T"
Rb      12.88103696      13.46427805      -0.01511726       0.00275631       0.02149412       0.00669365
O       12.75933768      10.99953559       1.10262457       0.02486224       0.02070630       0.00674662
H       13.34553642      10.36638028       0.67030754       0.02485879       0.01852639       0.00751007
O        9.92110303       2.35758618       5.34126137      -0.01046914       0.00063750       0.00211924
O        8.48882960       3.56955196       4.14046751      -0.00263020      -0.00368077      -0.01076306
C       10.36353740       2.59698514       3.00592193       0.00688997      -0.00965840       0.00362211
C        9.50666184       2.91689186       4.17962821      -0.00237957      -0.00367945      -0.00257289
H       11.30374964       2.14144951       3.30379058       0.00267223      -0.02400751       0.00209172
H        9.79639202       1.90155137       2.38325065       0.00613055      -0.00836530       0.00250156
H       10.54406748       3.50104265       2.42971679       0.00645059      -0.00933540       0.00157252
H        9.21159005       2.53213581       5.98956112      -0.01513112      -0.00010690      -0.00291058
O        8.29593654      10.74109666       0.29680848      -0.03829929       0.00224751       0.01174861
O        8.36299148       9.32650277       2.04106293      -0.03466201      -0.02081811       0.01600778
C        9.29663376      11.53311529       2.28830436      -0.00082320      -0.01486236      -0.00174892
C        8.63036254      10.39968831       1.57456084      -0.01271459       0.02944613       0.00012676
H       10.00468493      12.03113870       1.62660803       0.00575353      -0.01948599      -0.00586708
H        8.52072439      12.25547205       2.56122558       0.01268049       0.00017332       0.00361131
H        9.80087271      11.17994676       3.18601046       0.00238843      -0.01444085      -0.00298595
H        7.75828753      10.01053966      -0.04661432      -0.03473687       0.00590193       0.01389867
O        6.46606086       2.23281351       3.02063708      -0.00360262      -0.00429671      -0.00418076
O        5.11640614       4.00996685       2.80435517      -0.00325687      -0.00207686       0.00133831
C        4.20557003       1.80564066       2.52929857      -0.00350064      -0.00293589      -0.00264548
C        5.28334160       2.81133692       2.78287889      -0.00284493      -0.00515807      -0.00133744
H        4.58623673       0.93210686       2.01046457      -0.00338444      -0.00166963      -0.00505137
H        3.81688244       1.45379078       3.48685861      -0.00292472      -0.00528305      -0.00320041
H        3.39889012       2.27935108       1.97479642      -0.00377758      -0.00183646      -0.00133152
H        7.10668749       2.92341925       3.30330837      -0.00217424      -0.00496429      -0.00475547
O        4.10767723       4.59989500      -0.39413274       0.00554222       0.00579490       0.00409344
O        3.08925768       6.57213536      -0.24143360       0.00779456       0.00636074       0.00366797
C        5.37961582       6.37638130       0.49869014       0.00683564       0.00308096       0.00599998
C        4.09236284       5.89943947      -0.05655125       0.00545937       0.00561044       0.00393110
H        5.70125687       5.70499195       1.29438828       0.00271544       0.00283697       0.00744811
H        6.13146445       6.30994935      -0.28959278       0.00806271      -0.00033741       0.00757934
H        5.29295882       7.39521704       0.85256341       0.00906009       0.00378105       0.00507076
H        3.30976916       4.34701892      -0.93439328       0.00490421       0.00452052       0.00434726
O       11.81035921       0.11405156       7.53565520       0.00187624      -0.00524667       0.00891310
O       12.63030740       0.69284136       9.53968518       0.01147220       0.00379579       0.00263911
C       10.39071568       1.30160493       8.97905495       0.00824547       0.00112286       0.00890200
C       11.72214238       0.69387795       8.69635221       0.00706911      -0.00003651       0.00636530
H        9.87673669       1.59575781       8.07011124       0.00548135      -0.00273450       0.00916129
H        9.79454671       0.51359643       9.44958315       0.00957033       0.00288782       0.01387225
H       10.47134214       2.13646039       9.67115905       0.00997533       0.00389408       0.00551698
H       12.49070436      -0.63099849       7.54500631       0.00461468      -0.00327706       0.00625479
O        5.96909767       2.58107985      12.16413488      -0.00042689       0.00333375       0.00202473
O        7.48828415       4.20344352      12.03297120       0.00741055      -0.00349700      -0.00623679
C        8.23281688       1.92491383      12.00647266      -0.00378704      -0.00830263       0.00457489
C        7.21695974       3.01709090      12.07777086       0.00201422      -0.00396770      -0.00093298
H        7.95889753       1.07321770      12.62485984      -0.00398755       0.00001186       0.01577507
H        8.27159500       1.57646335      10.97246165      -0.01191209      -0.02136850       0.00863075
H        9.20731010       2.32840789      12.27349869      -0.00020333      -0.01057205      -0.00514273
H        5.36830473       3.36274501      12.14090911       0.00301113       0.00542301       0.00071714
O       11.74135155       3.51169991       7.25187262      -0.01288736       0.00711870      -0.01087445
O        9.73717227       4.47809318       7.53393009      -0.00778538       0.01340607       0.00466594
C       11.56377114       5.16038657       8.93456827       0.00440475       0.00258294      -0.00615364
C       10.90502655       4.38143291       7.84419988      -0.00610638       0.00760399      -0.00347875
H       11.48462515       4.59865718       9.86942760       0.02570673      -0.00808297      -0.01129544
H       12.61925654       5.32078600       8.72552212      -0.00079098       0.01311277      -0.02277905
H       11.03921474       6.10260765       9.06918391      -0.00078300      -0.00347814       0.01238386
H       11.25328099       3.06791672       6.52903359      -0.01726630       0.01221228      -0.01179686
O        2.51630082       6.05350036       3.16196220      -0.00722569       0.01073264      -0.00869882
O        3.97213793       7.72878424       2.89415647      -0.00711578       0.01271033      -0.00631177
C        4.23152530       6.27481111       4.78963223      -0.00597569       0.00726432      -0.00916880
C        3.60291100       6.76991297       3.52795004      -0.00771797       0.00868261      -0.00628489
H        3.83999719       6.86360631       5.62309676      -0.00446684       0.00533696      -0.00713043
H        4.01575789       5.22497346       4.95947991      -0.00590063       0.00678720      -0.01129648
H        5.30579199       6.43296451       4.74454621      -0.00587136       0.00702059      -0.01014624
H        2.13066166       6.50510995       2.39513091      -0.00666569       0.01194268      -0.00826365
O        4.45517893      10.30848390       7.48000670      -0.00908566      -0.00238293       0.00052875
O        4.40639021       8.10876494       7.91432437       0.00887978      -0.00437331      -0.01141828
C        5.91687189       9.51808256       9.14987328       0.00114781      -0.00010301      -0.00786275
C        4.86210523       9.20906068       8.13629741       0.00055683      -0.00410932      -0.00679329
H        6.82448389       9.81328315       8.62043628      -0.00110090       0.00479659      -0.00903793
H        5.61119888      10.34729722       9.78657759      -0.00129293      -0.00225261      -0.00624949
H        6.10976729       8.64648140       9.76581294       0.00703989      -0.00022233      -0.00976611
H        3.86682565      10.03748694       6.74393859      -0.00821620      -0.00245121      -0.00038752
O        2.80386624       9.25274723       0.11275244       0.00881743       0.00647843      -0.00122781
O        5.01028283       9.55480823      -0.17315992       0.01045489       0.00507241      -0.00392556
C        3.58560617      11.47485989       0.04372031       0.00773722       0.00606912      -0.01034064
C        3.89997180      10.00883496      -0.00489497       0.00687063       0.00699919      -0.00500886
H        3.08054508      11.73943549      -0.88723255      -0.00157420       0.00168748      -0.00661704
H        2.92656139      11.67538376       0.88711460       0.01442899       0.00913296      -0.00568080
H        4.50691889      12.04146331       0.13182046       0.00711538       0.00826960      -0.02035722
H        3.04895299       8.29316353       0.06209578       0.00736561       0.00608653       0.00264313
O        1.46207404      10.89833075       9.92716452      -0.00582513      -0.01019448       0.00276038
O        0.73831965      10.37239665       7.87778090       0.00909564      -0.00010946      -0.00523654
C        1.38047931       8.60386594       9.36148475       0.00775746      -0.00671649      -0.01251295
C        1.16010997      10.02488433       8.97107237       0.00391807      -0.00498967      -0.00431591
H        2.33266258       8.27046324       8.94117189       0.00735652      -0.00258387      -0.01679036
H        1.41487151       8.49190118      10.44192262       0.01001979      -0.01279494      -0.01313150
H        0.59558549       7.98993212       8.92452629       0.00803727      -0.00583754      -0.01448013
H        1.15355994      11.79413102       9.62852962      -0.00231007      -0.00802523       0.00565487
O        9.47123051       5.92398454      12.12102280       0.01483613      -0.01071106      -0.01198477
O       11.04990715       4.35667780      12.40050888       0.01058763      -0.01545703       0.01046332
C       11.65991147       6.69490773      12.44745400       0.01460791      -0.01787531       0.00550570
C       10.71882094       5.53355338      12.32526344       0.01316046      -0.01806855       0.00170598
H       11.40234998       7.46637222      11.72196723       0.00990935      -0.00986056       0.01031266
H       11.54645370       7.15460653      13.43306197       0.01468946      -0.02132164       0.00783399
H       12.69002732       6.37540546      12.31831559       0.01426406      -0.02293491       0.00760433
H        8.85246450       5.14651591      12.09472411       0.01123572      -0.00956556      -0.01115064
O       12.23180220       9.32714303       2.98538855      -0.00724769       0.00232015      -0.01115632
O       11.24178888      10.12713685       4.84191648       0.01099867      -0.00288177      -0.00161552
C       10.62253342       7.95660761       4.08201626      -0.00103718       0.00096774      -0.00284278
C       11.42489836       9.25306500       3.96742044       0.00140977       0.00066471      -0.00413363
H       10.62962430       7.39580343       3.15013646      -0.00044493      -0.00370317      -0.00024960
H       11.05861415       7.31560984       4.85591303      -0.00530829       0.00456671       0.00232658
H        9.59568524       8.16807028       4.37806045      -0.00125732       0.00516209      -0.00632981
H       12.51071351      10.48605166       1.93830855       0.00046448       0.03304878       0.00573098
O        7.71477044       2.62296377       7.33028763       0.01157784       0.00249714       0.01308586
O        6.17957321       3.11815012       8.88589639       0.00173703      -0.00169128       0.00472909
C        6.48016458       0.81838171       8.24928275      -0.00663176       0.00255179      -0.01448953
C        6.73459688       2.29284117       8.20572798       0.00224128       0.00096881       0.00153261
H        6.59096270       0.34872951       7.27351167      -0.01486134       0.01426141      -0.02088420
H        7.21199982       0.36137786       8.92175403      -0.00432092      -0.00978668      -0.02604321
H        5.49036651       0.62482712       8.65030537      -0.00514850       0.00334897      -0.01106606
H        7.94385193       3.56344860       7.45177877       0.01943973      -0.00053096       0.02273268
O        2.61463419       3.10441775       8.13346413      -0.03271729      -0.00873929       0.01687992
O        2.45383434       3.54762638      10.30997128      -0.00302155       0.00023358       0.01693267
C        3.51729902       5.16046468       8.86777208      -0.01072058      -0.01151431      -0.00258190
C        2.81737530       3.89036683       9.19203926      -0.01429511      -0.00637049       0.01099229
H        4.59321156       4.97746946       8.93021749      -0.01061979      -0.01476967      -0.01334272
H        3.29662785       5.49764447       7.85815878      -0.01975171      -0.01478878      -0.00177589
H        3.25714750       5.92941955       9.59123351      -0.00003906      -0.00703135      -0.00361145
H        2.15168010       2.30888776       8.44036183      -0.03104812      -0.00664771       0.02546632
O        1.06340075       5.61084154       5.70405935       0.00604868       0.01047570       0.00246695
O       -0.32814972       4.72734023       4.18877306      -0.01240939      -0.01009166       0.03257000
C        1.55225508       3.42682145       4.89656396       0.00851166       0.00868738       0.01003601
C        0.66247791       4.63076018       4.87066216      -0.00135076       0.00124399       0.01667118
H        2.41764960       3.55840903       5.53705916       0.00079735       0.00707908       0.02039529
H        0.97408844       2.56906076       5.24425259       0.01228045      -0.00127868      -0.00997066
H        1.86980568       3.22566857       3.87437825       0.02220092       0.02776887       0.01067194
H        0.47827078       6.36631113       5.53397447       0.00072998       0.00677189       0.00442258
O        9.46975871      10.81644515       7.45913880      -0.00607133       0.00041372       0.00553459
O        8.17749060       9.45037883       6.23648810      -0.00272059       0.00260194      -0.00675595
C       10.02224765       8.52939498       7.49771976      -0.00374275       0.00081033       0.00088248
C        9.12100756       9.59804344       6.97029378       0.00168502       0.00174197       0.00431997
H       11.01769232       8.73245284       7.09758135      -0.00389445      -0.00023615      -0.00106312
H       10.06934241       8.58063438       8.58771400      -0.00203185       0.00059215       0.00112312
H        9.66805276       7.55402578       7.17793365      -0.00443681       0.00083615       0.00152463
H        9.00170116      11.46464699       6.91481877      -0.00613895       0.00140643       0.00756708
O        3.26066461       9.91684386       4.96651301      -0.00516057       0.00593382      -0.00067601
O        3.70966724      11.06616030       3.09935954      -0.00599343       0.00243747      -0.00519001
C        5.54063798      10.07637586       4.30884260      -0.00486100       0.00701901       0.00088716
C        4.11794757      10.41429389       4.02525286      -0.00459820       0.00317204       0.00024873
H        5.84215435      10.41118556       5.30075189      -0.00833868       0.00937305       0.00129299
H        5.66603408       8.99517210       4.27979620      -0.00408995       0.00701725       0.00380382
H        6.18078297      10.52063986       3.55439075      -0.00320402       0.00608212       0.00140446
H        2.35443951      10.10994536       4.66875406      -0.00557494       0.00581567       0.00002906
