148
Lattice="11.575056197642569 0.0 0.0 0.0 11.575056197642569 0.0 0.0 0.0 11.575056197642569" Properties=species:S:1:pos:R:3:forces:R:3 energy=-603917.0625 stress="0.0016135632758960128 -0.0005233682750258595 -0.0002475651854183525 -0.0005233682750258595 0.002528988989070058 5.125832285557408e-05 -0.0002475651854183525 5.125832285557408e-05 0.001845416845753789" pbc="T T T"
Sm      10.91740850      11.74229871       0.90180459      -0.00901492      -0.00515461      -0.00732121
Br       0.79442852      10.82965142       3.14199085      -0.00432417       0.00445583      -0.00196618
Br       9.45114314      11.10162667       7.98727154      -0.02459519      -0.01325899      -0.00259448
Br       5.92366974      12.68136119       1.19481154      -0.02217588       0.04010976      -0.01546741
O        4.36873937       4.39038664       9.50072646       0.00815761      -0.00808095      -0.00166705
H        3.91311815       3.86637737      10.17769451       0.00062730      -0.00263635      -0.00204372
H        4.01740860       4.07042592       8.65338405       0.00312717      -0.00159936      -0.00251895
O        7.88487124       8.09678324       8.97226716       0.00332366      -0.01239231       0.00757332
H        7.38101476       8.01537172       9.80781508       0.00752626      -0.02080097       0.01108784
H        7.98997601       9.04198135       8.79938970      -0.00307705      -0.01337555       0.00965252
O        8.11831099       6.73683381       6.48858624      -0.01734494       0.01104531      -0.00664213
H        7.90348277       7.12249946       7.35601986      -0.00422553       0.00383524       0.00113481
H        9.03241949       7.00065613       6.31688577      -0.01724971       0.00216613      -0.01476085
O       10.34761427       6.08321738       0.82147955       0.00598608      -0.00125352       0.00467791
H        9.80074485       5.38107112       1.22824977       0.00469452       0.00031745       0.00674959
H       11.25314155       5.71101887       0.85958248       0.00580165      -0.00509249       0.00337068
O       10.02484515       3.72093938       9.22184262       0.01927584      -0.02098307      -0.02065191
H        9.73471655       4.63775442       9.42587571      -0.00103439       0.04100003       0.00431547
H        9.33291438       3.13798200       9.54452162      -0.01112498       0.01094769       0.00410183
O        9.92362090       6.36783635       9.66655225       0.01917296       0.00421809       0.00485739
H        9.24148574       7.03067183       9.43427221       0.01356498      -0.00103696       0.00488783
H       10.01912486       6.38603085      10.63990823       0.00958213      -0.00165193       0.00698408
O       10.21068984       0.92289469       5.11731538       0.00767213       0.00068930       0.01294769
H       10.11117551       0.55815187       6.01369384       0.00124419      -0.00790846       0.00954325
H       10.85341269       0.34860201       4.66876840       0.00597517       0.00360015       0.00982161
O        9.23665364       3.93804194       2.23541809       0.00329851       0.00243208      -0.00353631
H        9.80709876       3.73324989       3.01234876       0.00210501       0.00085500      -0.00210139
H        8.30766724       3.95463846       2.57281521       0.00386852       0.01221317      -0.00233650
O        1.46405440       7.72216429       8.95380984       0.01100661       0.00042292       0.00514922
H        1.31609486       6.85980821       9.35276072       0.00425770       0.01611523       0.03314635
H        0.63724411       7.91590631       8.44394437       0.01111439      -0.00161336       0.00663227
O        3.28649012       7.62349708       6.81110142      -0.00498518       0.00228511      -0.00423597
H        3.29015009       6.78086169       6.33510752      -0.00447708       0.00099251      -0.01021643
H        2.76368221       7.46756635       7.61981839       0.00030404      -0.00463951      -0.00354464
O       -0.29965199       0.85665611      10.24840971      -0.01824486       0.00546961      -0.00834414
H        0.35782939       1.48562537       9.87407485      -0.01565054       0.00277896      -0.01055755
H       -0.83887879       0.56582375       9.48172759      -0.02132674       0.00668633      -0.00598724
O        2.73026395       0.36854637       5.43558155      -0.00022314       0.00187097      -0.00037065
H        2.33875966      -0.33928744       5.97289790       0.00074275       0.00293684       0.00117140
H        3.63166967       0.57533906       5.75481742      -0.00001948       0.00366458      -0.00140365
O        9.30521191      10.51713194       2.30080757      -0.00406789      -0.00762004      -0.00304821
H        8.78663584      10.86285522       3.07451362       0.00273038      -0.00672709       0.00161085
H        9.67555295       9.66443603       2.61168328       0.00507420      -0.00455359      -0.00310612
O        1.80682013       7.09193649       3.22668916      -0.00255809       0.00459719      -0.00248733
H        0.93026291       7.51639296       3.19663763      -0.00013196       0.00688453      -0.01613435
H        2.44236930       7.82330226       3.24827394      -0.00012303       0.00399001       0.00820644
O       10.53062455       7.92539332       2.92192496       0.01498833       0.00094585      -0.00348237
H       10.42696631       7.30905814       2.16769910       0.01116197       0.00114688      -0.00385380
H       10.52959977       7.37257888       3.73146934       0.00937726      -0.00004566      -0.00297253
O        3.00189559       5.15630073       4.98363127       0.00086212       0.00987798      -0.00292683
H        3.88582758       5.43409399       4.65073272       0.00094859       0.00828592      -0.00468152
H        2.38849632       5.74966498       4.51377827       0.00054976       0.00668133      -0.00653035
O        4.31957994       4.47224722       1.77801608      -0.01013703       0.00273395       0.01408790
H        5.10735028       4.25109227       2.30493356      -0.00973111       0.01363810       0.01739310
H        4.21156816       3.74705067       1.15223892       0.01238084      -0.00967738       0.00823033
O       10.97592820       8.27784750       7.27762516       0.01348424      -0.00244585       0.01191244
H       10.42553035       9.02245937       7.57192417       0.00554335      -0.00299691       0.00881030
H       11.64779163       8.71408084       6.70381395       0.01062439       0.00236951       0.00956569
O        3.68312415       9.60531232       3.82476867      -0.00264725      -0.00534503      -0.00042656
H        3.24532578      10.40566570       4.16525018      -0.00341346      -0.00555834      -0.00251346
H        3.82295017       9.78523906       2.87515843      -0.00057298      -0.00578129      -0.00047227
O        1.76845118       2.57340589       4.00224933      -0.00351703       0.00297866       0.00290664
H        2.06491085       1.79204108       4.51895349      -0.00287114       0.00280185       0.00313537
H        2.41469359       3.28357326       4.14438279      -0.00057349       0.00038446      -0.00215314
O        7.48868154       1.66377267       6.50327989       0.00153604       0.00379308      -0.00680739
H        7.93244120       1.23935038       7.25051663      -0.00452294       0.00333325      -0.00771453
H        7.78581990       2.59295285       6.43471092      -0.00050717       0.00719240      -0.00195215
O        7.68935146       6.54390907       2.56151609       0.01317850       0.01898655       0.00566409
H        8.54024533       6.50955083       3.00863027       0.00701435       0.04725173       0.00962722
H        7.42391145       7.49148334       2.60373982      -0.01342894       0.01785868      -0.00249260
O        1.08617001       2.93821828       9.28798683      -0.00111764      -0.00275949      -0.00975057
H        0.21236323       3.38031571       9.23697973      -0.00387457       0.00464160      -0.01035347
H        1.58575142       3.12429764       8.46686283      -0.00132422       0.00024334      -0.00739139
O        7.62851526      11.24379398       4.31453248       0.00749539       0.00273624      -0.00102602
H        7.17260038      10.55064573       4.82232655       0.00328974       0.00488179       0.00324322
H        7.93723430      11.89302506       4.96492429       0.00613511       0.00402661      -0.00632708
O        1.50218327       9.44964633       6.02563458      -0.00040208       0.00439652       0.00138016
H        2.21177287       8.77260833       6.16947485       0.00060564       0.00249557      -0.00288685
H        1.35652179       9.49594297       5.07046568      -0.00650106       0.00530585       0.00188283
O        5.15916028      10.44441245       8.01638180       0.01799927      -0.00549073       0.02907687
H        5.31666181       9.86758221       7.25527315       0.01024607       0.00504066       0.01956072
H        4.34139076      10.13404584       8.43576771       0.00544026       0.00775389       0.01534790
O       10.77144247       6.17615815       5.00229959      -0.03301739       0.00412598      -0.00102914
H       10.78891624       5.23767476       4.75877276      -0.02029994       0.00563981      -0.00669199
H       11.11956558       6.16775552       5.91892510      -0.01610482       0.00340087      -0.00649234
O        1.68094808      -0.11750651       0.19565937      -0.02115121      -0.03145361      -0.01077519
H        2.29425404      -0.50740239       0.84025378      -0.01730667      -0.02933407      -0.01074228
H        1.97721606      -0.51879050      -0.65739967      -0.01294124      -0.02290311      -0.01266216
O        4.61043108       7.15775801       1.45041873       0.00265269      -0.00255155      -0.01232969
H        4.32327394       6.22485311       1.37778177      -0.00464530      -0.00045241      -0.00752340
H        5.43164789       7.19261660       0.91067104       0.00307753      -0.01093784      -0.01262648
O        3.95675439       9.74328739       0.97908599      -0.00461403      -0.00311209      -0.00333130
H        4.15196419       8.78486666       1.10047710      -0.00158639      -0.00408081      -0.00368774
H        4.81790288      10.18761736       0.95630435      -0.00615804      -0.00282385      -0.00403002
O        6.70684108       3.56326195       3.15406550       0.00458148       0.02107026       0.00821814
H        6.87172094       3.55342634       4.11131702       0.01507796       0.02219296       0.00711870
H        6.51138287       2.65059477       2.86339038       0.00251896       0.02157709       0.01000520
O        6.64875700       9.02986605       2.47738315      -0.01256634       0.00939989      -0.00207417
H        7.17341721       9.80410711       2.24072212       0.00466266      -0.00817708       0.00210615
H        6.40564243       9.17172823       3.40982978      -0.00913483       0.01120945       0.00355245
O        5.06006582       1.56146250       5.44258206      -0.00168082       0.00502564      -0.00076376
H        5.32647354       1.16496241       4.60434283      -0.00737165       0.01376683      -0.00670615
H        5.87918849       1.52981137       5.98590136       0.00392711       0.00594134      -0.00765350
O        6.86647206       4.60009206      10.48406445       0.00835267      -0.03821710       0.00480725
H        6.77473182       4.01652947      11.24474834       0.00172088      -0.04656072      -0.00261734
H        6.00616826       4.50395057      10.00923739       0.00744142      -0.02783004       0.00110441
O        6.86948506       7.14921069      11.38489323       0.01434174      -0.03306603       0.00530922
H        6.86383299       6.21785801      11.04808154       0.01100151      -0.03289341       0.00655606
H        7.48814527       7.11542953      12.12895680       0.00835271      -0.03574610       0.01134126
O        2.90480430       9.93161962       9.87474888       0.00222855       0.00059484      -0.01107070
H        2.38200634       9.13983683       9.63941482       0.00210762      -0.00019189      -0.00832234
H        3.42004085       9.68513848      10.66344884       0.00057851       0.00162519      -0.00591349
O        2.68232572       3.10283605      -0.15749362      -0.00233284       0.00105119      -0.00754373
H        2.68761019       2.18986323       0.15855663       0.00897770       0.00273341      -0.00582580
H        2.06197289       3.09574920      -0.92579784      -0.00412695      -0.00605300      -0.00808383
O       10.75127182       3.39625851       4.46492431      -0.00358248       0.00242175       0.00064947
H       11.71470827       3.25184387       4.34047219      -0.00272039       0.00198161       0.00165945
H       10.46900838       2.49567347       4.78457251      -0.00280312       0.00427592       0.00614501
O        8.09790285       4.15972953       5.63641351      -0.00385761       0.00833721       0.00412426
H        9.01724202       4.10083460       5.34688957      -0.00398806       0.01172213       0.00586337
H        8.02713589       5.06039087       6.03610519      -0.00949653       0.01057691       0.00057333
O        5.26975826       6.44661181       4.10688002       0.00116661       0.00322754      -0.00899627
H        5.00279365       6.83094866       3.24603003       0.00391061       0.00212486      -0.01105396
H        6.15444902       6.10745812       3.89781902       0.00199442       0.00466478      -0.00343753
O        9.13649160       1.62675339       0.97750938      -0.00662830      -0.00021195       0.00133552
H        9.18673807       2.52024727       1.42182877      -0.00193148       0.00111042      -0.00098221
H        8.18181600       1.37913578       0.97864651      -0.00825278       0.00785945      -0.00203852
O        9.49698316      10.45144069      11.08874325      -0.00854880      -0.00739287      -0.00491495
H        8.53070288      10.33955680      11.18439939      -0.01334131       0.00171436      -0.02249964
H        9.57793146      10.54969125      10.11384702       0.00749718      -0.01548405      -0.00376613
O        1.18170513       4.92444381       1.40197932       0.00455472      -0.00411832      -0.00368778
H        1.90482785       4.45436728       0.94944296       0.00315934      -0.00515256      -0.00635035
H        1.59147218       5.57440031       2.00027010       0.00739187      -0.00861876      -0.00107358
O        2.91816721       3.41308614       7.20148405       0.00448193       0.00340579      -0.00552475
H        3.32610152       2.65886696       6.75737991       0.01048387       0.00957775      -0.00811800
H        2.83251863       4.08690110       6.49926422       0.00127553       0.00685325      -0.00266920
O        6.73128664      10.51919026      10.38419924      -0.00247214      -0.01636128       0.04276342
H        6.28725822      10.51428006       9.51156799       0.00826870      -0.01404389       0.03612185
H        6.39031046      11.30337199      10.84195681       0.00283607      -0.00848366       0.03395560
O        0.28712891       2.19915126       1.72671228      -0.00184855      -0.00492758      -0.00546987
H        0.91507581       2.17353551       2.48794213      -0.00400387      -0.00810134      -0.00391449
H        0.27348810       3.14581450       1.50591282       0.00409808      -0.00479406      -0.00568128
O        5.91377437       9.18077005       5.26127163       0.00186072       0.00761622       0.00687416
H        5.03602656       9.30425830       4.82718371      -0.00028554      -0.00228283       0.00734448
H        5.99465408       8.22098975       5.36072373       0.01201530       0.00967912       0.01183457
O       11.52110688       5.43139624       7.53674215       0.00282604      -0.00310297      -0.01776838
H       11.04185516       4.59392939       7.56062327      -0.00885215       0.00078198      -0.00940509
H       11.02607979       5.97174257       8.18006161       0.01625049       0.00429228      -0.01320224
