148
Lattice="11.098737994000935 0.0 0.0 0.0 11.098737994000935 0.0 0.0 0.0 11.098737994000935" Properties=species:S:1:pos:R:3:forces:R:3 energy=-395853.625 stress="-0.0006714709452353418 0.0005135931423865259 -0.0008938683604355901 0.0005135931423865259 -0.0005726969102397561 -0.0001299571231356822 -0.0008938683604355901 -0.0001299571231356822 0.0006641243817284703" pbc="T T T"
Sm       8.81462795       8.37126573       0.91145088      -0.00021279       0.00351647       0.00012204
O        6.80521901       9.01336327       1.46716389      -0.00121021       0.00123572       0.00298703
O        5.47950287       9.22552044       3.21999804       0.00558162      -0.00779858       0.01039445
C        5.17289940      10.72163919       1.37188485      -0.00230962      -0.00172216       0.01543292
C        5.85298228       9.59695940       2.09060490       0.00337702      -0.00306916       0.00462657
H        4.47995617      10.28573756       0.64982467      -0.00273165       0.00053595       0.01275878
H        5.90333801      11.31314859       0.82355861      -0.00532214       0.00425292       0.01915556
H        4.61441175      11.34826874       2.06176969      -0.00432383      -0.00724728       0.01936026
O        0.78011844       8.10559335       8.35363961       0.00292730      -0.01512897      -0.00228512
O        0.84468139       9.86001511       6.97649626       0.01077235      -0.01062977       0.00608385
C        2.91777447       8.96091842       7.70401324       0.00656986      -0.00862947       0.00414498
C        1.40805663       8.97753345       7.69113379       0.00564003      -0.00012665      -0.00709802
H        3.28065572       8.71544011       6.70283490       0.00904962      -0.00673140       0.00387558
H        3.31281727       8.24667175       8.41985730       0.00567994      -0.00772303       0.00361165
H        3.29710569       9.95406971       7.94661694       0.00344615      -0.00706497       0.00488610
O        2.70074220       8.50648264       1.18122711      -0.01937485       0.00679886      -0.00719446
O        2.34572735      10.01548862      -0.41911711      -0.00897169       0.01356930      -0.00445461
C        0.52237430       9.50211515       1.01241151      -0.01850623       0.00636303      -0.01905483
C        1.96914830       9.32345166       0.55167306      -0.01592410       0.00634223      -0.00764734
H        0.29118609       8.86801612       1.87098870      -0.02922386      -0.01414759      -0.03764538
H       -0.10771709       9.29791163       0.13543424      -0.01680349       0.03812383      -0.02669912
H        0.36670097      10.54707428       1.28460258      -0.01170226      -0.00102752       0.01102820
O        1.59899830       4.44574632       1.08329410       0.00859672      -0.00552010       0.00605094
H        1.64059042       5.18967919       1.72365268       0.00366904      -0.00637720       0.00650978
H        1.95656146       3.64941319       1.54521714       0.00780839      -0.00560063       0.00694878
O        2.06281380       5.82625140       7.90125084      -0.00290751      -0.01601440       0.00259346
H        1.55631631       6.61697169       8.21507337      -0.00152244      -0.01929980       0.00218725
H        1.68897512       5.03497562       8.31471381       0.00685360      -0.01925705       0.01270100
O        5.06840749      11.10240729       5.10902882      -0.00119118      -0.00319650      -0.00083827
H        5.11666400      10.34247819       4.48934820      -0.00063244      -0.00301357       0.00115824
H        5.78848362      10.99057408       5.75920650      -0.00066690      -0.00598560       0.00170739
O       10.29020824       4.16466226       7.30823473       0.00013403      -0.00355276       0.00941338
H        9.84910280       3.44590727       7.78733937      -0.00481893      -0.00432629       0.00350844
H       11.09946380       3.74505433       6.98022141       0.00056384      -0.00325152       0.01157693
O        5.23072050       0.76582088       8.48778432      -0.00610473       0.00224842      -0.00779722
H        4.92992637       1.69157041       8.41477659      -0.00842316       0.00123517      -0.01234054
H        6.02597739       0.70782411       7.92042175      -0.00239631       0.00347121      -0.00311025
O        4.47756919       5.56818325       4.25612624       0.00126556      -0.00761874      -0.00136026
H        4.40774827       4.56460294       4.28506349       0.00403652      -0.00798803       0.00518988
H        3.55530445       5.85431344       4.34716706       0.00065005      -0.00970640      -0.00273817
O        2.86802813       2.28045880       2.03363296       0.00696365      -0.00464302       0.00186127
H        3.15953464       1.98706714       1.14090481       0.01747396      -0.00369040       0.00532727
H        2.40937941       1.50475725       2.42555229       0.01155240      -0.00753649       0.00043618
O        9.16599116       1.80974585       8.82663737      -0.00091179       0.00248191      -0.01647252
H        9.10481316       0.97253099       8.34662724      -0.00726011       0.01100759      -0.02714662
H        9.75970512       1.58253817       9.55839791       0.00536477      -0.00992231      -0.02498585
O        7.26966442       6.70966166       0.14843623       0.00165471       0.00702618      -0.00630698
H        7.49395288       6.33724633      -0.76055624      -0.00058150       0.00112628      -0.00343674
H        6.36006197       7.10164732       0.05424193       0.00119857       0.00540753      -0.00376661
O        4.65636033       3.42195629       8.69270168      -0.00484872       0.00568427      -0.01425587
H        4.63122937       4.14516805       8.01811951      -0.00833039       0.00760078      -0.01242612
H        4.36253369       3.85508673       9.52825582      -0.00447543       0.00315937      -0.01321521
O        8.51212177       9.69043076      10.16361462      -0.00306857       0.00617909      -0.00175150
H        8.97062215       9.85837112       9.29803396      -0.00259004       0.00367487      -0.00225839
H        7.53556527       9.62470521       9.89690044      -0.00261185       0.00428040      -0.00234430
O        8.25824416       7.79838431       6.69692870      -0.00533353       0.00610743      -0.00012414
H        7.68941686       7.64916494       5.92084407      -0.00696291       0.00314643       0.00165485
H        7.92938972       7.20636710       7.39486103      -0.00098298       0.00373228       0.00026169
O        9.97943337       4.35328707       0.89792197       0.00519893       0.01359561      -0.00016197
H       10.95507786       4.23673732       0.85924520       0.00433795       0.00806112       0.00338238
H        9.67118845       3.63933045       1.49771258      -0.00136542       0.01302970      -0.00367621
O        7.25276755       3.54247368       8.17690099      -0.00750941       0.00169009      -0.00636530
H        6.34445533       3.42888784       8.54509999      -0.00990673       0.00033242      -0.01086525
H        7.82909287       2.85154652       8.56683147      -0.00789622       0.00017446      -0.00889507
O        7.96035994       5.99240056       8.84949044       0.00437340      -0.00047918      -0.00641112
H        7.73014268       5.06676248       8.56737294      -0.00150290      -0.00085893      -0.00123261
H        8.92042858       6.02319859       8.94895838       0.00430646      -0.00784867      -0.00414231
O       10.64264401       1.55437135       4.63744807      -0.00149068      -0.00336248      -0.02660963
H       11.24582611       2.17362930       5.09198161      -0.00764720      -0.00635032      -0.01495682
H       11.22646486       0.87310874       4.27130533       0.00446358       0.00083026      -0.02675790
O        9.27522028       2.26490180       2.51987704      -0.00422168       0.00734445      -0.01661101
H        9.82982206       2.11093794       3.33861503      -0.00125482      -0.00045713      -0.01953898
H        9.50930066       1.53371068       1.93896448      -0.00490595       0.01464218      -0.02563829
O       -0.92741070       7.23693173      10.16536730       0.00233316       0.00369188       0.00081375
H       -0.37883163       6.51317775      10.48871280       0.00260842       0.00301799       0.00558318
H       -0.39904691       7.65880387       9.43579865       0.00231490      -0.00231163       0.00108415
O        4.72557171       5.58465115       7.15516315      -0.00632503       0.01107395      -0.00159632
H        3.83034138       5.86044531       7.42261709      -0.00843639       0.00194659       0.00041513
H        4.70920075       5.55564249       6.18488432      -0.00742646       0.01152571      -0.00186311
O        0.19917054       0.44098975       9.75901716       0.00993708       0.04120041       0.00256436
H        0.64824982       1.16729841       9.28857092       0.01800837       0.04323180       0.01152916
H        0.92533241      -0.14458750      10.04544396       0.00170472       0.03091808      -0.00072818
O        2.53071507       0.56795642       5.79421027       0.00237004      -0.00481030       0.00112948
H        2.00240369      -0.08491689       6.31391776       0.00235336      -0.00704959       0.00522178
H        3.47917264       0.30224559       5.76386901       0.00122424      -0.00026482       0.00173651
O        9.17569870       9.64041200       2.85458375      -0.00293690      -0.00717208       0.00813329
H        8.48865965      10.26896300       3.19180755       0.00095930      -0.00257989       0.00645262
H        9.73978471       9.33602686       3.61821532      -0.00069380      -0.00645667       0.00694133
O        1.46099541       6.70338677       2.57569848      -0.00560962       0.00105011       0.00746003
H        1.97920877       7.42799072       2.11426187      -0.01320834       0.00213645       0.00160503
H        1.67229554       6.72832748       3.52180705      -0.00236358       0.00506024       0.00638826
O        9.95837430       6.66550725       1.96389925      -0.00807162       0.00439792       0.01182871
H       10.88750588       6.72924887       2.30442453      -0.00891961       0.00439889       0.01370511
H        9.88649889       5.71217660       1.60482726      -0.00104763       0.00631276       0.00319093
O        1.79200320       5.74852843       5.16541736       0.00478573      -0.01166256       0.00308478
H        1.88849217       5.88590107       6.13370389       0.00334829      -0.01834022       0.00347933
H        0.80997315       5.71608901       5.03095887       0.00484404      -0.01422006       0.00214007
O        3.96207276       4.81351840      -0.22030686       0.00401213      -0.00099941      -0.00408092
H        4.57628935       4.68455627       0.53588889       0.00635787      -0.00388204      -0.00692555
H        3.05738456       4.68682691       0.14575754       0.00544746      -0.00031789      -0.00139948
O        9.29098330      10.05425708       7.63470300       0.00557965      -0.00168300       0.00041894
H        8.90286839       9.21713807       7.25756801       0.00443638       0.00058085      -0.00143695
H       10.25603519      10.02533994       7.42834440       0.00771183      -0.00231437      -0.00122901
O        1.76869418      11.24277824       3.33709879      -0.00754856      -0.00471222       0.00397128
H        2.13183162      11.36807434       4.26099062      -0.00373841      -0.00591369       0.00316096
H        2.05127054      10.36236407       3.06830687      -0.02397892      -0.01032299       0.00940693
O        1.52169814       3.05002121       5.96176669      -0.00551572      -0.01304128       0.00720446
H        1.90228927       3.82917701       5.52127007       0.00102864      -0.01799315       0.00564764
H        2.12308380       2.28703216       5.81928827      -0.01084851      -0.01935477       0.01035041
O        6.89765869       2.90434799       5.50055818       0.00388670      -0.00393387      -0.00720549
H        7.34772035       3.56869751       4.94203535       0.00621591      -0.00245725      -0.00460593
H        6.99093629       3.23862570       6.41830713       0.00210167      -0.00566655      -0.00617068
O        8.00485381       4.81092096       3.76449933      -0.00305608      -0.00023316       0.00627834
H        7.60018600       5.70077243       3.88450574       0.00309561       0.00178866       0.01085115
H        7.61041788       4.48051003       2.94537677      -0.00731354       0.00719169       0.00508443
O        1.53783185       2.75909637       8.81443937       0.02045320       0.03917327       0.00842685
H        1.79608456       2.74402168       7.88082385       0.01088604       0.02093703       0.00591934
H        2.31406497       2.44881609       9.31429969       0.01947544       0.03069806       0.00555159
O        7.25168218      11.55659109       6.65827225       0.00153443      -0.00234649      -0.00027283
H        8.07908991      11.06224367       6.82568719       0.00035787      -0.00474042      -0.00388877
H        7.44978170      12.35794898       6.13777763       0.00151072      -0.00397715      -0.00344333
O       -0.33386691       8.57591660       4.67021039      -0.00118231      -0.00707527       0.00607693
H       -0.00484661       9.04384267       5.45746381       0.00359422      -0.00273496       0.00635170
H       -0.68098340       7.72222484       4.98892808      -0.00137717      -0.00263686       0.01159294
O        6.09138708       9.38902842       9.31560214      -0.00209486       0.00194157      -0.00210040
H        5.51047933       8.72504309       9.72928002      -0.00217675       0.00204594      -0.00041858
H        5.57019277      10.19757727       9.18168350      -0.00386721      -0.00067738      -0.00701125
O       10.23580171       5.77691707       5.04597806       0.00459012      -0.01046976       0.00807587
H       10.00475408       5.31746620       5.87702353       0.01073816      -0.01762754       0.00652867
H        9.61932269       5.41272886       4.38385515       0.00328728      -0.00907643       0.00810480
O        3.34284308       1.42667819      -0.51714476       0.01380432       0.00441429       0.00078683
H        2.95570048       0.52450105      -0.48957261       0.00536786       0.00845480      -0.00011274
H        4.21653780       1.28076054      -0.90614566       0.01075837      -0.00344991      -0.00519649
O        5.83847455       4.86894136       1.79218637       0.00916452      -0.00391042       0.00168982
H        5.39231852       5.32943623       2.52474445       0.00435585      -0.00629275       0.00009825
H        6.37760006       5.53536662       1.32893185       0.00506578       0.00064354       0.00193746
O        4.74334599       7.45082643      -0.30927685      -0.00427201       0.00524626       0.00653001
H        4.37172378       6.55454683      -0.45625408      -0.00629699       0.00651695      -0.00093625
H        4.08569906       7.90039917       0.27084615      -0.01299199       0.00782089      -0.00304142
O        7.38780138       0.43839523       3.36035335       0.00331594       0.00009423       0.00369276
H        6.68055035       0.54471173       4.01362683       0.00662111       0.00723732       0.00342290
H        7.84448077       1.29024555       3.26315782       0.00479900       0.00041806      -0.00642145
O        6.75405499       7.16235855       4.34806077      -0.00277685      -0.00640212       0.01264064
H        5.92890023       6.66653112       4.50190225      -0.00447021      -0.00700097       0.00597729
H        6.42543700       7.95598222       3.85454899       0.00157138      -0.00656508       0.01011864
O        4.20327068       3.00207136       4.36581654       0.00888275      -0.00479969       0.00914279
H        5.04439365       2.61955466       4.66341952       0.01065296      -0.00083622       0.00979855
H        3.97498123       2.63823154       3.48967235       0.00852090      -0.00795703       0.01043948
