148
Lattice="13.172832394925168 0.0 0.0 0.0 13.172832394925168 0.0 0.0 0.0 13.172832394925168" Properties=species:S:1:pos:R:3:forces:R:3 energy=-478787.65625 stress="-0.0010887173702940345 0.0005551696813199669 -0.0008202494645956904 0.0005551696813199669 -0.00047819141764193773 -0.00012967090151505545 -0.0008202494645956904 -0.00012967090151505545 -0.0013796661514788866" pbc="T T T"
Sm      11.10778415      12.72198773       1.11424039       0.00869458       0.00515883      -0.00585013
O        3.96076539       7.49099771       6.78862074       0.00050354      -0.01744920       0.00888985
O        6.05319218       8.69699345       5.81410053      -0.00771326      -0.00148571       0.01002431
O        6.35531396       6.60365942       7.31854733       0.00649393       0.00155473       0.01029468
O        5.51771421       8.85586466       8.35560400      -0.01102470      -0.00476432       0.00935042
Mn       5.46605176       7.91132627       7.06504639      -0.00318768      -0.00574521       0.00949509
O        2.29906487       5.80349963       2.49182199      -0.01003909      -0.01154375      -0.00204015
O        3.65543986       3.84963860       1.45558780      -0.01689136      -0.00900096      -0.01302838
O        1.40218155       3.36525572       2.72751596      -0.00386190      -0.01237023       0.01087778
O        3.54424159       4.13772578       4.04537619       0.00814164      -0.00683567      -0.01302934
Mn       2.71310125       4.27780956       2.69152217      -0.00593242      -0.01042830      -0.00449182
O        1.67535631      11.50811222       1.28227180       0.00528479      -0.00202453      -0.00615633
O       -0.21743761      13.47893394       0.99414924       0.00982343       0.00212204      -0.00978559
O        0.82241675      12.87144799       3.45461163       0.01229817       0.00990349      -0.01089966
O       -0.95949335      11.33782259       2.07883920       0.00689310       0.00837237       0.00130962
Mn       0.52940625      12.27288405       2.03372347       0.00595152       0.00646949      -0.00420648
C       12.54789454      10.96624397      11.23961767       0.00507469       0.01616267       0.02265859
C       11.76868749      10.02578926      11.90433437       0.00599156       0.01104857       0.01624924
C       12.04926162      12.24724029      11.01621916      -0.00025408       0.01206608       0.01688245
C       10.48174915      10.35074607      12.32867283      -0.00096211       0.00435410       0.00425162
C       10.75723124      12.57959612      11.42764443      -0.00724895       0.00479569       0.00462401
C        9.96053513      11.62153721      12.07271661      -0.00628360      -0.00031313      -0.00191274
H       13.53148912      10.69447854      10.87828085       0.01096921       0.02191318       0.03250946
H       12.15987374       9.03046136      12.06819269       0.01064960       0.01416215       0.02047701
H       12.65655763      12.97352190      10.49151824      -0.00047807       0.01578230       0.02238737
H        9.86279489       9.60502126      12.81158361       0.00004852       0.00101423       0.00016204
H       10.34911221      13.55591861      11.19118910      -0.01075818       0.00159095       0.00060692
H        8.92740235      11.83577759      12.33017522      -0.01029551      -0.00635429      -0.01096853
C        8.99190303       8.38056673       6.88295644      -0.00277264       0.00710341       0.00289221
C        9.81816763       8.05020007       7.94864488      -0.00225597       0.00015925       0.01358802
C        8.89108667       9.70131201       6.46113260      -0.00258470      -0.00158439       0.01078610
C       10.54347429       9.04052636       8.59768909      -0.01175904       0.01055145       0.01325947
C        9.62410580      10.69133959       7.10582558      -0.01260222       0.00861353       0.01062399
C       10.44724206      10.36208618       8.17557522      -0.01171932       0.00230792       0.02092934
H        8.40131506       7.61060790       6.40874070       0.00510724       0.00096367       0.00320920
H        9.88275905       7.01884249       8.27427747      -0.00201498       0.00593999       0.00849763
H        8.21139946       9.94629416       5.65523455      -0.00131550       0.00225416       0.00529470
H       11.20365873       8.78662022       9.41655993      -0.01369614       0.00697831       0.01893629
H        9.54838544      11.72458012       6.78584428      -0.01341087       0.00332607       0.01548636
H       11.03332663      11.12646504       8.66821400      -0.02006313       0.00816004       0.02108532
C        3.14177203      10.97326897       4.45667013       0.00628649       0.00273374      -0.01038687
C        2.31808269       9.85642430       4.38026694       0.00139678       0.00357567      -0.00895715
C        4.44069561      10.90844311       3.97191542       0.00562757      -0.00452797      -0.00828271
C        2.79136689       8.67345022       3.82844841      -0.00077882       0.00230095      -0.00563439
C        4.91493559       9.72615012       3.41640645       0.00346652      -0.00628216      -0.00414153
C        4.08986909       8.61048358       3.34225605      -0.00153005      -0.00475809      -0.00302418
H        2.76846691      11.89198306       4.88612501       0.00796553       0.00393640      -0.01366864
H        1.30530914       9.91045076       4.75564092       0.00180189       0.00902728      -0.01048156
H        5.08424023      11.77765477       4.04692295       0.00910961      -0.00588905      -0.00985045
H        2.16406664       7.79400825       3.76453452      -0.00472909       0.00374326      -0.00519857
H        5.93447566       9.66155761       3.05708880       0.00323150      -0.01168559      -0.00158938
H        4.45152327       7.68629470       2.91497104      -0.00314498      -0.00615329      -0.00030218
C        9.91800790       1.96072341       1.84344106       0.01601048       0.00339630       0.00092760
C       10.93517375       1.76054565       2.78467931       0.01096953       0.01099488       0.00156413
C        8.80007992       1.11819537       1.82268509       0.02197748      -0.00744228      -0.01062085
C       10.83768269       0.69654761       3.68706845       0.01880082       0.00757137       0.00188956
C        8.71024174       0.05497849       2.72450760       0.03069173      -0.01289203      -0.01217054
C        9.73111666      -0.15769544       3.65370436       0.02458594      -0.00277244      -0.00911441
H        9.96535808       2.79744417       1.15644274       0.00975816       0.00704023       0.00307510
H       11.80579836       2.40674395       2.81347714       0.00724691       0.01793572       0.00851916
H        7.99076081       1.31886808       1.13288673       0.02620181      -0.01419477      -0.01385035
H       11.63197618       0.53479254       4.40304387       0.01526636       0.01381717       0.00278205
H        7.82746904      -0.57298181       2.73537206       0.03628322      -0.02287446      -0.02199827
H        9.65580759      -0.97261312       4.36311274       0.03243718      -0.00639650      -0.01058996
C        8.16986550       7.29555657       3.44244700       0.00391785      -0.00186965       0.00020307
C        8.37525637       7.21585246       2.07017956       0.00131112      -0.00478306       0.00090262
C        7.15557531       6.55145043       4.03527824       0.00283083      -0.00093164       0.00293463
C        7.55907861       6.40035330       1.29343719       0.00114460      -0.00414400       0.00239241
C        6.32700637       5.75266532       3.25734152       0.00322580      -0.00132409       0.00454158
C        6.52616183       5.67913973       1.88423732       0.00049056      -0.00408387       0.00507269
H        8.80417735       7.92801089       4.05129145       0.00425896      -0.00165892      -0.00106364
H        9.17610219       7.78260252       1.60840973       0.00180124      -0.00538848      -0.00115544
H        7.00532343       6.57805304       5.10548419       0.00374623       0.00259875       0.00248435
H        7.72804015       6.33257123       0.22660028      -0.00122571      -0.00595858       0.00260513
H        5.51759570       5.19248044       3.71573828       0.00295568      -0.00099812       0.00631708
H        5.86191468       5.05943617       1.29552447       0.00096504      -0.00415467       0.00558281
C        6.30681850       1.76328590      12.28269866      -0.01276043       0.00086854       0.00083914
C        7.57970304       1.52948071      11.77385330       0.00710222      -0.00307715      -0.01623780
C        5.84048590       3.06146347      12.43404464       0.00676468      -0.00346309      -0.00494450
C        8.40632312       2.59934307      11.44806085      -0.01368219       0.00172654      -0.01600194
C        6.65132026       4.12711130      12.06206645      -0.01696804       0.00161386      -0.00228313
C        7.93844124       3.90139410      11.59167708       0.00486627      -0.00249374      -0.02032810
H        5.67025670       0.93111595      12.55132127       0.00352164      -0.00061820      -0.00018416
H        7.91460007       0.50915526      11.62825886      -0.00498831       0.00166727      -0.01302628
H        4.86001211       3.23964899      12.86061257      -0.00165808      -0.00177263       0.00470880
H        9.40730063       2.43021206      11.06882627      -0.00767374       0.00031867      -0.02653521
H        6.27285968       5.13780690      12.14475740      -0.00261175      -0.00381981      -0.00452722
H        8.57533046       4.73622666      11.32476989      -0.01172106      -0.00145355      -0.02004632
C        7.95564168       2.42887568       5.85447751       0.00999360      -0.01176584       0.00314697
C        8.20827875       3.26418398       4.77528639       0.00347091      -0.01348323       0.00525014
C        8.75149454       2.50499374       6.99230383       0.01321194      -0.01413026       0.00224340
C        9.25484297       4.17780601       4.83334366       0.00518381      -0.01091020      -0.00125124
C        9.78311108       3.43267013       7.05951045       0.01618773      -0.01310536      -0.00475168
C       10.03474565       4.27111487       5.97881653       0.01074788      -0.01570384      -0.00302505
H        7.12090256       1.74037812       5.82222841       0.01009353      -0.01408537       0.00734769
H        7.57553739       3.22605715       3.89843112       0.00057228      -0.01173936       0.00667551
H        8.54497695       1.86150588       7.83824924       0.01705007      -0.01237209       0.00201805
H        9.43820091       4.83704923       3.99574666       0.00041534      -0.01165660       0.00014544
H       10.37988817       3.51456985       7.95981341       0.01985902      -0.01546838      -0.00649530
H       10.82554229       5.00849492       6.03645257       0.01310073      -0.01615797      -0.00834787
C        3.08454190       8.30230141       0.10593720      -0.01431315      -0.00256404      -0.00227636
C        3.74462629       7.13038819      -0.24140162      -0.00693491       0.00061921      -0.01408188
C        1.69557064       8.34146069       0.10838742      -0.01150353      -0.01333828       0.00790292
C        3.02150180       5.99853826      -0.59428023      -0.00531326       0.00053489      -0.01416831
C        0.97345202       7.20314544      -0.22920259      -0.00987689      -0.01331349       0.00753822
C        1.63281745       6.03352164      -0.58329027      -0.00247300      -0.01010063      -0.00459047
H        3.64689901       9.17607852       0.40669770      -0.01578540      -0.00200808      -0.00289766
H        4.82636147       7.09704649      -0.20264632      -0.00809345       0.00845739      -0.02287676
H        1.19357888       9.25224034       0.40950185      -0.01636504      -0.01677105       0.01745898
H        3.52980953       5.07466145      -0.83031306       0.00049776       0.00432089      -0.02587744
H       -0.10885265       7.21010051      -0.17887175      -0.00797534      -0.02116586       0.01399299
H        1.06961565       5.13722180      -0.80836780      -0.00022804      -0.01051363      -0.00550603
C        5.92696421       9.35332338      11.25897393       0.02328601       0.01092753       0.00671400
C        6.90039060       9.26696045      12.24339422       0.00799146       0.00931634       0.01241207
C        5.01893944      10.40458961      11.28141840       0.01279886       0.01034640       0.00361164
C        6.96978570      10.22790942      13.24641104      -0.00002222      -0.00097467       0.02381982
C        5.09270876      11.37498077      12.27124270       0.00348024      -0.00102133       0.01675858
C        6.07317834      11.29034779      13.25464325      -0.01069019      -0.00187872       0.02199686
H        5.86245201       8.61526792      10.47105113       0.03035721       0.01961848      -0.00253269
H        7.59603494       8.43741396      12.23412690       0.01373009       0.01018350       0.01474260
H        4.23608587      10.44627581      10.53870185       0.02468124       0.01210828      -0.00296636
H        7.70937165      10.13375669      14.03339827      -0.00910027      -0.00188341       0.02739122
H        4.36695528      12.17818237      12.29476668      -0.00374703      -0.00365117       0.01600703
H        6.11501684      12.03486420      14.04026242      -0.01964628      -0.01094617       0.03081608
C        2.58327801       9.35390089       8.54458785      -0.01059210       0.01194325      -0.00347323
C        1.38681871       8.80140378       8.10786493      -0.00661108      -0.00024793       0.00217303
C        2.84595214      10.70006995       8.32153803      -0.00511996      -0.00097270       0.00142208
C        0.44831405       9.59661245       7.46624637      -0.01379217       0.01407747      -0.00433077
C        1.89325897      11.50587643       7.70991989      -0.01161730       0.01265676      -0.00570130
C        0.68981806      10.95459143       7.28738193      -0.00826278       0.00095426      -0.00034261
H        3.33268688       8.73492406       9.01684992      -0.00855693       0.00503697      -0.00091214
H        1.21166615       7.74022473       8.23022824      -0.01066358       0.00961795       0.00022563
H        3.81584323      11.09975560       8.58614318      -0.01002264       0.00621647      -0.00209186
H       -0.46349813       9.15845821       7.08665635      -0.01002902       0.00733571       0.00099758
H        2.10595966      12.55201239       7.52424954      -0.00863123       0.00382936      -0.00231889
H       -0.04108906      11.56899377       6.77629656      -0.00989929       0.00778990      -0.00219741
C        5.62290758       1.69241460       8.92611307      -0.01108125       0.00646008      -0.01131697
C        4.31042915       1.23974796       8.86175735      -0.01229275       0.00690049      -0.00263079
C        5.89857393       3.04649248       8.78220738      -0.01245822       0.00634247      -0.02094009
C        3.27714959       2.14461545       8.64691508      -0.01222770       0.00475487      -0.00320856
C        4.86811847       3.95130688       8.55960962      -0.01247220       0.00418022      -0.02093382
C        3.55655578       3.49785989       8.49170435      -0.01370941       0.00453180      -0.01258706
H        6.42640064       0.98745123       9.10148290      -0.01091065       0.00797582      -0.01130047
H        4.09439279       0.18576965       8.98235563      -0.01139506       0.00731632       0.00493279
H        6.91625556       3.40537985       8.84287252      -0.01156159       0.00610252      -0.02864043
H        2.25394803       1.79358470       8.59338203      -0.01288660       0.00479733       0.00345530
H        5.10001292       4.99936542       8.41709974      -0.01348958       0.00371581      -0.02750221
H        2.75638205       4.20125781       8.30241110      -0.01370442       0.00302811      -0.01353934
