136
Lattice="12.920704196483578 0.0 0.0 0.0 12.920704196483578 0.0 0.0 0.0 12.920704196483578" Properties=species:S:1:pos:R:3:forces:R:3 energy=-942830.6875 stress="0.00022140491637401283 -0.00034200471418444067 -9.072976172319613e-05 -0.00034200471418444067 -0.0013590160524472594 -0.00013366964412853122 -9.072976172319613e-05 -0.00013366964412853122 0.0008641269523650408" pbc="T T T"
Sm      13.41306075      10.77839396      -1.54842010      -0.00195038      -0.01435721      -0.02712789
I        1.20364940      11.85517062       2.15573876      -0.00421584      -0.00455761      -0.02519929
O        0.97584288      13.57792567       2.60184976       0.02823228      -0.00266457      -0.01639915
O       -0.01239128       9.12987572      -1.09485137      -0.00749958      -0.00514066      -0.00266859
O        0.94934447      11.90268117       0.28535850      -0.03182607      -0.02049994      -0.02387094
O        2.95406924      11.45356193       2.24934611      -0.00232744       0.00733946      -0.02442015
I        1.53789028      11.40959486       7.38635688      -0.01043064       0.02760618      -0.00165093
O        0.91561632      11.15731104       9.08199370       0.01972911      -0.00239589       0.00516197
O        0.15319498      11.49678799       6.27128278      -0.02550626       0.03747940       0.01747382
O        2.47098311      12.92725530       7.40895804      -0.00660881       0.02449441       0.01766995
O        2.56933348      10.00362871       7.02518189      -0.00924039       0.03733474      -0.02914548
I        9.72380848      11.11118710      10.32766480      -0.02973023      -0.00279244      -0.00666139
O        9.55404491      11.46845605       8.59293286      -0.03335509       0.00299121       0.00243717
O       11.33424643      11.73501422      10.88531085      -0.01541131      -0.02314717      -0.00756007
O        8.48422892      11.94074420      11.29667247      -0.01716930       0.00800428       0.00266367
O        9.69372400       9.35850111      10.62246374      -0.04320378      -0.00624758      -0.00731592
C       11.10977509       2.53602880       4.28220218       0.00627160      -0.00337657       0.00239212
C       10.92527213       3.95571028       3.75596770       0.00102085      -0.00446612       0.00247656
C        9.80889750       1.90878397       4.77512138       0.00942254      -0.00731955       0.00459477
C       12.22992812       4.63739760       3.35601794      -0.00182915       0.00004160       0.00268019
C        9.98405810       0.48065947       5.27569460       0.01478411      -0.00790012       0.00022569
C       12.01902181       6.03566870       2.78904963      -0.00418395      -0.00281942      -0.00404210
H       11.55705270       1.90887910       3.50485041       0.00677083      -0.00174204       0.00120810
H       11.83540197       2.54073183       5.10243394       0.00858963       0.00045132       0.00038022
H       10.42159308       4.56553412       4.51655782      -0.00150031      -0.00479047       0.00086179
H       10.25165243       3.93713200       2.89001273       0.00253783      -0.00713302       0.00155181
H        9.39216579       2.53206929       5.57535987       0.01058225      -0.00971127       0.00691226
H        9.06951262       1.92974462       3.96547073       0.00672895      -0.00586496       0.00688088
H       12.88381041       4.69631125       4.23192623      -0.00271882       0.00816820       0.00296837
H       12.75340338       4.00979945       2.62932296       0.00374164       0.00227073       0.00499529
H       10.32241907      -0.17396728       4.47047625       0.01604219      -0.00441018      -0.00221416
H        9.05319035       0.07218723       5.67106811       0.01600994      -0.00944471       0.00142280
H       10.73224132       0.42104084       6.06804483       0.01620090      -0.00803982      -0.00110023
H       11.38975523       6.00963582       1.89717956       0.00094680      -0.00634331      -0.00752051
H       11.52936312       6.68481465       3.51818578      -0.00711545       0.00198523      -0.00933009
H       12.96180079       6.50747144       2.51091558      -0.00200388      -0.00718972      -0.00348605
C        7.21631367       8.80793997       1.92239594      -0.00310977       0.00312190       0.00200337
C        6.60452059       7.76349958       2.84768414      -0.00301202       0.00130393       0.00003731
C        7.27612141      10.20710169       2.52346153      -0.00446507       0.00206208       0.00441599
C        6.53672487       6.37755319       2.21514944      -0.00150551       0.00206713      -0.00148368
C        7.95469090      11.20121738       1.59165111      -0.00423640       0.00377038       0.00663257
C        5.93635638       5.32070832       3.13215922      -0.00092432       0.00048676      -0.00300172
H        8.22588973       8.49161778       1.63483827      -0.00266382       0.00441332       0.00232772
H        6.63848534       8.84848008       0.99278933      -0.00216213       0.00442566       0.00148433
H        5.59687842       8.08261679       3.13618967      -0.00361291      -0.00034845      -0.00046479
H        7.18644786       7.71291156       3.77593808      -0.00389710       0.00103780       0.00058380
H        6.26136863      10.54414385       2.75116126      -0.00499773       0.00099252       0.00373068
H        7.80886691      10.16533538       3.47956686      -0.00537467       0.00073754       0.00483388
H        5.95049730       6.44008906       1.29349527      -0.00110412       0.00263328      -0.00163382
H        7.54351637       6.07183084       1.91118762      -0.00124007       0.00316358      -0.00152221
H        8.97994203      10.90012425       1.36784552      -0.00346996       0.00525578       0.00778398
H        7.98918406      12.20154122       2.02538933      -0.00589942       0.00317688       0.00814286
H        7.43439480      11.26869706       0.63587811      -0.00296038       0.00438104       0.00602096
H        6.53081858       5.20249888       4.03948733      -0.00106789      -0.00011525      -0.00302759
H        4.92556022       5.59661346       3.43977352      -0.00119837      -0.00091463      -0.00294344
H        5.88211465       4.34663997       2.64299753       0.00010370       0.00113787      -0.00447199
C        6.31659921       2.69178490       9.73509131      -0.00277198       0.00202781      -0.00463069
C        7.54042434       1.78351543       9.68875731      -0.00168754       0.00349653      -0.00624902
C        4.98251848       1.95643176       9.69501429      -0.00119787      -0.00100827      -0.00562687
C        8.84002015       2.58103353       9.67188585      -0.00188485       0.00348419      -0.00426145
C        3.78747640       2.89094992       9.82360638      -0.00421968      -0.00494650      -0.00596014
C       10.10637317       1.74415658       9.74572262      -0.00146294       0.00371453      -0.00601345
H        6.36405028       3.29793462      10.64714979      -0.00414160       0.00045787      -0.00356969
H        6.35793948       3.40435395       8.90095902      -0.00411874       0.00369760      -0.00340050
H        7.49513626       1.13325267       8.80872963      -0.00098539       0.00511794      -0.00753990
H        7.53532455       1.11250436      10.55184194      -0.00152953       0.00202492      -0.00773039
H        4.90071745       1.39269153       8.76266057       0.00113285      -0.00032750      -0.00629550
H        4.95547029       1.21376198      10.49812749       0.00040868      -0.00154281      -0.00608218
H        8.86138822       3.20100390       8.76816152      -0.00260961       0.00550920      -0.00283656
H        8.82792405       3.27773265      10.51159508      -0.00098879       0.00106573      -0.00224504
H        3.80849013       3.43110471      10.77302408      -0.00694250      -0.00537002      -0.00572224
H        2.84781842       2.34104405       9.76384280      -0.00231430      -0.00830130      -0.00711500
H        3.78556937       3.63558507       9.02428152      -0.00633254      -0.00515367      -0.00605294
H       10.15643694       1.20428623      10.69129208      -0.00166904       0.00122918      -0.00742450
H       10.15119006       1.00974946       8.94100700      -0.00205773       0.00571835      -0.00752127
H       10.99877155       2.36936329       9.68255794      -0.00163123       0.00422817      -0.00316532
C        9.55211455       6.45003376      11.04055543       0.00254269      -0.00185823       0.00177831
C        8.14792719       5.86567124      11.02791639       0.00074568       0.00208163       0.00130013
C       10.67160592       5.42875915      10.88716583      -0.00098116      -0.00639325       0.00383096
C        7.04872226       6.91043814      11.17582361       0.00188673       0.00346506       0.00024661
C       12.04739349       6.07881278      10.92526783       0.00118959      -0.01123676      -0.00090561
C        5.65537149       6.29692742      11.15021911       0.00123471       0.00471903       0.00035544
H        9.63728323       7.18623531      10.23869216       0.00527087      -0.00337029       0.00069770
H        9.70603133       7.02647147      11.95888034       0.00341716      -0.00051342       0.00070351
H        8.04415289       5.12155932      11.82873750      -0.00101639       0.00241421       0.00119534
H        7.98806505       5.31980610      10.09201588       0.00030756       0.00247739       0.00113589
H       10.59398219       4.66831606      11.67268380      -0.00084284      -0.00306040       0.00717175
H       10.54182671       4.89395292       9.94106603      -0.00386811      -0.00844374       0.00549081
H        7.19928617       7.46338552      12.10689936       0.00212702       0.00476740      -0.00062314
H        7.14847589       7.65103846      10.37669732       0.00208641       0.00219795      -0.00064218
H       12.14126380       6.83589605      10.14539250       0.00123594      -0.01384261      -0.00327431
H       12.84312167       5.34378980      10.78673695      -0.00136702      -0.01402247      -0.00107767
H       12.21819921       6.60566085      11.86440806       0.00453602      -0.01085977      -0.00171193
H        5.48488681       5.74715048      10.22282263       0.00070710       0.00478561       0.00055656
H        5.52574496       5.58398539      11.96824499       0.00002205       0.00511591       0.00055517
H        4.87206555       7.05092740      11.23673975       0.00219378       0.00579628       0.00005372
C        9.99578435       6.99350837       6.93233539      -0.00220919      -0.00014055       0.00027120
C        8.48260754       7.10254387       7.05519241      -0.00206876       0.00159001       0.00110649
C       10.71153048       8.31097678       7.19323208       0.00092143      -0.00231242       0.00500388
C        7.76021490       5.77797257       6.85006339      -0.00381313       0.00312191      -0.00255540
C       12.22153245       8.20865342       7.06119322       0.00040954      -0.00634439       0.00181606
C        6.24786414       5.90201848       6.96533046      -0.00379366       0.00479054      -0.00300159
H       10.36184938       6.24011889       7.64082781      -0.00389408      -0.00477940      -0.00367105
H       10.25589566       6.62121808       5.93377959      -0.00367516       0.00280558      -0.00130749
H        8.11092519       7.83724797       6.33161264      -0.00165820       0.00412142       0.00350717
H        8.23192361       7.50458980       8.04324738      -0.00093666      -0.00114243       0.00237569
H       10.33375989       9.07763631       6.50956076       0.00183599       0.00162593       0.00910524
H       10.45304789       8.65956939       8.19663152       0.00437626      -0.00403659       0.00658709
H        8.02896244       5.36763660       5.87045582      -0.00407272       0.00501978      -0.00337595
H        8.12763142       5.05443384       7.58507161      -0.00534978       0.00078133      -0.00407466
H       12.63404924       7.45598381       7.73532601      -0.00008492      -0.00576733       0.00280811
H       12.68575117       9.15955447       7.30566947       0.00513753      -0.00760490      -0.00171196
H       12.52513381       7.95395458       6.04398462      -0.00253326      -0.01110503       0.00216848
H        5.96604675       6.28538208       7.94819873      -0.00378878       0.00354514      -0.00254196
H        5.85429993       6.59721689       6.22122667      -0.00266089       0.00633332      -0.00209564
H        5.74794208       4.94221392       6.82469892      -0.00491757       0.00562438      -0.00465098
C        4.62290432      10.22988140       9.66124131       0.01081104       0.00208926       0.01091175
C        5.19767732      11.29887626       8.74224453       0.01164692       0.00110686       0.00714380
C        3.83547901      10.81489276      10.83137861       0.02181161       0.00193226       0.01654020
C        5.83268319      10.76363579       7.46384896       0.00637895      -0.00340551       0.00604287
C        3.24641203       9.73643347      11.73172219       0.00923763       0.00514269       0.01165426
C        6.15303073      11.88831894       6.48657328       0.00542536      -0.00636959       0.00225890
H        3.96266999       9.57755387       9.07984483       0.00798813       0.00537409       0.01105860
H        5.42756781       9.59691903      10.05445110       0.01242578      -0.00421301       0.00044557
H        5.93283379      11.89624432       9.29291668       0.01406336      -0.00067948       0.00654761
H        4.39328184      11.98435333       8.46052020       0.01232433       0.00231463       0.00869103
H        4.47299762      11.48051388      11.41896002       0.02885064      -0.00819033       0.02149934
H        3.02896740      11.44941878      10.43193219       0.03017764       0.01408018       0.02172722
H        6.74548257      10.20784897       7.70365391       0.00461793      -0.00449096       0.00705571
H        5.13811821      10.06340619       6.99186151       0.00122598      -0.00169852       0.00970688
H        2.54029034       9.09494334      11.18426922       0.01262533       0.00736879       0.00427047
H        2.74393419      10.15946989      12.61160197       0.00241116       0.01157671       0.00430678
H        4.03320180       9.08148873      12.11462542       0.00083508       0.00034102       0.02090277
H        5.24046426      12.42366871       6.21422844       0.00283673      -0.01082269      -0.00475117
H        6.84202158      12.60765021       6.93388273       0.00440864      -0.00619383       0.00265042
H        6.60965643      11.51739116       5.56780296       0.00526331      -0.00933184       0.00348742
