149
Lattice="11.623878072601729 0.0 0.0 0.0 11.623878072601729 0.0 0.0 0.0 11.623878072601729" Properties=species:S:1:pos:R:3:forces:R:3 energy=-173143.28125 stress="-0.0019792590755969286 0.00014945630391594023 -0.00035116859362460673 0.00014945630391594023 5.2719798986800015e-05 0.00040996701864060014 -0.00035116859362460673 0.00040996701864060014 0.0026909096632152796" pbc="T T T"
Sr      11.65598581      11.95728186       2.22873678       0.00363135       0.00891086       0.00450464
O       10.05668511       8.31644356       4.95414817       0.01635173       0.02728802       0.00554767
O       10.57471685      10.48501918       4.77128007       0.00015840       0.01921614       0.00433268
C       10.56322888       9.51422856       6.95044055       0.00312378       0.01380889      -0.00668597
C       10.94371628      10.72234713       7.54316988       0.00130194       0.00549984      -0.00000721
C       10.23614819       8.41844927       7.75705888       0.00017657       0.00408527      -0.00664689
C       10.97604992      10.83377982       8.93363787       0.00552944       0.01435310       0.00646953
C       10.26036827       8.53848325       9.13810104       0.00165922       0.00775174      -0.00317546
C       10.62405118       9.74636412       9.72746784       0.00199649       0.00335758      -0.00616579
C       10.39124593       9.35718383       5.48078135       0.00259903       0.00832254      -0.00644773
H       11.19091773      11.57926563       6.93130366       0.00653733       0.01755519       0.00348318
H        9.94014651       7.49327576       7.27794727       0.00536472       0.02227481      -0.00188619
H       11.26712856      11.77257877       9.39437701       0.00428980       0.00465305       0.00674711
H        9.99170860       7.69632500       9.76133934       0.00083366       0.00683473      -0.00426557
H       10.61291511       9.83225335      10.80823528       0.00323661       0.00455895       0.00690761
O        3.72206864       5.20031044       8.27892232      -0.00730777      -0.01177430      -0.00187282
O        1.56276175       5.84246757       8.23783402      -0.00511050      -0.00482082      -0.00917427
C        3.23257621       7.49305943       8.55252575      -0.00103828      -0.01025474      -0.00120711
C        2.29730717       8.51355157       8.70665431       0.00181279      -0.00717767      -0.00432402
C        4.58136210       7.82557774       8.47435360       0.00040042      -0.01411727       0.00342708
C        2.70452964       9.84177728       8.76795473       0.00533456      -0.00821687      -0.00409595
C        4.98999033       9.14837602       8.50214103       0.00426716      -0.01539493       0.00356414
C        4.05259970      10.16352657       8.65345078       0.00690597      -0.01222292      -0.00081987
C        2.80834143       6.04575454       8.36252968      -0.00481227      -0.00898719      -0.00386772
H        1.25148548       8.24258705       8.75115604       0.00066707      -0.00373578      -0.00731229
H        5.28388752       7.01156420       8.35850939      -0.00165649      -0.01621917       0.00673887
H        1.98483454      10.64426529       8.85870421       0.00722195      -0.00625905      -0.00698681
H        6.03746409       9.39455769       8.41041452       0.00554907      -0.01878811       0.00633049
H        4.35992418      11.20134354       8.65834316       0.01008661      -0.01305890      -0.00152853
O        9.81474420       2.59819162       6.99073918      -0.02981669       0.02276698       0.02920351
C       10.23356486       3.68898294       6.15356779      -0.00499588       0.00129930       0.01419289
H        9.74417548       4.62447270       6.43440372      -0.00759979       0.00889805      -0.01817302
H       10.02527036       3.47943848       5.09982827       0.01905852      -0.02198680       0.01460102
H       11.30698844       3.80101353       6.29027945      -0.00785053      -0.00053421       0.03605914
H        8.90958461       2.37374854       6.75521234      -0.02530849       0.02142227       0.01406997
O        2.19567434       6.14011501       1.83387287      -0.00343144      -0.01311302      -0.00785872
C        2.42385761       7.49291434       1.47031792      -0.00246137      -0.01412624      -0.01106957
H        1.94700035       8.17581109       2.18044412       0.00951414      -0.01212876      -0.00511158
H        2.04738462       7.70933338       0.46551241      -0.01437500      -0.01264242      -0.00634077
H        3.49891694       7.68572667       1.48228173      -0.00153363      -0.01937823      -0.02502098
H        1.38203330       6.09868139       2.39337658      -0.00221554      -0.01057668      -0.00504130
O        7.49382203       9.59358693      10.76352040       0.00547779      -0.00421476       0.00255936
C        6.23360111       9.64280599      11.40289734       0.00733012      -0.00261158       0.00645411
H        6.39342159       9.45427944      12.46642387       0.00974720      -0.00861977       0.00499737
H        5.53825256       8.88975527      11.01735694       0.00354674       0.00202146       0.00453243
H        5.75962952      10.62381835      11.29414447       0.01100625       0.00004447       0.01297473
H        7.41438612       9.98607913       9.87946663       0.00384623      -0.00151082       0.00393650
O        2.22459688      11.08734972       1.83870616      -0.00246619      -0.00575070       0.00297719
C        3.00303614      10.80725205       0.66813188       0.00053954      -0.00437482       0.00437531
H        3.77828254      10.07931748       0.90225701       0.00001127      -0.00558099       0.00523052
H        3.46298787      11.71828220       0.28223795       0.00176959      -0.00365514       0.00616906
H        2.35557040      10.38535430      -0.09782904       0.00167148      -0.00327772       0.00160255
H        2.79840273      11.13193205       2.67678315      -0.00199053      -0.00388375       0.00323714
O        5.96648668       3.18871606      10.82219520      -0.00222093      -0.00598514      -0.01373222
C        4.97947920       2.18563014      10.98927720      -0.00599462       0.00030568      -0.00097775
H        4.15346684       2.52403146      11.62080834      -0.00541645       0.01040244      -0.00541070
H        5.41521295       1.26707651      11.40372478      -0.01042485       0.00313669       0.00989926
H        4.57224354       1.95870816      10.00452700      -0.00561670      -0.00980958       0.00128871
H        6.11440595       3.62166727      11.66782704       0.02077384      -0.01421522      -0.01371884
O        4.99762821       9.45810593       4.95447347      -0.00140899      -0.00017603       0.00086427
C        4.37558002       8.16814186       5.06231076       0.00092477      -0.00170939      -0.00281835
H        4.98930206       7.49320934       5.65889098       0.00105982      -0.00126505      -0.00238362
H        4.19466623       7.73764499       4.07402217       0.00432408      -0.00045644      -0.00409871
H        3.42545561       8.30910995       5.57327152      -0.00086707      -0.00462146      -0.00521487
H        5.93818166       9.35795671       4.78542520      -0.00035489       0.00210150       0.00547049
O        7.99962025       5.09882951      11.60054320       0.00765041      -0.00817090      -0.00318636
C        7.29988476       6.04316772      10.78506520       0.00741841      -0.00737160      -0.00103535
H        6.36129476       5.63158374      10.40563054       0.01096141      -0.01001978      -0.00730178
H        7.92262491       6.36362070       9.94541018       0.00959629      -0.00004389       0.00325143
H        7.10034836       6.92023932      11.39834695      -0.00045113      -0.01067585       0.00173905
H        8.32855115       4.38443492      11.02490443       0.02845006       0.00424469      -0.00912166
O       10.11066329      10.40185542       2.31240073       0.00008458       0.01363695       0.00225592
C        8.93230185       9.73806605       1.94277561       0.00144231       0.01097760       0.00388163
H        8.20384349      10.44172297       1.53652326      -0.00131556       0.00977165       0.00443460
H        8.49002736       9.23068277       2.80883289       0.00308836       0.00965753       0.00464574
H        9.11516307       8.98585008       1.16943962       0.00239322       0.01118609       0.00278097
H       10.30451361      10.28770490       3.78539174      -0.00151758       0.01726151      -0.00140822
O        4.78031753       1.22422023       6.69823323      -0.01233561       0.00747049      -0.00587177
C        5.81959986       1.93190987       7.37605237      -0.01401888       0.00854978      -0.00450474
H        5.39208610       2.82920331       7.82610818      -0.02020009      -0.00188917       0.01001963
H        6.59736156       2.23883426       6.67254386      -0.02339724       0.02635405      -0.00716169
H        6.27264364       1.31709940       8.15802549      -0.00145814       0.00350299      -0.01560313
H        5.11944896       0.86479762       5.86360517      -0.00875154       0.00290237      -0.00251777
O        7.51165750       6.47172286       6.88416487      -0.00238489       0.00693744       0.00585541
C        6.97847959       5.16255689       7.10803535      -0.00002055       0.00590429       0.00412936
H        5.91909117       5.18612412       7.38381266       0.00103354       0.00321413       0.00877018
H        7.53244320       4.63087925       7.89191459       0.00389302       0.00418495       0.00027800
H        7.08357392       4.62119575       6.16873413      -0.00348338       0.00891396       0.00186974
H        7.36607058       6.98934465       7.68095267       0.00020501       0.00478740       0.00782365
O        2.26648854       1.26281495       8.00646040      -0.01620275      -0.01026112      -0.01822758
C        1.83198868       2.58342991       8.33677079      -0.01102754      -0.01184899      -0.00677506
H        0.74088475       2.58360432       8.31920900      -0.01124877      -0.01032989       0.00183316
H        2.20287625       3.33474175       7.64100973      -0.01550613      -0.00805014      -0.00516251
H        2.16672049       2.88791928       9.33332523      -0.00303793      -0.01807486      -0.00714707
H        3.11867098       1.32087002       7.54803394      -0.01221364      -0.00913237      -0.01100792
O        7.80989309      10.92077318       8.24298420      -0.00274241       0.00185270       0.00543267
C        7.54313278      10.71786271       6.85564836      -0.00571170       0.00528592       0.00525747
H        7.74179966       9.68145437       6.55735460      -0.00063447       0.00740126       0.00107776
H        8.14184679      11.38468093       6.23053574      -0.01091401       0.01093444       0.00608960
H        6.49149336      10.93338889       6.69243333      -0.00709477       0.00023863       0.00880341
H        8.76768164      10.92544357       8.36414580      -0.00281063       0.00657682       0.00263733
O        6.76053971       4.95963563       2.41928762      -0.00191948      -0.00259888      -0.01638168
C        6.69794961       6.20301078       3.10782598       0.00133789      -0.00051337      -0.01981615
H        6.26405542       6.98857488       2.48030716       0.00387880      -0.00110111      -0.02238587
H        7.67492130       6.52788620       3.47330226       0.00195950      -0.00206156      -0.02074940
H        6.05715470       6.06055627       3.97600602       0.00046386       0.00411554      -0.01954663
H        7.31691575       5.02798702       1.61518486       0.00395375      -0.00756555      -0.01305793
O        2.06330917       3.66298209       0.71805420      -0.03066339      -0.01540506       0.00751352
C        1.67922104       3.06204383       1.91768725      -0.01986778      -0.00394911       0.01640230
H        2.06855403       3.57713805       2.80040926      -0.01563656       0.00644185       0.00851279
H        2.07563260       2.03607487       1.92755284      -0.01548583      -0.00226867       0.02525634
H        0.56948431       3.05373230       2.03386298      -0.01889071      -0.00477435       0.02510602
H        2.14679240       4.62310947       0.89497859      -0.02059176      -0.01477644       0.00097873
O        3.30388677      11.29367422       4.12423640       0.00187236       0.00079855       0.00003213
C        2.24364368      11.03355562       5.05117357       0.00545729       0.00661029       0.00633436
H        2.62478561      10.97353794       6.07027789       0.01145098       0.00464292       0.00385326
H        1.70856903      10.10967164       4.80813286      -0.00066888       0.00934541       0.00886011
H        1.54833270      11.87744521       5.02433690       0.01076861       0.01033288       0.00964332
H        4.04711054      10.68515902       4.36079486       0.00082695      -0.00053886      -0.00089964
O       11.57957710       5.97093460       3.26389576       0.00334206      -0.00834338      -0.00148135
C       10.57366266       6.55992496       2.44520305       0.00409095       0.00083178       0.00431381
H        9.59541530       6.49171309       2.91840287       0.00454509      -0.00009022       0.00481708
H       10.55318388       6.00605331       1.50691168       0.00153660       0.00766909       0.00009471
H       10.78399791       7.61291170       2.24373528       0.00652893       0.00176209       0.01208635
H       11.59870171       6.38271449       4.15196674       0.01188403      -0.00955196      -0.00036529
O        9.65097869       3.60975534       9.74082764      -0.01978287       0.02540970       0.02022760
C       10.50764578       4.74155574       9.56284094       0.00074695       0.00834495       0.00604502
H       11.44040762       4.50223131       9.05424708      -0.00047779      -0.01842280       0.01861277
H       10.74643625       5.12373108      10.55446197      -0.00171469       0.02175380       0.00080863
H       10.00245159       5.53016774       8.99320102       0.01952398       0.00535920      -0.01293579
H        9.61176595       3.15126014       8.88579816      -0.03754261       0.02164656       0.02307047
O        6.00501830       3.31530907       4.36163391       0.01625103       0.00316739      -0.00944743
C        4.60581928       3.56288832       4.52284426       0.01604480       0.00561696      -0.01420680
H        4.01576241       2.76140274       4.06469206       0.01730308      -0.00543451       0.00410262
H        4.32468052       4.51329454       4.06669424       0.01513018      -0.00554937      -0.03639360
H        4.37531225       3.59278779       5.58657770       0.01571083       0.02957404      -0.01498693
H        6.32152793       3.79205605       3.56411405       0.01777579       0.00099426      -0.01073740
O        1.04642265       6.48301884       5.72230829       0.01005834      -0.00623876      -0.01066455
C        2.09547277       5.65475906       5.25110300       0.00967354      -0.01017991      -0.00467390
H        2.90601696       5.57747581       5.97701206       0.01232040      -0.00052213      -0.00663406
H        2.47952253       6.07070269       4.32001564       0.00567695      -0.02003121      -0.01070943
H        1.73897876       4.63623786       5.04055143       0.01074117      -0.01338628       0.00902756
H        1.03598614       6.34674430       6.70602924       0.00490150      -0.00527984      -0.01056830
O        6.25310931       0.69624821       4.22068871      -0.00137448       0.00026327       0.00291836
C        5.98133798       0.44663244       2.85298802      -0.00003020      -0.00117379       0.00293216
H        6.78301144       0.82332325       2.20663015       0.00424036      -0.00833960       0.00412382
H        5.03729108       0.90328760       2.53357116       0.00383595       0.00462468      -0.00039681
H        5.90744110      -0.63167216       2.70613162      -0.00708684      -0.00099874       0.00528396
H        6.27126608       1.68112322       4.30749972       0.00680359       0.00027421      -0.00006063
