150
Lattice="12.046938876665056 0.0 0.0 0.0 12.046938876665056 0.0 0.0 0.0 12.046938876665056" Properties=species:S:1:pos:R:3:forces:R:3 energy=-199762.640625 stress="0.0017008715076372027 -9.920789671014063e-05 -6.677561395918019e-05 -9.920789671014063e-05 0.0019176002824679017 -0.00017448121798224747 -6.677561395918019e-05 -0.00017448121798224747 0.0005946961464360356" pbc="T T T"
Sr      12.38612044      11.97893455       0.36252742       0.00211824       0.01091816      -0.01162068
O       10.66627379       9.04205732       2.30048684      -0.00177625       0.00606754      -0.00462365
O       12.15004683       9.57822708       0.13002919      -0.00320339       0.00877678      -0.00430214
O        9.81227061       8.32328965      -0.09592312      -0.00197792       0.00469893      -0.00559533
O       11.89527059       7.00171724       0.93316325       0.00009328       0.00795007      -0.00439301
Cr      11.13036876       8.47327464       0.80704500      -0.00089893       0.00702894      -0.00455625
O        2.15156119       1.52916101      11.37954312       0.01176545      -0.01063627      -0.01735671
C        3.57258207       1.43605044      11.30809511       0.00491315       0.00177646      -0.01185852
H        4.04213464       1.94379363      12.15405567       0.00421121      -0.01022409      -0.00605625
H        3.93987097       1.87301922      10.37859100       0.01680304      -0.00596404      -0.00434732
H        3.84517773       0.38528572      11.33894119       0.00167334      -0.01047826      -0.01001114
H        1.94489602       2.45976698      11.16300831       0.01458388       0.01864940      -0.01961093
O        4.55626360      10.06490749       7.36888565       0.00699376      -0.00069222      -0.02584738
C        5.27780963       8.98926120       6.74597486       0.00379058      -0.00323443       0.00320709
H        5.01201987       8.02227658       7.17678587      -0.00058639      -0.00251353      -0.00392009
H        6.35680517       9.13366612       6.80228937       0.00436994      -0.00883485      -0.00106072
H        4.98612345       8.99167910       5.69751827       0.00420557      -0.00070703      -0.00396851
H        4.65218159       9.98737301       8.32012798       0.01256157      -0.00436556       0.01839179
O        8.05475129       7.16671451       9.41842674      -0.00806466       0.00412855      -0.00617912
C        7.14795246       8.15948395       9.86760011      -0.00131688       0.00733787       0.00112337
H        6.11836968       7.77983779       9.90909358      -0.00266278       0.01144339       0.00738968
H        7.16820913       9.04304130       9.21995662       0.00051628       0.00779492       0.00174457
H        7.46481998       8.45347885      10.86714721       0.00651439       0.00428649      -0.00031260
H        7.72036048       6.82697083       8.56381103      -0.01462750       0.00556307      -0.00411403
O        8.07861105       9.24888609       2.83588420      -0.00016326       0.00006098       0.00460342
C        7.36883771       8.26058456       2.09541060       0.00288182      -0.00342551       0.00614798
H        7.35873179       7.29583909       2.61364758       0.00737143      -0.00307778       0.00713569
H        7.81203130       8.12638337       1.10609350       0.00220646      -0.00269134       0.00562778
H        6.33432365       8.59683472       1.98673369       0.00128219      -0.00776951       0.00716535
H        9.04468003       9.14380738       2.62793383       0.00007508       0.00377610       0.00254333
O       11.71544984      11.12971441       6.17481891       0.00140029      -0.00090909       0.00299934
C       12.08625305      12.45265898       6.49145019       0.00250793      -0.00116891       0.00397633
H       12.71757985      12.91036706       5.71895296       0.00243509      -0.00075461       0.00433168
H       12.61766199      12.51589762       7.44883164       0.00383727      -0.00245809       0.00330457
H       11.17189247      13.04196397       6.57797910       0.00278112      -0.00044048       0.00571752
H       12.53299232      10.60837902       6.11819136       0.00085943      -0.00239460       0.00382502
O        6.94449673       4.79911656      10.26588027       0.00320297      -0.00048482      -0.00228390
C        6.11832341       4.93601232      11.41612608       0.00391543       0.00023472      -0.00159307
H        5.63342326       5.91654271      11.45339461      -0.00527082      -0.00425139      -0.00761277
H        6.68417806       4.79369074      12.34186954       0.00665280       0.01199152      -0.00150698
H        5.33792880       4.17698907      11.36188362       0.01100989      -0.00767010       0.00541435
H        7.50736037       5.59886472      10.19118365      -0.00072408       0.00211893      -0.00537848
O        6.70816913       5.68317420       7.59319566      -0.01271939      -0.00037035      -0.00079006
C        7.44188108       4.90075158       6.65221171      -0.00611787       0.00329686       0.00112557
H        6.80842588       4.12335321       6.21644554      -0.00294363       0.00277445      -0.00253205
H        8.32911953       4.45182459       7.11300119      -0.00734666       0.00413045       0.00463893
H        7.76740939       5.57288602       5.86079705      -0.00470885       0.00500715       0.00312233
H        6.55517205       5.15073823       8.39205427      -0.00683318      -0.00029552       0.00048797
O        2.41554060       4.13699253      10.49454671      -0.02318636      -0.00130782       0.02335507
C        3.12109806       4.38607763       9.28469841      -0.02894086       0.00928237       0.02422115
H        4.02861629       4.97309407       9.45257028      -0.02569890       0.00329475       0.02609859
H        2.50669595       4.90744121       8.54389160      -0.03045484       0.02033003       0.03333402
H        3.41168658       3.42739434       8.85311514      -0.03491399       0.01188678       0.01135811
H        2.36916943       4.95909757      11.03524321      -0.02362762      -0.00259317       0.02888456
O        9.61096825      11.38689175       8.67606709      -0.00337595      -0.00076580      -0.00270778
C        9.82120746       9.97156216       8.46496737      -0.00105227      -0.00110346      -0.00057656
H        9.13654684       9.59869684       7.70390343       0.00065199      -0.00279430      -0.00131008
H        9.67233713       9.42634227       9.39939299      -0.00196695      -0.00013712       0.00005180
H       10.83798396       9.84383460       8.10441456      -0.00034198      -0.00008392       0.00155327
H        8.70780610      11.62555285       8.42092733      -0.00421566      -0.00278459      -0.00166064
O        5.60088589       5.25330396       3.46259030      -0.00948462      -0.00328332      -0.00719932
C        5.13447938       6.28135632       4.33815560      -0.00128431      -0.00201626      -0.00194834
H        4.41205748       5.89231990       5.06062310       0.01367244      -0.00504683       0.01037732
H        4.67596338       7.10408342       3.77702895      -0.01676595      -0.00804651       0.00232324
H        6.00243664       6.66910275       4.86792128       0.00433344       0.00604425      -0.01750362
H        4.82388505       4.84832608       3.06908215      -0.01076701      -0.02039495       0.02385903
O        2.99518742       3.34242644       5.00505515       0.02114281       0.01226348      -0.00256586
C        2.65458489       2.90840538       3.70474037       0.00586514      -0.00192367       0.00632614
H        2.32965532       1.86095455       3.68257565      -0.00312768       0.00081435       0.02328962
H        3.48546107       3.01350530       2.99120387       0.00065416      -0.01917330      -0.00255130
H        1.82784326       3.52661120       3.35586397       0.00824222       0.00062831       0.00481651
H        3.69550648       2.77515534       5.35863983       0.01442635       0.00696366       0.00162747
O        2.34125513      10.40756513       5.80203811       0.00380041       0.00243628       0.00782531
C        2.89137164      11.11971983       4.71537329      -0.00109618      -0.00404835      -0.00103852
H        3.67699892      10.54229085       4.20852135      -0.00517303      -0.00939998      -0.00152245
H        3.30757246      12.08486206       5.03305740       0.00412771      -0.00411487      -0.00675376
H        2.09030513      11.29443712       3.99571972      -0.00347957      -0.00490246       0.00281745
H        3.02608272      10.30722326       6.48784958       0.00466488       0.00208854       0.00144069
O        8.18352120       8.18148549       5.39614091       0.00329256      -0.00498234       0.00214567
C        9.57276085       7.89197450       5.52922125       0.00386113      -0.00342873       0.00097378
H        9.70706905       7.33676417       6.45820577       0.00530748      -0.00283718       0.00146642
H       10.18143959       8.79899161       5.57681457       0.00290787      -0.00261831       0.00015684
H        9.94258493       7.28058687       4.69863043       0.00392732      -0.00356361       0.00112444
H        8.07828879       8.64410311       4.54170822       0.00258091      -0.00257150       0.00316939
O       11.35622079       5.95284277       8.51584989      -0.00150299      -0.00063819       0.00043048
C       11.38652906       6.54091644       9.82646420       0.00012709      -0.00388769      -0.00316390
H       12.34158582       7.03809800      10.01732593      -0.00765330       0.00946125      -0.00476766
H       11.20372972       5.79989157      10.60614398       0.00781206      -0.00133592       0.00018346
H       10.58320363       7.26872501       9.86652458      -0.01061025      -0.01022261      -0.00459942
H       12.03743459       5.27629737       8.47605005       0.01076120      -0.01123405       0.00436719
O        5.26587595       1.73690635       5.91691168       0.00357065      -0.00597686      -0.00580198
C        6.20220505       1.63164025       4.85559536       0.00527335      -0.00357219      -0.00472799
H        5.81734474       2.21660298       4.02009739       0.00398052      -0.00689876      -0.00653979
H        6.34845465       0.58999065       4.54635835       0.01014997      -0.00364593      -0.00287689
H        7.17859059       2.05210507       5.12018689       0.00326338       0.00115672      -0.00420851
H        5.62324682       1.23911315       6.66627721       0.00502995      -0.00194880      -0.00445080
O        0.56525108       8.06146861       7.07757313       0.00031739      -0.00779539      -0.00720716
C        1.66078652       7.29290268       6.62235161       0.00642598       0.00124305      -0.00903708
H        1.34288224       6.42068572       6.03893627       0.01275326      -0.00348759      -0.00557566
H        2.28897452       6.94230507       7.45331964       0.01284406       0.00969688      -0.01049018
H        2.26596817       7.93284190       5.98308389      -0.00196275       0.00525710      -0.01292975
H       -0.02501578       7.44380710       7.53776930       0.00582236      -0.01150776      -0.00628530
O        4.73561426       0.14304539       2.12941191      -0.00133236      -0.00223030       0.00017560
C        6.09722617      -0.13783248       1.77688856      -0.00281852       0.00067446      -0.00394146
H        6.51392521      -0.96765156       2.35170838       0.00142720       0.00093430      -0.00685053
H        6.72200936       0.74945486       1.90947951      -0.00380045       0.00166303      -0.00708599
H        6.09817454      -0.40599753       0.72186302      -0.00744393       0.00084500      -0.00495775
H        4.67830670       0.23925685       3.08536887       0.00128831      -0.00740276       0.00460333
O       10.20350826      11.77965058      11.17008995      -0.00292122       0.00630265      -0.00445506
C        8.98583895      11.52511006      11.85870276      -0.00014508       0.00329993      -0.00077459
H        8.42496047      10.72681842      11.36729216       0.00168905      -0.00067917       0.00299339
H        8.37287699      12.43186451      11.90813800      -0.00384049       0.00098774      -0.00176125
H        9.20869134      11.18884494      12.87127632       0.00375032       0.00716127      -0.00031859
H       10.01371418      11.67846206      10.19842009      -0.00452751       0.00292780      -0.00408338
O       11.13758717       4.56671878       1.58407689       0.00292426       0.00877970       0.00492328
C        9.78371716       4.73184198       1.98619498       0.00100291       0.00571362      -0.00051122
H        9.18525888       5.19527248       1.19578625       0.00433020       0.00915404      -0.00135750
H        9.71454993       5.35095051       2.88453049      -0.00403200       0.00130373       0.00237480
H        9.37449851       3.74536136       2.20835317       0.00104560       0.00420946      -0.00754247
H       11.47142713       5.46863004       1.32675327       0.00127608       0.00903047       0.00274895
O       11.47718645       2.35341171       0.20069514      -0.00787999       0.00538245       0.00766051
C       10.98285122       2.78779677      -1.06690420       0.00517790       0.00767806       0.00330079
H       11.57569117       3.62230600      -1.44689352       0.01723857      -0.00043178       0.00485841
H        9.93557965       3.09559970      -0.99525206       0.00817257       0.01929249      -0.00425366
H       11.04845408       1.95853068      -1.76944241      -0.00026861       0.00471643       0.00611714
H       11.43669030       3.15657504       0.78540782      -0.00290661       0.00683889       0.00595978
O       11.34869554      11.53070505       2.57159455       0.00581504       0.00462744      -0.01030911
C       10.40034818      12.20297080       3.40177940       0.00686247      -0.00085507      -0.00467587
H        9.39957566      12.16855709       2.95875394       0.00432983      -0.00647815       0.00076094
H       10.71064258      13.24425446       3.48796112       0.00112761       0.00090948      -0.00593288
H       10.38347590      11.74919685       4.39284185       0.01449116      -0.00178923      -0.00482756
H       11.12804811      10.54927438       2.57832939       0.00722516       0.00437987      -0.01129047
O        2.23337510       6.34305734       0.06799445      -0.00692028       0.00034080      -0.00412092
C        2.93042477       6.42647550       1.30217396      -0.00381103      -0.01128869      -0.00509544
H        2.72331190       7.37861523       1.79928723      -0.00054734      -0.01431531       0.00221682
H        4.00130949       6.35850170       1.10586071      -0.00449204      -0.01297545      -0.00772800
H        2.64297194       5.62006960       1.98796577      -0.00465934      -0.01596814      -0.01085366
H        1.29435967       6.60147115       0.27805292      -0.00565141       0.00529382      -0.00192964
O        7.31494500       0.82522954       7.84547411      -0.00284648       0.00005162      -0.00371033
C        7.18375631       1.70636246       8.97584759      -0.00365867       0.00022528      -0.00352021
H        6.72196433       2.65321068       8.69452621      -0.00444193      -0.00007331      -0.00384992
H        8.15094048       1.90110372       9.44248781      -0.00400171       0.00099977      -0.00342913
H        6.54200006       1.19632560       9.69096718      -0.00354168      -0.00029801      -0.00351354
H        7.93473769       1.23381363       7.23150277      -0.00095975      -0.00106123      -0.00221267
O        2.63873784      10.93420267       0.92103901      -0.00064555       0.00858793      -0.00500855
C        3.16834100       9.89941993       0.08689032      -0.00092718      -0.00413963       0.01072672
H        4.14942914       9.57854714       0.44404451      -0.01501416      -0.02017749       0.03257418
H        3.27099302      10.24956943      -0.94762897       0.02593152      -0.00983718       0.01263565
H        2.48074347       9.05878465       0.09413147      -0.01590794       0.00874230      -0.00110470
H        3.38581983      11.38909765       1.35833316      -0.00165948       0.00817437      -0.00379217
