149
Lattice="12.444458950323485 0.0 0.0 0.0 12.444458950323485 0.0 0.0 0.0 12.444458950323485" Properties=species:S:1:pos:R:3:forces:R:3 energy=-255240.96875 stress="-0.001440083491615951 -0.0006378339894581586 -0.0003215601318515837 -0.0006378339894581586 -0.0007837347802706063 -0.00048710714327171445 -0.0003215601318515837 -0.00048710714327171445 -0.0006887901108711958" pbc="T T T"
Sr      11.08740584      12.70977345      -0.23311784       0.00610083       0.00076865       0.00246947
Cl      10.25358049      10.51310292      10.09289209      -0.01471305       0.00378407       0.01072687
O       11.06206347       9.45816928       9.49482350       0.00238729      -0.01191235       0.00868773
O       10.90096783      11.85434460       9.83140885       0.01167142      -0.00786638       0.00183448
O       10.35961629      10.37609294      11.61294992      -0.00231764       0.00026950       0.01121652
Cl       5.98157782      11.95634880      11.86141243      -0.00299287       0.00475138      -0.00310659
O        7.29631591      12.09886797      11.14191795      -0.00081277      -0.00165221      -0.00237823
O        5.82006750      13.15180845      12.72925262      -0.00092486       0.00954509      -0.01025772
O        6.09153836      10.76355332      12.75326675      -0.00697702       0.00895476       0.00194073
O       12.59682409       7.34015182       1.71529765      -0.00108650      -0.00212963       0.00432068
O       10.65132703       7.31358568       2.78321007      -0.00321697       0.00318835       0.00016826
O       12.52610575       6.64424220       3.84616720      -0.00719658       0.00007337       0.00475317
C       11.66413369       7.94448123       0.78849902       0.00217894      -0.00158352       0.00135154
C       10.32357413       7.57939233       1.40360878       0.00031680       0.00302317      -0.00060214
C       11.97970773       7.06137731       2.86757457      -0.00409025       0.00060451       0.00281680
H       11.84750367       7.51316203      -0.19097614       0.00262255      -0.00422752       0.00267017
H       11.83906343       9.01696999       0.76900814       0.00498446      -0.00221163      -0.00062513
H        9.59787327       8.38976959       1.37066227       0.00288242       0.00528097      -0.00270639
H        9.90859189       6.66583698       0.97285687      -0.00168248       0.00403011      -0.00063874
O       11.45664567       4.39698536       2.23939484       0.00193639       0.00626233      -0.00862873
O       11.59364567       2.41114038       1.26701299       0.01487199       0.00650698      -0.00654498
O       10.88036661       4.20005821       0.07515797      -0.00324300      -0.00144017      -0.00662708
C       12.09037143       3.52302346       3.21430874       0.01130101       0.01270467      -0.00905323
C       11.69458186       2.16119164       2.69764005       0.02245887       0.00873584      -0.00685209
C       11.27911761       3.72818579       1.09481283       0.00391315       0.00319037      -0.00716925
H       11.69849279       3.76467901       4.19710150       0.01086284       0.01049169      -0.00879949
H       13.16328961       3.68639324       3.18752414       0.00969267       0.02222192      -0.01115215
H       12.42177314       1.37879192       2.87983324       0.03091785       0.01641703      -0.00936651
H       10.70552657       1.84650090       3.04080359       0.02710786      -0.00080570      -0.00268708
O        8.10041724       0.55864221       5.69724401       0.00555125      -0.00619237      -0.00692602
O        8.15815040       2.66560244       6.42552210       0.01603477      -0.01431283       0.01493436
O        6.18939044       1.55361926       6.36873979       0.01076972      -0.00478743       0.00588767
C        9.49644114       0.87590717       5.87573921       0.00727841      -0.01328164      -0.00763883
C        9.46189104       2.39121710       5.88308194       0.01294419      -0.01358432       0.00667726
C        7.36150508       1.58725997       6.17648765       0.01128662      -0.00793473       0.00471513
H       10.07537884       0.43468466       5.07117364       0.00341003      -0.00638597      -0.01401484
H        9.82660926       0.44868011       6.82391771       0.00839908      -0.02417301      -0.01300904
H       10.21427927       2.85413244       6.51731282       0.01755680      -0.02253783       0.00732467
H        9.50277911       2.81400331       4.87647199       0.00999694      -0.00474545       0.01032573
O        9.83457691      11.81462247       1.86156807      -0.00956801       0.01485699       0.00300149
O        9.09895799      10.67349560       3.61614280       0.00880745      -0.01496894      -0.00885946
O       11.26716714      11.29322630       3.51379134       0.00649422      -0.00920159      -0.01951283
C        8.45414638      11.45305223       1.52317305      -0.01038912       0.01337085       0.00795603
C        7.90607829      11.03160874       2.86609929       0.00164992      -0.00733014       0.00623196
C       10.16724441      11.24583180       3.05580173       0.00272983      -0.00366161      -0.00971496
H        8.48819632      10.65576143       0.78774532      -0.01173212       0.02282020      -0.00220963
H        7.97342738      12.32691456       1.10099610      -0.01727200       0.01647940       0.02251942
H        7.40637468      11.83940464       3.39884513       0.00422168      -0.01678500       0.02264774
H        7.26030605      10.16186117       2.80504213       0.00379603      -0.00839382      -0.00107235
O        3.29177190       0.53471420       4.15026824       0.01108864       0.00680104       0.00036928
O        2.75181842       2.40884989       3.08368171       0.00691311       0.00169316      -0.00622070
O        1.44625810       1.68197758       4.76051765       0.00948429       0.00559686      -0.00318956
C        4.43108058       0.83572865       3.31183021       0.01008266       0.00539342      -0.00110701
C        3.88500565       1.88153044       2.35818815       0.00935387       0.00311500      -0.00330150
C        2.42056437       1.54862564       4.07668897       0.00930929       0.00487898      -0.00301039
H        4.74813883      -0.07136054       2.80531070       0.00982490       0.00455084       0.00045922
H        5.21879770       1.22419606       3.95586569       0.01044011       0.00660500      -0.00230792
H        4.58669172       2.68773071       2.17457286       0.00775746       0.00448900      -0.00310857
H        3.53869743       1.46123257       1.41810061       0.01243214       0.00107104      -0.00325680
O        6.20909135       5.85351325       3.21429851      -0.00336543       0.00194471      -0.01927560
O        7.56394466       4.11336478       3.51707009      -0.00037702       0.00980106       0.01087303
O        5.39851778       3.96096682       4.12330773      -0.00283504       0.01299557       0.00373086
C        7.50399045       6.33153251       2.81748825      -0.00066498       0.00076330      -0.01219620
C        8.34140714       5.05702859       2.75502831      -0.00276524      -0.00012210      -0.00440991
C        6.30826352       4.57800035       3.66746490      -0.00235361       0.00850195      -0.00107041
H        7.86533623       7.03652862       3.56800651      -0.00469798       0.00102144      -0.01053426
H        7.40096377       6.83523803       1.85857422       0.00561744      -0.00034048      -0.01327571
H        8.45576374       4.66336799       1.74390664      -0.01090486      -0.01073731      -0.00120622
H        9.31691556       5.16517279       3.21890340       0.00022888       0.00266977      -0.01195127
O        7.70459081       2.63887614      10.92682473       0.00772306       0.00226933       0.01342116
O        9.78275503       1.91211312      10.76719993       0.00122339      -0.01006791      -0.01342344
O        8.85034753       2.01313715      12.78492033       0.02371498      -0.01918940      -0.00403810
C        7.90073526       2.30624767       9.51973326      -0.00997108       0.01005846       0.00914988
C        9.41159388       2.26154812       9.41349586      -0.01142877      -0.00266525      -0.00777346
C        8.74328972       2.18666236      11.59975292       0.01188961      -0.00942341      -0.00158328
H        7.42422523       3.07635811       8.92631503      -0.00958312       0.01792574       0.01912795
H        7.45203032       1.32395697       9.37289298      -0.02028289       0.01514453       0.00758356
H        9.79928050       1.48081478       8.76719937      -0.02616691      -0.00384852      -0.01500659
H        9.85079669       3.23240243       9.19200928      -0.00577240      -0.00599456      -0.01062117
O       10.18707334       8.56882885       6.33997896      -0.00065032       0.01058128       0.01524907
O        8.47698988       7.48104104       7.25833458      -0.00775751       0.00585344      -0.00410760
O        8.53079018       9.73199796       7.33818395      -0.01110858       0.00625300       0.00370458
C       10.57453944       7.17719105       6.34728637       0.00089842       0.01116523       0.01434477
C        9.24922421       6.47379524       6.57564642      -0.00040779       0.00905994      -0.00071333
C        9.03308581       8.70104939       7.00422780      -0.00620177       0.00628924       0.00457454
H       11.27590084       7.02805266       7.17056019      -0.00723201       0.00945640       0.02088866
H       11.06282090       6.94620661       5.40586134       0.00999746       0.01450310       0.01817456
H        8.73585662       6.22003300       5.64515732       0.00905974       0.01253318      -0.00674424
H        9.30512327       5.59836377       7.21634069      -0.00588344       0.00666815      -0.00361508
O        2.15191155       5.03800168       0.98071955      -0.00417238       0.00148940      -0.00129804
O        2.76688937       7.05461198       0.25716909      -0.00342470      -0.00052673      -0.00539476
O        1.09168697       5.95843807      -0.78486230      -0.00439024      -0.00137986      -0.00233567
C        3.03400917       5.56233822       1.99220575      -0.00343639       0.00298959      -0.00301889
C        3.73724691       6.68380037       1.24832720      -0.00309423       0.00084463      -0.00552151
C        1.92935509       6.01308295       0.05955047      -0.00386792       0.00022808      -0.00322652
H        3.68931976       4.77131026       2.34200508      -0.00414205       0.00315484      -0.00158666
H        2.42406109       5.92910700       2.82010845      -0.00279701       0.00537638      -0.00360283
H        3.95383074       7.54907511       1.87235959      -0.00177374       0.00155690      -0.00718358
H        4.64312756       6.35495386       0.73596837      -0.00381446      -0.00110275      -0.00552589
O        4.79271464       9.52645016       9.92891570      -0.00826469      -0.00075382       0.00257675
O        4.18689841      11.46403259       9.02130012      -0.00191467       0.00804192       0.00156057
O        2.86334436      10.48732358      10.55740774      -0.01553357       0.00453325      -0.01425540
C        5.90455211       9.88777714       9.09476517      -0.01079279      -0.00546771       0.00532517
C        5.40814953      11.12407854       8.34469801      -0.00665034       0.00376672       0.00361204
C        3.85675190      10.48934246       9.88949885      -0.02958363       0.00381771       0.01510277
H        6.14253597       9.04970532       8.44710114      -0.01233345      -0.00113276       0.00229609
H        6.75644589      10.11485849       9.73411005      -0.01051024      -0.00606187       0.00405717
H        6.09088170      11.96736183       8.42194431      -0.00294328      -0.00169796       0.00712382
H        5.17892753      10.93917901       7.29747644      -0.00382376       0.00399412       0.00425583
O        0.98020217      10.83342216       1.15891613       0.00144929       0.00010143      -0.00487696
O        2.96876312      11.69121988       0.71789730       0.00359786       0.00123554       0.00881658
O        1.11573782      12.75201309       0.02342444       0.00765826       0.00369164       0.00197080
C        1.92939134      10.03840304       1.94307740      -0.00304824      -0.00120646      -0.00108576
C        3.22276123      10.34715924       1.22650668       0.00095338       0.00038671       0.00729115
C        1.66653433      11.81836033       0.57608408       0.00562581       0.00155440       0.00147223
H        1.63189679       8.99833762       1.87912293      -0.00249594      -0.00110433      -0.00547804
H        1.88860819      10.39792097       2.97171688      -0.00928981      -0.00343552      -0.00046325
H        4.10477815      10.39297741       1.85362044      -0.00296971      -0.00106072       0.01288143
H        3.39614711       9.71598462       0.35599465       0.00571583       0.00169092       0.00747222
O        4.03425966       4.93036121      10.82602766      -0.00431127      -0.00832557       0.00219238
O        3.80637471       3.72760004       8.96943939       0.00185726      -0.00723517       0.00103384
O        3.44816732       5.94610215       8.90062370       0.00135058      -0.00744569       0.00124013
C        4.49614909       3.61855267      11.18621957      -0.00773302      -0.00892061       0.00403619
C        4.08976950       2.75881409       9.99149123      -0.00207256      -0.00786889       0.00139061
C        3.74136668       4.96140205       9.50416742      -0.00001360      -0.00765270       0.00164002
H        4.00491901       3.32255484      12.10975549      -0.01352572      -0.00866947       0.00083289
H        5.57350404       3.65490428      11.32841990      -0.00857234      -0.01049387       0.01069584
H        4.88317702       2.10514477       9.63683939      -0.00002784      -0.00706688       0.00432141
H        3.19254345       2.16785891      10.17241677      -0.00207388      -0.00879246      -0.00322597
O        3.08502815       8.56403560       4.91557195       0.00891303      -0.01682886      -0.01059318
O        3.69205882       8.81500282       7.04573176       0.00545633       0.00194708      -0.01218200
O        2.30377305      10.31969669       6.10531430       0.02180159       0.00332868      -0.03030472
C        3.77271771       7.34836239       5.26755104      -0.00434986      -0.02011102       0.00626880
C        4.49255689       7.72608938       6.55123878      -0.00134692      -0.00916919       0.00080019
C        2.95821816       9.33087913       6.03704431       0.01240844      -0.00325960      -0.02024324
H        4.44340268       7.08143214       4.45519332      -0.00698906      -0.03938167       0.01040465
H        3.03261720       6.56205113       5.41935618      -0.01312554      -0.00956151       0.01750952
H        4.50120753       6.94514846       7.30622957      -0.00609854       0.00057608       0.01063406
H        5.50216304       8.10320862       6.36643183       0.00041601      -0.01684102      -0.00445407
O        7.28890337       6.93513361      10.34043165      -0.00563900       0.00532871       0.00838304
O        8.86353389       5.56056421       9.58409958      -0.01201469       0.00340046      -0.00090759
O        6.69964209       5.10657696       9.16997262      -0.01435173       0.00958741       0.00642985
C        8.52703028       7.64549090      10.53393216      -0.00294489       0.00201905       0.00436552
C        9.58324262       6.56703667      10.33171454      -0.00682688      -0.00041771      -0.00070576
C        7.53397782       5.81270585       9.65298094      -0.01057458       0.00643876       0.00483882
H        8.51780485       8.09127937      11.52471118       0.00211478       0.00112073       0.00466159
H        8.58215687       8.42623742       9.77775770      -0.00372074       0.00230682       0.00494894
H       10.43168862       6.90944564       9.74461672      -0.00757748      -0.00164090      -0.00205570
H        9.93932754       6.10385152      11.25088922      -0.00590868      -0.00338650      -0.00254548
