141
Lattice="12.377313659604011 0.0 0.0 0.0 12.377313659604011 0.0 0.0 0.0 12.377313659604011" Properties=species:S:1:pos:R:3:forces:R:3 energy=-208991.640625 stress="-0.0023047425784170628 0.0005749957635998726 0.0003418341075303033 0.0005749957635998726 -0.0026261466555297375 0.0001985223061637953 0.0003418341075303033 0.0001985223061637953 -0.004158541560173035" pbc="T T T"
Sr      11.90008488      11.78181962       0.55181076       0.02204785       0.01135469      -0.00765274
S       11.46250287       9.10966500       0.46427748       0.01287103       0.02168942      -0.03037953
S       11.23534849       9.78318674       2.41882969       0.01791112      -0.00053778      -0.02342683
O       12.81355569       9.66138719       0.06363246       0.01402056       0.01387882      -0.02982971
O       10.49973980       9.97185319      -0.31428564       0.01949060       0.02976370      -0.02628553
O       11.32252315       7.69832827       0.29706124      -0.00080654       0.01941442      -0.03715049
O        3.17667454       2.78255422       6.30202586       0.00264495      -0.01413965      -0.00465837
O        1.88990277       4.51268807       6.37321707      -0.00294125      -0.01980406      -0.00514294
O        4.12728705       4.83346122       6.20600985      -0.00755417      -0.01356697       0.01419741
C        4.50472807       2.19882692       6.19119902       0.00559095      -0.00900155       0.01397128
C        4.35601034       0.73364123       6.46398497       0.00760449      -0.00882530       0.01350050
C        3.16062552       4.11523795       6.28179542       0.00164509      -0.01244760       0.00167704
C        1.73570388       5.94025135       6.47454733      -0.00967866      -0.02142499      -0.00111293
H        4.87815021       2.40868214       5.18834774       0.01817459      -0.00790974       0.01939410
H        5.15218614       2.69348191       6.91125420      -0.00663909      -0.00651383       0.02224904
H        5.32983116       0.25054383       6.43590511       0.01048745      -0.00358736       0.03750122
H        3.92888070       0.56193554       7.45000487      -0.01307892      -0.00900482       0.00359467
H        3.72690763       0.25237716       5.72132112       0.02758549      -0.01545119       0.00210918
H        2.43961282       6.35124492       7.19106891      -0.01596096      -0.02120146       0.00401199
H        0.71536786       6.09407894       6.80186079      -0.01230490      -0.02723270      -0.00599790
H        1.91270183       6.41513894       5.51275947      -0.00732885      -0.01736635       0.00170878
O        4.51599454       3.51172373       9.19485261      -0.00620211       0.00992313       0.01651257
O        2.89736656       2.08974671       9.25496997      -0.00535724       0.01001056       0.00551351
O        2.39746788       4.29428907       9.41880369      -0.01033646       0.00649267       0.00683416
C        5.04353546       4.86556709       9.21286376      -0.01025504       0.00922176       0.01776080
C        6.50195732       4.76045052       8.85565160      -0.01483977       0.01475725       0.00377572
C        3.19476819       3.39961661       9.29871940      -0.00781965       0.01093125       0.00970563
C        1.49898414       1.80164714       9.20129958      -0.00678739       0.01216446      -0.00031368
H        4.49996198       5.45941204       8.48092571      -0.01977423       0.01018563       0.02676210
H        4.88430407       5.28401665      10.20839283      -0.00261469       0.00406513       0.02057779
H        6.94376151       5.75677255       8.83857829      -0.01528085       0.01410230       0.01661752
H        7.04788062       4.15038182       9.57526518      -0.00906591       0.00305079      -0.01115815
H        6.62084587       4.31928739       7.86586001      -0.02343060       0.03197771      -0.00424962
H        1.00880810       2.11865943      10.12494355      -0.00649371       0.00389640       0.00196117
H        1.43353873       0.72348309       9.07578302      -0.00274546       0.01444913      -0.01533695
H        1.04140410       2.31440879       8.35621594      -0.00339693       0.01711884       0.00299001
O        3.25435129      10.26352121       5.94611552      -0.00105336      -0.00387099      -0.00574928
O        5.25090406       9.58006641       6.44299344      -0.00738844      -0.01212846      -0.00434713
O        3.67553754       8.04409048       5.93834507      -0.01270175       0.00029075       0.00521480
C        1.92567158       9.96989503       5.45534167      -0.00545882       0.00473601       0.00141238
C        1.16832024      11.26934321       5.38326586       0.00112382       0.00765356      -0.01048712
C        4.03140382       9.18436134       6.09938300      -0.00968038      -0.01182353      -0.00179964
C        6.21008953       8.50614770       6.51960713      -0.01154226      -0.01312213      -0.00589502
H        2.01774610       9.51527103       4.47000249      -0.01064780      -0.00791742       0.00794667
H        1.44453356       9.25338468       6.11923409      -0.01060368       0.01654476       0.00765008
H        0.19804651      11.07684209       4.92788355       0.00372398       0.00853724      -0.01641285
H        1.00561881      11.69185785       6.37622381       0.02124199       0.02320898      -0.01314071
H        1.70728574      11.99911655       4.77843009       0.00760338      -0.00841078      -0.02039811
H        5.81780933       7.70491781       7.14015299      -0.01135096      -0.00781938      -0.00060752
H        7.08934530       8.94938986       6.96570014      -0.00717726      -0.01387106      -0.01299369
H        6.41932604       8.14347568       5.51739534      -0.02000552      -0.01676301      -0.00571173
O        5.56502632       9.00190967       9.33650516      -0.00896168      -0.00301015      -0.00104150
O        3.51317407       9.48021392       8.85712844      -0.01142690      -0.00514938       0.00747311
O        4.03208194       9.00327780      11.00952105       0.00129259       0.01227269       0.00779223
C        6.56920764       8.62320818      10.30552830      -0.00531894       0.00279713      -0.00307417
C        7.91881300       8.58575835       9.64299432      -0.00726682       0.00784479      -0.00573242
C        4.34278039       9.14420572       9.85497104      -0.00523129       0.00231875       0.00353694
C        2.14757430       9.63548346       9.25131232      -0.00699130       0.00364879       0.01782620
H        6.53452562       9.34389421      11.11378827      -0.00657142       0.00299418      -0.00363645
H        6.28890473       7.65451894      10.72273825      -0.00076392       0.00243029      -0.00163557
H        8.67233707       8.32522978      10.38989287      -0.00524034       0.01207634      -0.00690861
H        7.95505028       7.85554647       8.83686674      -0.00517486       0.00721176      -0.00464360
H        8.18246255       9.55848755       9.22714211      -0.01246465       0.00830263      -0.00690406
H        1.74397911       8.69956934       9.63359820      -0.00788965       0.00852436       0.02718663
H        1.62283053       9.94296154       8.35076895      -0.01315252       0.00137996       0.02112910
H        2.06098416      10.38958792      10.03356185       0.00185573       0.00729084       0.01461825
O        9.58919538       7.81722887       6.73330514       0.00645697      -0.00003132       0.00431655
O        9.15338178       9.83973639       6.09376073      -0.00257191      -0.00600487      -0.00441473
O       11.31772347       9.20548550       6.26996618       0.00323629       0.00472735      -0.00177986
C       10.55977321       6.78190238       7.00983448      -0.00006098       0.00366417       0.00334653
C        9.86527474       5.63469703       7.69257075       0.00195014       0.00601220       0.00480694
C       10.13699785       8.97583547       6.35094647       0.00255859      -0.00208649      -0.00432729
C        9.59216842      11.11859457       5.61845618      -0.00373816       0.00724063       0.01165158
H       11.00605803       6.48119477       6.05910044      -0.00682996       0.00632344       0.00207308
H       11.34690238       7.20455490       7.63347386       0.00114402       0.00377709      -0.00151426
H       10.57997126       4.82005638       7.81687897       0.00289607       0.00873668       0.00469874
H        9.50158221       5.92502291       8.67774572       0.00374099       0.00328420       0.00562431
H        9.02694362       5.26676559       7.10386118       0.00272536       0.00221752       0.00707120
H       10.34547845      11.53615087       6.28369767       0.00869945       0.00265922       0.00561620
H        8.70398851      11.74169681       5.60981265      -0.00576022       0.00904867      -0.00100650
H       10.00020995      11.02049337       4.61184899      -0.00486591      -0.00335553       0.01311433
O        3.75169435       9.52779353       2.74591716       0.00295550       0.00819109      -0.00320849
O        4.99823623      11.18645870       3.41022656      -0.00873415       0.01500145      -0.00933968
O        5.79311001       9.08335807       3.61268569      -0.00261974       0.02870524      -0.00670257
C        3.55070585       8.07940410       2.62785980       0.01075464       0.00898547      -0.00356087
C        2.24731726       7.85932904       1.91792056       0.01105464       0.00066546      -0.00283065
C        4.92312906       9.84431260       3.28151144       0.00203550       0.01408535      -0.00474706
C        6.22064297      11.60159060       4.03895510      -0.01560170       0.02630340      -0.00733767
H        4.39596518       7.67340449       2.08318926       0.01154876       0.01352386      -0.00460711
H        3.56633914       7.67206068       3.63799832       0.01335534       0.00756614      -0.00455165
H        2.02817551       6.78983227       1.88546086       0.01911270      -0.00117116      -0.00411987
H        1.41950799       8.34759583       2.43225270       0.00900772      -0.00594458      -0.00133488
H        2.28278610       8.23058969       0.89697523       0.00812061       0.00166962      -0.00196633
H        6.25201398      11.22502204       5.05883822      -0.00943903       0.01890965      -0.01075426
H        6.21122555      12.68801910       4.01799476      -0.02922871       0.02711210       0.00329363
H        7.07969139      11.21358157       3.49536433      -0.01032698       0.04410692      -0.01067367
O        6.56994159       9.13091685       0.93654543       0.01344986      -0.01089543       0.00185081
O        6.11547334       7.02578964       0.78546714       0.00404237      -0.00855950      -0.01270750
O        8.27041375       7.64499820       1.09320525       0.00485003      -0.01945579       0.01121402
C        7.54551708      10.18948916       0.98187169       0.01425788      -0.01210964       0.01392415
C        6.81179145      11.47045689       0.68916519       0.02092698      -0.01345965      -0.00566758
C        7.10178611       7.91001973       0.97059168      -0.00039375      -0.01131979      -0.00055723
C        6.56880805       5.68229723       0.62462142      -0.00016971      -0.00996277      -0.01231701
H        8.02561824      10.17495302       1.96141665       0.00974512      -0.00028653       0.01615638
H        8.31803903       9.98580052       0.24133039       0.02743557      -0.01815835       0.03118557
H        7.50249053      12.31621373       0.72385125       0.02013892      -0.01440257       0.00574243
H        6.37105930      11.43527047      -0.30623817       0.04138361      -0.01635955      -0.01416034
H        6.01422621      11.64957335       1.40733087       0.00691766      -0.00723614      -0.02300942
H        7.07225829       5.57463418      -0.33688262       0.00187162      -0.01072161      -0.01119864
H        5.68684394       5.05482611       0.64721698      -0.00058937      -0.00958163      -0.01504246
H        7.25886693       5.39856402       1.41433967      -0.00264850      -0.01290928      -0.01111791
O        5.18678249       4.00395077       3.42214493      -0.00398824      -0.00358160      -0.00012687
O        7.22123511       4.37265058       4.09577398      -0.00497785      -0.00600305      -0.00306335
O        5.87269014       6.14223141       3.70307956      -0.00157122      -0.00299954      -0.00546264
C        3.89754134       4.52214933       3.02234554      -0.00257391      -0.00432128      -0.00194273
C        2.95063406       3.35773625       2.89831622       0.00094193      -0.00508109      -0.01597872
C        6.06511932       4.95851101       3.74538233      -0.00214198      -0.01065600      -0.00308422
C        8.26292978       5.32762919       4.35821862      -0.00442958      -0.01003684       0.00167607
H        3.57721823       5.24936306       3.76740868      -0.00869209      -0.01116025       0.00210282
H        4.01871045       5.04898827       2.07396700       0.00050516       0.00408447       0.00337952
H        1.98793357       3.71380725       2.53037613       0.00015573      -0.00502656      -0.01289263
H        3.33624746       2.61441609       2.20061714       0.00445311       0.00460072      -0.02356638
H        2.78528379       2.87581574       3.86093174       0.00270123      -0.01600187      -0.02155930
H        8.49162326       5.90266467       3.46081206      -0.00745600       0.00073899       0.00808260
H        9.12244896       4.73865537       4.66626528      -0.00358342      -0.01278265      -0.00704993
H        7.95884120       6.01780173       5.14337465      -0.00080052      -0.01771289       0.00939843
O        8.26213632       2.20733308      10.88332180       0.00139909       0.00239362      -0.00213914
O        6.26250133       1.36451795      10.86431789       0.00229211       0.00097907       0.00353661
O        6.78247140       2.87467211      12.46217903       0.01344988      -0.00955799       0.01110709
C        9.18612801       3.19317895      11.39946795       0.00540853      -0.00627160       0.00210041
C       10.47894207       3.04693426      10.64520668       0.00337049      -0.00810688      -0.00066695
C        7.06802759       2.21068825      11.49666487       0.00612715      -0.00391793       0.00362933
C        4.94774655       1.28402451      11.44192928       0.00446683      -0.00409511       0.00824097
H        8.75803606       4.18610379      11.25073171       0.01010191      -0.00302503       0.01992533
H        9.30383308       3.04660712      12.47395225      -0.00141193      -0.00552437       0.00226671
H       11.19589813       3.79489460      10.98600155       0.00329825      -0.00997351       0.00028379
H       10.91313799       2.05299565      10.79488037       0.00519113      -0.00789548      -0.00623215
H       10.32162945       3.17510633       9.57508030       0.00695516      -0.00667349      -0.00078531
H        5.00709363       0.94046529      12.47148422       0.00939136      -0.00757873       0.00659060
H        4.40662834       0.57812766      10.82191753       0.00532703      -0.00443867       0.00796889
H        4.46991411       2.25915428      11.41001257       0.00113837      -0.00548941       0.01223215
