150
Lattice="12.786722685355938 0.0 0.0 0.0 12.786722685355938 0.0 0.0 0.0 12.786722685355938" Properties=species:S:1:pos:R:3:forces:R:3 energy=-623996.1875 stress="-0.0007515946053899825 0.0006698387151118368 -0.0003925191122107208 0.0006698387151118368 -0.0007012947462499142 0.0011320136836729944 -0.0003925191122107208 0.0011320136836729944 -0.0023135312367230654" pbc="T T T"
Sr      13.00075016      13.67120206      -0.16792330       0.00100283       0.01518510       0.01048724
O       11.88716565       3.79349564       5.96965765       0.02073598       0.00987679       0.01364398
O       11.07917620       2.01690754       3.79276092      -0.00130635       0.00457668       0.02621597
O       12.15018570       4.63069878       3.22288030      -0.02439559       0.01546669       0.02230263
O        9.47609003       4.38880983       4.39009295      -0.00549245      -0.00223315       0.03652489
W       11.13025986       3.70955647       4.36152479      -0.00597546       0.00386689       0.02803436
C        2.28038156       9.28155143       6.24027960       0.01881731      -0.00866051      -0.00671803
C        1.69898594      10.47263123       6.66065756      -0.01543342      -0.02025849       0.00468168
C        3.54571592       9.29088144       5.66451768      -0.01537593      -0.01514925       0.01208735
C        2.38983975      11.67129367       6.51927438       0.01389800      -0.00625785      -0.00405171
C        4.23896535      10.48623757       5.53249033       0.01394303      -0.00041452       0.00222173
C        3.66697173      11.67363199       5.97214549      -0.02326839      -0.01250249       0.01356359
H        1.74104334       8.34832315       6.33405283       0.00110501      -0.01693827      -0.00140915
H        0.70149993      10.46623999       7.08216164       0.00075498      -0.01702081      -0.00494891
H        3.97932680       8.36475745       5.30870729       0.00843658      -0.00708134       0.00567665
H        1.93935211      12.60508908       6.83562771      -0.00931156      -0.01336816       0.00426847
H        5.22784680      10.49896027       5.09034152      -0.00350496      -0.00379471       0.01301509
H        4.22240730      12.59613817       5.89337526      -0.00479642      -0.00341661       0.00708806
C        7.03220104      10.03855334       8.84959072       0.00939938       0.00584834       0.01583267
C        6.81740330      11.39764129       9.05055763       0.01693851      -0.01194082       0.00053789
C        5.94714950       9.17452853       8.76022594       0.00271099      -0.00697912       0.02262547
C        5.52303495      11.88676220       9.17501363       0.01998886       0.01450616      -0.00137736
C        4.65326371       9.65879224       8.90959730       0.00636998       0.01949281       0.02147425
C        4.44343107      11.01352752       9.12618299       0.01351029       0.00084845       0.00492394
H        8.03914596       9.65883428       8.73405188       0.00642960      -0.01233783       0.01593859
H        7.65737848      12.07967942       9.09158661       0.01946946      -0.00379998      -0.00445665
H        6.10733079       8.12380009       8.55081142      -0.00186737       0.00071183       0.03443563
H        5.35992211      12.95179140       9.27450253       0.02563470       0.00497037      -0.01163540
H        3.81034382       8.98891955       8.81441650       0.00163491       0.01110683       0.02697412
H        3.43000739      11.38620877       9.20292989       0.01637238       0.01927100       0.00289899
C       12.37139717      10.85282931      10.54045288       0.01267165       0.03706609       0.01228536
C       12.34424462       9.46611421      10.67260106       0.01556075       0.03648417       0.00934072
C       11.33334175      11.62039241      11.08088141       0.00981315       0.03324128       0.01038908
C       11.28826086       8.84904649      11.33322719       0.01410950       0.03369679       0.00374101
C       10.27608763      10.99653647      11.75127431       0.00968386       0.03058545       0.00757432
C       10.26010594       9.61217701      11.87652160       0.01188870       0.03004751       0.00324819
H       13.16015700      11.30928397       9.95055137       0.01305611       0.04016130       0.01537382
H       13.12299958       8.86568821      10.22077762       0.01886014       0.03952616       0.01178814
H       11.24503913      12.68453546      10.84232153       0.00773878       0.03332400       0.01152781
H       11.25201644       7.76831985      11.40311164       0.01518975       0.03330846      -0.00005573
H        9.44907021      11.58178528      12.13266628       0.00906552       0.02883989       0.00773230
H        9.43181512       9.12444699      12.37463870       0.01131803       0.02747243      -0.00028511
C       11.19861480       6.76110444       6.75113638      -0.00798290       0.02916563      -0.00020882
C       11.71456917       7.96321395       7.21979276      -0.00797254       0.03048627       0.00779459
C        9.90780086       6.72042779       6.23628469       0.00057791       0.02966899      -0.00560839
C       10.94971487       9.12413497       7.16210505      -0.01414847       0.02850707       0.00353892
C        9.14320255       7.87828796       6.17979659      -0.00589469       0.02773681      -0.00871457
C        9.66508036       9.08466223       6.63399734      -0.00536658       0.02857797      -0.00071946
H       11.77255049       5.83880655       6.74883113      -0.00332057       0.03158158       0.00478539
H       12.71996647       7.99701150       7.62229597      -0.01331653       0.03045182       0.01259875
H        9.53132667       5.78287392       5.83633715       0.00117642       0.02841890      -0.00916931
H       11.35161076      10.06142857       7.52628472      -0.01305643       0.02852229       0.00799185
H        8.14079789       7.84258340       5.76711578      -0.00101030       0.02696204      -0.01141825
H        9.07487340       9.99025910       6.57346141      -0.01029021       0.02708521      -0.00235511
C        0.91641857       8.24663456       3.20009244      -0.01611100      -0.00262515      -0.00738466
C        1.27611662       7.10363253       2.49348661      -0.02048450      -0.00441279      -0.00918917
C        1.55436389       9.45720565       2.95399363      -0.01133782      -0.00815545      -0.00022779
C        2.28219962       7.18825566       1.53487615      -0.01597175      -0.00350939      -0.00701539
C        2.55470045       9.53572639       1.99145496      -0.00605319      -0.00742157       0.00262035
C        2.91949265       8.39847509       1.27958641      -0.01118189      -0.00881029      -0.00000875
H        0.14765570       8.18189209       3.96003991      -0.02027234      -0.00289509      -0.01002082
H        0.76203922       6.16740606       2.70652991      -0.02338140      -0.00089285      -0.01221763
H        1.29696832      10.32785960       3.54503685      -0.00858689      -0.00744525       0.00079022
H        2.58210046       6.29953501       0.99052385      -0.01992975      -0.00436492      -0.00925367
H        3.07326688      10.47202241       1.81756947      -0.00195975      -0.01112822       0.00787436
H        3.71494940       8.45454807       0.54682871      -0.00836784      -0.00804780       0.00179014
C       11.20444514       2.41035314       1.08158339      -0.00541746       0.00281289       0.02039883
C       11.49109066       3.73039668       0.73080753      -0.00267071       0.00129576       0.01744799
C        9.91769673       1.89184833       0.91498689      -0.00266308       0.00131358       0.01575467
C       10.45579978       4.55459317       0.29905076      -0.00129031      -0.00054133       0.00810711
C        8.89559382       2.72365726       0.48803896      -0.00194415      -0.00079676       0.00566728
C        9.15984163       4.06685118       0.23087552       0.00120534      -0.00216004       0.00166639
H       11.87895045       1.87889528       1.76055397      -0.00752207       0.00191177       0.02160167
H       12.47180277       4.14440963       0.91973666      -0.00410923       0.00089662       0.02145950
H        9.70200955       0.87989977       1.23836509      -0.00075692       0.00256578       0.01981021
H       10.65256823       5.60234536       0.11048635       0.00031365      -0.00149442       0.00369062
H        7.87995739       2.35361279       0.42746932      -0.00073005      -0.00071372       0.00037509
H        8.34142170       4.73481706      -0.00573295       0.00241986      -0.00287185      -0.00631584
C        5.77604888       2.83754858       4.89529213       0.00583762       0.00219880      -0.00257191
C        4.72353302       1.97956570       4.61738614      -0.00394617      -0.01863360      -0.01386739
C        7.00586591       2.67667823       4.26353916      -0.00058523      -0.01698336      -0.00049632
C        4.88515727       0.96405559       3.68097165       0.01554255      -0.00736961       0.00612108
C        7.16652474       1.64989664       3.34367581       0.01822525      -0.00704182       0.02000201
C        6.10579497       0.80331206       3.03946464       0.00912842      -0.02709116       0.01019388
H        5.63732284       3.62983725       5.62254827      -0.00611034      -0.00305633      -0.01456051
H        3.77435551       2.09884551       5.12432022      -0.00086701      -0.00593193      -0.01598464
H        7.85550581       3.33568489       4.46046448       0.00284851      -0.00441507       0.00759617
H        4.05979450       0.30024657       3.46573274       0.01077387      -0.02039579      -0.00068209
H        8.13614071       1.52188468       2.88409046       0.01549804      -0.01977312       0.02427731
H        6.22906878       0.01144182       2.30907576       0.02322830      -0.02472915       0.02325355
C        1.87294096       3.70668150      11.19556841      -0.01236410      -0.01007691      -0.01368019
C        1.57450328       2.42518777      10.72905397      -0.01225743      -0.00833614      -0.01758404
C        3.18111110       4.02707456      11.53581583      -0.01350547      -0.01412100      -0.00407758
C        2.57028167       1.44127140      10.69209279      -0.01469849      -0.01040191      -0.01207332
C        4.18293127       3.06644105      11.45891964      -0.01601097      -0.01652262       0.00083428
C        3.87270325       1.76700157      11.07727324      -0.01600142      -0.01480599      -0.00370032
H        1.09946503       4.45907561      11.24856970      -0.00945511      -0.00707390      -0.01971500
H        0.58132456       2.23542065      10.31381902      -0.00928564      -0.00779597      -0.02367972
H        3.42055200       5.03293539      11.85254337      -0.01337101      -0.01530358      -0.00191446
H        2.36634660       0.44563788      10.30575084      -0.01581756      -0.00818579      -0.01563731
H        5.20568124       3.33220838      11.69984679      -0.01716557      -0.01885412       0.00836761
H        4.64818013       1.01393259      11.05272030      -0.01817879      -0.01680005      -0.00109880
C        2.14792997       3.01167331       2.84462617      -0.01651518      -0.02020270      -0.00246048
C        2.67306776       2.37347221       1.72706703      -0.00648479      -0.01734091       0.00113807
C        1.33280342       2.31758575       3.72671984      -0.01586075      -0.02355810      -0.00486675
C        2.37010012       1.03340240       1.48518446       0.00521402      -0.02014896       0.00157891
C        0.97642801       0.99788366       3.46326322      -0.00656694      -0.02567957      -0.00666738
C        1.48437520       0.34958157       2.33464991       0.00357015      -0.02314779      -0.00213315
H        2.38435239       4.04983998       3.04175500      -0.02466090      -0.01842558      -0.00242198
H        3.35774924       2.89408118       1.07540826      -0.00605885      -0.01359528       0.00468505
H        0.93936497       2.81270517       4.60770979      -0.02034402      -0.02673756      -0.00605687
H        2.86602411       0.51331727       0.66663656       0.00986749      -0.01740317       0.00337887
H        0.28533057       0.50406294       4.13017724      -0.00853609      -0.03023136      -0.01185572
H        1.24839336      -0.69917753       2.15992746       0.00720489      -0.02319481      -0.00097536
C        5.70858804       5.76862289       1.73337584       0.00735241       0.00228993      -0.01130055
C        5.96266725       6.57087577       0.62634997       0.00414273       0.00541644      -0.01156662
C        6.60307549       5.75104312       2.79624152       0.01532284      -0.00207579      -0.01716147
C        7.10029788       7.37153950       0.59759703       0.00297360       0.00230192      -0.01542511
C        7.75929435       6.52103504       2.75703844       0.01256846      -0.00446115      -0.02010973
C        7.99599364       7.34411343       1.66249483       0.00902490      -0.00010955      -0.01891015
H        4.81493943       5.15610916       1.77390385       0.00605148       0.00795922      -0.00675188
H        5.27432078       6.58332742      -0.21081479      -0.00158284       0.00696641      -0.00710163
H        6.41305251       5.11611469       3.64865331       0.01997912      -0.00475171      -0.01782291
H        7.28227446       8.01073337      -0.25883928       0.00100871       0.00444728      -0.01561517
H        8.48229039       6.43010496       3.55733181       0.01800209      -0.00371856      -0.02398270
H        8.88993004       7.95620598       1.64156418       0.01020510      -0.00539111      -0.01592180
C        7.77490026       3.22541606       7.60007590       0.02759046      -0.00150699       0.01856369
C        8.28266411       2.65739168       8.76007414       0.00530787      -0.00348441      -0.03140882
C        7.56761034       4.59754969       7.53755846       0.01449285      -0.01245624      -0.03028695
C        8.59668016       3.45716322       9.84919856       0.01268320       0.00609633       0.01604894
C        7.86848749       5.39943507       8.63132211       0.01996146      -0.00187302       0.01508950
C        8.38663083       4.83042164       9.78764652      -0.00534137      -0.00182120      -0.02946807
H        7.56047445       2.60311970       6.74519317       0.02505651      -0.01013914      -0.01326226
H        8.44936375       1.58798115       8.80659851       0.01848606      -0.00026773      -0.00134973
H        7.20626797       5.04682382       6.62061932       0.03066680      -0.00802186      -0.01102421
H        9.01419157       3.01645992      10.74275028      -0.00202197       0.00333377      -0.00622426
H        7.73740324       6.47246478       8.57068245       0.00740993      -0.00405456      -0.01366885
H        8.64242386       5.45784865      10.63164331      -0.00180593       0.00346390      -0.00033194
C        3.90480440       5.48357454       8.29995337      -0.00513150      -0.00895483      -0.00548536
C        2.85402692       4.86195904       7.63286148      -0.00960042      -0.00625953      -0.01102944
C        3.63645381       6.39761198       9.31167084      -0.00897293      -0.00985122      -0.00762673
C        1.53361764       5.14156137       7.97159394      -0.00530927       0.00032736      -0.01442613
C        2.32037400       6.69005763       9.65255496      -0.00495195      -0.00382295      -0.01019225
C        1.27354568       6.05855073       8.98764317      -0.00870332      -0.00109259      -0.01654560
H        4.93129482       5.24891241       8.04555723      -0.00813392      -0.01366484      -0.00325279
H        3.06198823       4.15061459       6.84283648      -0.00686611      -0.00653678      -0.00864604
H        4.45313474       6.87519309       9.83989481      -0.00711682      -0.01243932      -0.00322338
H        0.72104054       4.64855232       7.44136882      -0.00706688       0.00247425      -0.01897067
H        2.11963308       7.39068194      10.45667918      -0.00809645      -0.00513340      -0.01134378
H        0.24630221       6.26984558       9.26330895      -0.00784890       0.00097655      -0.02238100
