147
Lattice="12.4954501903759 0.0 0.0 0.0 12.4954501903759 0.0 0.0 0.0 12.4954501903759" Properties=species:S:1:pos:R:3:forces:R:3 energy=-221299.046875 stress="-0.001258759992197156 0.00048665981739759445 -9.086972204386257e-05 0.00048665981739759445 -0.00038920686347410083 0.00026634414098225534 -9.086972204386257e-05 0.00026634414098225534 -0.0008378412458114326" pbc="T T T"
Sr      11.23500832      11.65938855      -0.70981367      -0.03379210      -0.02271944      -0.01132756
S       12.23326387      12.90840616       1.59873306       0.00521873       0.02195454      -0.03012027
S       12.27582169      10.86342299       1.77997504       0.00642884       0.02938786       0.01818496
O        9.70312327       2.44414039       5.32337074      -0.00885808      -0.00921723       0.01225257
O        8.14209201       3.51503352       4.15899535      -0.00963107      -0.00643355       0.01582517
C       10.17736853       2.87805029       3.03640473      -0.00741813       0.00223075       0.01487106
C        9.24037441       3.00339187       4.17335688      -0.00844806      -0.00553304       0.01439291
H       11.16359941       3.26090109       3.30600834      -0.01084268       0.01130390       0.01544292
H       10.31292435       1.81960314       2.78340695       0.00241221       0.00406530       0.01367863
H        9.78504308       3.42093221       2.18078200      -0.01088464      -0.00049271       0.01470417
H        8.98532568       2.54963420       5.97349551      -0.01138991      -0.01852593       0.01154333
O        9.41432327      10.74136250       0.97974751       0.01093239       0.00189389       0.01830508
O        8.73184370      11.33791160       3.03206738      -0.00703812       0.00434987       0.01005673
C        7.09081942      11.11938425       1.30757455       0.00753969      -0.00563759      -0.00270876
C        8.46272761      11.09610775       1.87520820       0.00237312       0.00090371       0.00894558
H        7.08457457      11.16879858       0.22471187       0.01432174      -0.00751116      -0.00308722
H        6.57765034      10.20689100       1.62416058       0.00955452      -0.00750831      -0.00538611
H        6.53532141      11.95763456       1.72323818       0.00069065      -0.00781778      -0.00815895
H       10.32798496      10.63062261       1.47793538       0.00927675       0.01334334       0.02496070
O        6.43106556       2.22631772       2.59132937      -0.01069987       0.01673238      -0.00001661
O        4.86131873       3.12383432       3.91346108      -0.00622047      -0.02752435       0.03525400
C        4.22255004       1.49610503       2.26221928      -0.00911117       0.01533300      -0.00608763
C        5.16959872       2.37688923       3.00654536      -0.00871646      -0.00079376       0.01300329
H        4.54907872       1.37326895       1.23228770      -0.01140837       0.04258260      -0.01004088
H        4.21927273       0.51149923       2.73622165      -0.00485500       0.00427604      -0.02901687
H        3.21343465       1.89700309       2.29630795      -0.01041362       0.01116521       0.00729353
H        7.00298025       2.81106213       3.14120927      -0.00996999       0.00529909       0.01183748
O        3.61928179       5.50610992       0.40222285      -0.00750649       0.01093148       0.00277466
O        4.36053742       7.21994232      -0.81920333       0.01005471       0.00486168       0.00593671
C        5.84962656       6.23753855       0.78828989       0.00236553      -0.01448158       0.00123745
C        4.57295391       6.40171671       0.05097037       0.00249980       0.00096017       0.00273067
H        5.76298614       5.53685836       1.61251859      -0.00346764      -0.01703860      -0.00229301
H        6.59370202       5.86359859       0.08531690       0.00041009      -0.01569168       0.00004211
H        6.18729566       7.20837986       1.14349263       0.01007656      -0.01920882       0.00607011
H        2.89156979       5.61998980      -0.22586948      -0.00919759       0.02298975       0.00673473
O       11.83686807       0.62797973       7.36678085       0.00320017       0.00033337       0.01484293
O       12.39047762       0.17736725       9.49643191      -0.03388944      -0.02835234       0.01762390
C       10.41903378       1.43768899       9.06886811      -0.00693980       0.00909606       0.00190783
C       11.64909973       0.69704751       8.66833987      -0.01508519      -0.00877762       0.01208490
H        9.87724370       1.85764188       8.22800881      -0.00195491       0.00099976      -0.00499448
H        9.75314082       0.74217881       9.59175447      -0.01393136       0.02633154       0.01614133
H       10.68771536       2.22850300       9.76989311       0.00211307       0.01827651      -0.01196760
H       12.60390841       0.07109459       7.16175667      -0.00126910      -0.00926828       0.02248023
O        6.88038058       1.06910508      11.75456397       0.00895745      -0.00723934      -0.00853355
O        5.83566071       3.02193285      12.17604871      -0.02186179      -0.01005101      -0.00707373
C        8.23335757       2.97413178      11.93823673      -0.00852245       0.00616303      -0.00049993
C        6.84599719       2.39838629      11.98422882       0.01103497      -0.01601329      -0.00922006
H        8.94259310       2.31131289      12.43886535      -0.00310092       0.01123354      -0.00316851
H        8.52842681       3.05924949      10.88853799      -0.00737892       0.01693893       0.00084557
H        8.26609052       3.96390979      12.38297440      -0.01979486       0.00345945       0.00639973
H        5.97401448       0.70089008      11.72104597       0.01327538      -0.01498374      -0.00884556
O       11.62594440       3.54713765       6.99630735      -0.00269946       0.00612277      -0.00603211
O        9.80522672       4.83006549       7.27826177      -0.01223433      -0.01532310       0.02888682
C       11.71362010       5.17221707       8.70137699       0.00637278       0.00094295      -0.00113165
C       10.93760270       4.53203194       7.59019096      -0.00445944      -0.00400102       0.00892687
H       11.25227435       4.87681853       9.64620386       0.01484168       0.00626891       0.00447276
H       12.75913889       4.87094239       8.69288274       0.00640509       0.00161871      -0.00980281
H       11.60865493       6.25416639       8.62976875       0.00585333       0.00057581      -0.00561544
H       11.06545440       3.16972010       6.28544133      -0.01087600       0.00169441       0.00253886
O        3.05950088       5.72362206       3.33446069       0.01923364       0.00057254      -0.00186968
O        4.24093160       7.58978521       2.96383118       0.01445588       0.00408876       0.00199151
C        4.58757031       6.36541061       5.01077245       0.00482202       0.00954027       0.00680560
C        3.97870463       6.64935797       3.68108457       0.01294203       0.00487047       0.00241011
H        3.88820224       6.64515373       5.80076482      -0.00272669       0.00498024       0.00151213
H        4.79441600       5.30212382       5.11071445       0.00982757       0.01069725       0.00908154
H        5.49227749       6.95383328       5.13110619       0.00006142       0.01511969       0.01403500
H        2.81175660       5.89834495       2.41379880       0.02491325      -0.00212047      -0.00394642
O        4.48995478      10.37640320       7.59765191      -0.00864273      -0.00447023      -0.00898314
O        3.86555306       8.25160828       7.89908322       0.00239611      -0.01013738      -0.01930368
C        5.65762189       9.14711400       9.23834966      -0.00588369      -0.00441960      -0.01130408
C        4.58137716       9.18106969       8.20503977      -0.00270540      -0.00533551      -0.01331772
H        6.61793936       9.17268291       8.71867462      -0.00503427      -0.00415761      -0.00974660
H        5.60941781      10.02983049       9.87752118      -0.00736028      -0.00403629      -0.01202953
H        5.58043887       8.24013119       9.82988148      -0.00561620      -0.00406152      -0.01093269
H        3.87723354      10.26189069       6.84722318      -0.00586209      -0.00366649      -0.01147592
O        3.61059408       9.80843905      -0.40596342      -0.00642782       0.00297481      -0.00979878
O        4.91717466      11.56788120      -0.90171490       0.01079249      -0.00826687      -0.00037156
C        2.73197451      11.91420374       0.05012062       0.00593865       0.01085943      -0.02021167
C        3.87056574      11.11380094      -0.47506507       0.00474948       0.00112829      -0.00922585
H        1.78812994      11.42135275      -0.17611487       0.00365692       0.02113357      -0.03190564
H        2.79202271      11.91113477       1.13972308      -0.00523696       0.00994175      -0.01966727
H        2.75914130      12.93643214      -0.31155058       0.01967635       0.01068453      -0.01937173
H        4.36353354       9.25247024      -0.67430599      -0.00621784      -0.00203855       0.00084198
O        1.62818421      10.50086899       9.27934519      -0.01042014      -0.01396370       0.00216791
O       -0.20307404       9.97703524      10.43953517       0.00400227      -0.03727549       0.01372607
C        1.42184556       8.27408238      10.05857426       0.01531190      -0.02255788      -0.01484109
C        0.86780424       9.64013215       9.94052420       0.00192815      -0.02563497       0.00210303
H        2.07028166       8.02174483       9.22435559       0.01291475      -0.01251371      -0.02005681
H        2.03438134       8.25703479      10.96487808       0.01988409      -0.02692252      -0.01792964
H        0.60182528       7.57145868      10.17656805       0.02110121      -0.02949175      -0.01751616
H        1.17576485      11.37286142       9.29934763      -0.02050903      -0.01983458       0.01168828
O       10.40894423       8.04504459      12.51094243       0.00189269       0.00146797       0.01619452
O        9.08691042       6.24411259      12.73495353       0.00598776       0.00064021       0.03319459
C       11.44602495       5.92561423      12.41294789       0.00163847       0.00087923       0.00673863
C       10.18247570       6.71677250      12.56438692       0.00337392       0.00081190       0.01929976
H       12.03445136       6.28224588      11.56923009       0.00246696       0.01079234       0.01166365
H       12.04572523       6.06091959      13.31485549       0.00131430      -0.01251794       0.00906143
H       11.21073991       4.87154880      12.29733714      -0.00048313       0.00265586      -0.00542728
H        9.62363745       8.47670686      12.88627089       0.00839376      -0.00070053       0.03262877
O       10.43871433       9.75584693       4.47474487      -0.00105926       0.00442821       0.01048915
O        9.75473288       8.43530450       2.79118573       0.00502503       0.00835474       0.00553322
C       11.58606190       7.70673355       4.13993964      -0.00007427       0.00471860       0.00977710
C       10.50014015       8.65102663       3.72351109       0.00199115       0.00597860       0.00879443
H       12.21154981       7.49577233       3.27240352      -0.00124384       0.00055714       0.01010437
H       12.19862775       8.12059836       4.93876582       0.00134695       0.00386413       0.00908625
H       11.15406711       6.75361379       4.44367898      -0.00287968       0.00640140       0.01135441
H        9.80272887      10.36834562       4.03298992      -0.00281455       0.00327376       0.01178829
O        7.36378099       2.24513024       7.44185801       0.00399129       0.00227189      -0.02618057
O        5.95144482       2.41763251       9.17463559       0.00551111       0.01729888       0.00345737
C        6.76741324       0.23688374       8.59383864       0.00687506       0.00728422      -0.02244061
C        6.62080242       1.72002118       8.46351993       0.03200388      -0.00953582      -0.03548175
H        6.86845570      -0.26143148       7.63100211      -0.00847955       0.00959873      -0.02551340
H        7.64876453       0.01997570       9.20219897       0.01109707      -0.01479566      -0.02154537
H        5.90822266      -0.15600936       9.12947163       0.00031835       0.00746480      -0.02957442
H        7.14425304       3.19170372       7.41119068       0.01547736       0.00492746      -0.01471370
O        4.24880654       3.71805044       7.12700151       0.01314069       0.01201528      -0.01192397
O        2.43610476       3.30775111       8.38792777       0.00729585      -0.01437670      -0.02541873
C        3.94326540       5.08923684       9.00441273      -0.00520453      -0.01934981       0.00718671
C        3.44068571       3.95148198       8.18172958       0.00474429      -0.00885010      -0.01353847
H        4.95297137       4.86879520       9.35009780      -0.01060146      -0.02738242       0.01823382
H        3.98368727       6.00121559       8.40657866       0.00253062      -0.01250224       0.01808991
H        3.29304124       5.25008283       9.85772155      -0.01866749      -0.03342228       0.00011240
H        3.85657509       3.01058041       6.59614628       0.02256194       0.02101433      -0.03149526
O        1.54561474       5.14984258       5.88185680       0.00013980       0.00765681      -0.00592337
O        0.17331887       4.64025507       4.19216365       0.00499344       0.01245257      -0.01089221
C        1.71625426       2.97163654       4.98824798      -0.01095816       0.00420469       0.00121187
C        1.05242923       4.30413502       4.95323036      -0.00206935       0.00830528      -0.00580633
H        2.73904064       3.09069413       4.61273772      -0.01170892      -0.00425545      -0.00344358
H        1.75527237       2.61184492       6.01798779      -0.00713969       0.01047926       0.00293738
H        1.18382745       2.27328590       4.34713001      -0.01711114       0.00397359       0.00674483
H        1.10321367       5.99716125       5.73277410       0.00846225       0.01087260      -0.01222311
O        9.79535721      10.87409055       7.47533413       0.00280648       0.00226825       0.01066265
O        8.08553792       9.59643321       6.79283822       0.00608367       0.00296827       0.00314581
C       10.12202056       8.53009356       7.52990384      -0.00027740       0.00200653       0.01718973
C        9.21220829       9.67006436       7.21053300       0.00247669       0.00232817       0.00964633
H       11.09452584       8.70273186       7.06909903      -0.00028735      -0.00363251       0.01512267
H       10.27083210       8.47843387       8.61120719       0.00093297       0.00862901       0.01730880
H        9.69118983       7.59664919       7.17846261      -0.00314890       0.00095478       0.02319098
H        9.16837918      11.54115088       7.15760444       0.00500709       0.00191888       0.00599340
O        3.50157603       9.91564097       4.94809727      -0.00605249       0.02126720      -0.01368389
O        4.09747731      10.75495168       2.96189456       0.00915217       0.00991973      -0.01542890
C        5.81668720      10.30234308       4.58590108      -0.00076771      -0.00380457      -0.00766388
C        4.42914988      10.36164450       4.05048260       0.00232105       0.00842741      -0.00983661
H        5.85530477      10.46624201       5.65863229      -0.00207411      -0.01296571      -0.00634816
H        6.21253505       9.30129827       4.39959715      -0.00662363      -0.00440803      -0.01642646
H        6.44969231      11.01761178       4.06939703       0.00486770      -0.00337654       0.00000717
H        2.65018751       9.91650498       4.48448785      -0.00480181       0.03038124      -0.01567900
