148
Lattice="13.097197679551885 0.0 0.0 0.0 13.097197679551885 0.0 0.0 0.0 13.097197679551885" Properties=species:S:1:pos:R:3:forces:R:3 energy=-398725.21875 stress="-0.00014868426660541445 0.0004383935156511143 -0.00028494563593994826 0.0004383935156511143 -0.0007218096870929003 6.698694414808415e-05 -0.00028494563593994826 6.698694414808415e-05 6.877862324472517e-05" pbc="T T T"
Tb      13.53269572      13.82602407       0.16252741       0.01910400       0.00992066       0.00746103
O        9.38961415      10.94985547      13.38514852      -0.03390737       0.08294093      -0.00920754
O        9.10767927      13.04551553      12.42319109       0.00481845       0.05369506      -0.01709544
C        9.19575584      11.98712912      12.89912824       0.00030728      -0.04074611       0.03755962
H       12.06494746      12.73271077      12.31479389       0.02563518       0.03604159      -0.03991087
O        1.92899001      12.42617192       0.45630007      -0.01153596      -0.01465878       0.04077137
O        3.36551863      12.46555365       2.21102960      -0.01944476      -0.01353168       0.04688448
C        2.39594656      12.83233142       1.61530177      -0.00925744      -0.00431192       0.03602311
H        1.75751538      13.65356499       2.10208460       0.00348185       0.01329985       0.02046696
O        5.09405682      13.47474376      12.57397471      -0.05843258       0.02260637      -0.00657749
O        6.54791968      11.74968796      12.79259731      -0.00228190       0.08231664       0.04716325
C        5.94866220      12.65077872      12.17271514      -0.03374547       0.03724097       0.01615310
H        6.22109620      12.74834283      11.08172479      -0.04416570       0.00346926       0.01251173
O       10.13179559       9.81764272       9.38135962       0.00580651       0.00767043       0.00581368
C       11.54170685       9.85936645       9.29436403       0.00623837       0.00827980       0.00889346
C        9.55975505      11.11704667       9.32741477       0.00586671       0.00705464       0.00460551
C       12.07216780       8.44566849       9.27151144       0.00673476       0.00855559       0.01034684
C        8.06019499      11.00861801       9.44629138       0.00636584       0.00668728       0.01260784
H       11.83982590      10.39576170       8.37908890       0.00798161       0.00822628       0.00946903
H       11.95064844      10.41954949      10.14615947       0.00371292       0.00886980       0.00951809
H        9.97994995      11.73546238      10.13183515       0.01057151       0.00979844       0.00022584
H        9.84512937      11.59157188       8.37430329       0.00059326       0.00436455       0.00166237
H       13.16205435       8.45094459       9.24918809       0.00666699       0.00905004       0.01170995
H       11.74466765       7.90063077      10.15717892       0.00589602       0.00882538       0.01014838
H       11.71718606       7.90973395       8.38990576       0.00790784       0.00808075       0.01013772
H        7.60712872      11.99328580       9.32333616       0.00453626       0.00590362       0.01195418
H        7.67267987      10.34073807       8.67751998       0.00369077       0.00333580       0.01580039
H        7.76223545      10.63758884      10.42732836       0.01276634       0.00936159       0.01559246
O        8.11804719       8.40909183       7.25214537      -0.00105602       0.00181207       0.00039160
C        8.47291072       7.30161550       8.06482023      -0.00026971      -0.00004691      -0.00255406
C        9.15389426       8.76544072       6.35929696      -0.00330477       0.00066739      -0.00265047
C        7.34343294       7.00491300       9.01827523      -0.00025821      -0.00326689      -0.00359145
C        8.77451169      10.03975471       5.64335187      -0.00549985      -0.00098389      -0.00419343
H        8.68349472       6.43145424       7.42790767       0.00028791       0.00154501      -0.00480267
H        9.38276310       7.54470711       8.62423902      -0.00006723      -0.00104845      -0.00223106
H       10.08610194       8.90869766       6.92137225      -0.00186813       0.00163668      -0.00508806
H        9.32108167       7.94811728       5.63922503      -0.00485915      -0.00061435      -0.00143456
H        7.60363925       6.14288758       9.63468027       0.00135076      -0.00254185      -0.00331270
H        7.16263486       7.85946342       9.67074614      -0.00315800      -0.00371230      -0.00390127
H        6.42275285       6.77918237       8.47804575       0.00088860      -0.00569019      -0.00450194
H        9.57271878      10.33405085       4.96065502      -0.00757895      -0.00220257      -0.00702196
H        7.85900815       9.91303168       5.06541910      -0.00696334      -0.00258736      -0.00149459
H        8.61882251      10.84460246       6.36199860      -0.00397420       0.00050998      -0.00553164
O        3.69062791       8.67390630       2.67037229      -0.00008029       0.00015038      -0.01433259
C        2.47206046       9.15010390       3.18938646       0.00107580       0.00183108      -0.01290229
C        4.56048211       9.75017287       2.31289993       0.00011820      -0.00138108      -0.01868412
C        1.60451340       7.97422132       3.57712717       0.00086549       0.00249839      -0.01124559
C        5.90183551       9.22301921       1.88267811      -0.00032336      -0.00401881      -0.01620801
H        2.66285267       9.78758201       4.06928229       0.00305302       0.00202107      -0.01367176
H        1.96062539       9.78357574       2.44782994       0.00078693       0.00209409      -0.01229584
H        4.11053240      10.34454854       1.51489976      -0.00048715      -0.00414711      -0.02066904
H        4.66860097      10.42282298       3.17569622       0.00070224       0.00210336      -0.02203310
H        0.68391538       8.32205906       4.04894538       0.00371519       0.00294296      -0.00613463
H        1.33970029       7.38652815       2.69807110      -0.00448289       0.00479311      -0.01109873
H        2.13314918       7.32503659       4.27561286       0.00311701       0.00025918      -0.01506276
H        6.51478210      10.06064821       1.54676611       0.00175530      -0.00516081      -0.01539318
H        6.39483242       8.69559873       2.69967305      -0.00222678      -0.00254170      -0.01395774
H        5.79540021       8.53886182       1.04073129       0.00049656      -0.00672036      -0.01428041
O       11.03861176       2.78450370       2.75170495       0.00080135      -0.00462694      -0.00645577
C       12.12749841       1.95050061       3.03486005       0.00479592      -0.00041956      -0.00968435
C       11.43077207       4.03176891       2.19125797      -0.00316408       0.00107136       0.00341158
C       11.65456417       0.67343549       3.68307456       0.01032470      -0.01145330      -0.02872856
C       10.20423691       4.87352079       1.96252781      -0.00610733      -0.00385085       0.00186031
H       12.68786188       1.74151614       2.08557171       0.01154887       0.01681355      -0.00896126
H       12.85701036       2.47143307       3.67126125      -0.00259936      -0.00331539       0.00101551
H       12.14402008       4.52880483       2.86391375      -0.00933023       0.00058851       0.01027113
H       11.96041031       3.85120863       1.23587185       0.00264066       0.00938036       0.00515199
H       12.50349074       0.02987780       3.92197108       0.01375838      -0.00802714      -0.03181306
H       11.13823370       0.91188482       4.61408358       0.00424553      -0.02661885      -0.02828373
H       10.96001458       0.13025112       3.04107336       0.01762895      -0.00821657      -0.03919639
H       10.48673176       5.82922309       1.52003803      -0.00822064      -0.00000755       0.00899504
H        9.51332384       4.36698038       1.29009345       0.00003989      -0.00317350      -0.00494666
H        9.68600993       5.05932493       2.90243024      -0.01225849      -0.01184872      -0.00006050
O        7.78513428       2.86766401       4.13586427      -0.00257987      -0.01520425      -0.00062679
C        7.82060243       1.65512852       3.38640090      -0.01144880      -0.01589385       0.00008667
C        8.49696626       2.76827161       5.35084149      -0.00453273      -0.02042711       0.00011528
C        7.07295778       1.83606645       2.09139357      -0.01278460      -0.01276959       0.00116092
C        8.34374621       4.05455505       6.12488464       0.00135323      -0.02050632       0.00144500
H        8.86656283       1.38838863       3.19518731      -0.01331544      -0.02304297      -0.00112894
H        7.37168592       0.85128967       3.98891710      -0.01540801      -0.01251301       0.00154808
H        8.11237353       1.92109955       5.93997103      -0.00990456      -0.01901668      -0.00148299
H        9.55901893       2.57339046       5.14283365      -0.00537193      -0.02637013       0.00137891
H        7.02563696       0.89994853       1.53306603      -0.02138595      -0.01442108       0.00400104
H        6.04824452       2.15932194       2.27344578      -0.00944275      -0.00371881       0.00362079
H        7.56264666       2.58528089       1.46806622      -0.00843094      -0.01745056      -0.00114955
H        8.86182677       3.99018017       7.08390553       0.00004867      -0.02377690       0.00193055
H        8.75438325       4.89503190       5.56315953       0.00615119      -0.02207558       0.00275856
H        7.28994639       4.26223283       6.31557932       0.00217009      -0.01562143       0.00069275
O        3.25449933       3.97017108      11.14368380       0.00254464      -0.00095552      -0.00968093
C        4.56473224       4.52414897      11.12521130       0.00174929       0.00048679      -0.00386271
C        3.27882344       2.55553570      11.08100992       0.00773746      -0.00032663      -0.01216328
C        4.46654494       6.02318380      11.26276230      -0.00048532       0.00039566      -0.00737793
C        1.86569564       2.07473019      11.35641970       0.01662385      -0.01187679       0.00983260
H        5.15536790       4.08664800      11.94330135      -0.00207558       0.00267959       0.00034207
H        5.06522695       4.25119598      10.18578766       0.00774480      -0.00069913      -0.00025672
H        3.60307740       2.21371694      10.08865788      -0.00175866       0.00063092      -0.01549160
H        3.97185465       2.11427933      11.81028028       0.01657996       0.00538269      -0.01949924
H        5.46289313       6.46468831      11.25442687      -0.00090764       0.00125652      -0.00199294
H        3.89550023       6.44864811      10.43763536       0.00448920      -0.00158930      -0.01174656
H        3.98026538       6.30216085      12.19729597      -0.00645296       0.00127723      -0.01082738
H        1.88242715       0.97710981      11.38189511       0.03063386      -0.01145010       0.02373292
H        1.57213262       2.51406435      12.32208212       0.02559891      -0.00208355       0.00781707
H        1.16291296       2.42208302      10.59290285       0.00303042      -0.02986207       0.01437241
O        3.26825274       3.39981140       2.97090436       0.00431675       0.00621659       0.00347072
C        3.16071551       2.26316238       3.81744939       0.01231554       0.00643482       0.00468421
C        2.36609718       3.41642780       1.89318548       0.00709960      -0.00195035       0.00114453
C        4.10682452       2.43852345       4.97903469       0.00738594       0.01653387       0.00705215
C        2.56640088       4.71212200       1.14517654      -0.00128494      -0.00057441       0.00121793
H        2.12129602       2.17442911       4.17758929       0.01217651      -0.00254808       0.00195527
H        3.41357765       1.35232047       3.26841884       0.02129273       0.00795901       0.00663471
H        2.55060689       2.54537623       1.22498936       0.01589403      -0.00119659       0.00232404
H        1.33075777       3.33699151       2.26835274       0.00668392      -0.00938961      -0.00124753
H        4.03235057       1.57391363       5.64014278       0.01290011       0.01707372       0.00829214
H        5.13453446       2.51684491       4.62285482       0.00768179       0.02461829       0.00987446
H        3.86995333       3.34018898       5.54315970      -0.00191281       0.01538448       0.00488464
H        1.84088690       4.83583604       0.34066961      -0.00463514      -0.00412565       0.00362229
H        2.49099131       5.55020049       1.83671002      -0.00361349      -0.00174880       0.00241116
H        3.55740479       4.73079497       0.70045868      -0.00265434       0.00515836      -0.00143657
O        5.62105439       6.48121907       4.01814519       0.00231457      -0.00851872       0.00502107
C        6.68808917       5.95539339       3.25263569       0.00087801      -0.00360107      -0.00018609
C        6.07112384       7.14338812       5.17872557       0.00434709      -0.00389922       0.00145358
C        6.13312071       5.43181154       1.95217780      -0.00379556      -0.00440438       0.00222486
C        4.91588400       7.88250822       5.80816920       0.00350118      -0.00761515       0.00411537
H        7.42810769       6.75080740       3.06366284      -0.00341493      -0.00050086      -0.00308459
H        7.19047279       5.14929041       3.79874448       0.00695023      -0.00191599      -0.00299445
H        6.50668271       6.42372182       5.88750523       0.01094998      -0.00012970       0.00128663
H        6.87178791       7.84798636       4.91520878      -0.00024489      -0.00079194      -0.00383259
H        6.94004667       5.03368330       1.33535580      -0.00542219       0.00296576      -0.00443742
H        5.41703429       4.63503816       2.14761488       0.00264722      -0.00948814       0.00451049
H        5.63067576       6.23162496       1.40860740      -0.01290558      -0.00610244       0.00842870
H        5.25185635       8.38863564       6.71338102       0.00581717      -0.00015114      -0.00104329
H        4.52096505       8.61745367       5.10768466      -0.00470375      -0.01414189       0.00193758
H        4.11168251       7.19118507       6.06380417       0.00922535      -0.01067728       0.01328327
O        9.55494853       3.36677722       9.60139690      -0.00317469      -0.00004959      -0.00220458
C       10.95664072       3.30249006       9.46012435      -0.00251320      -0.00088221       0.00021985
C        8.93823322       2.09273817       9.45315348      -0.00295800      -0.00010909       0.00138108
C       11.53049175       4.67583726       9.71086385      -0.00249547      -0.00078386      -0.00098641
C        7.45437299       2.25406869       9.66379318      -0.00293267       0.00018200       0.00098887
H       11.36530659       2.56528896      10.17093175      -0.00415328       0.00019726       0.00188869
H       11.21692057       2.94900574       8.44952635      -0.00142227      -0.00232744       0.00111187
H        9.15508571       1.69935435       8.44705888      -0.00280432      -0.00331980       0.00266975
H        9.36133931       1.39032635      10.18231446      -0.00296117       0.00197384       0.00332567
H       12.61545644       4.67138847       9.59315119      -0.00245285      -0.00144027      -0.00009976
H       11.11310925       5.39617942       9.00749183      -0.00180081      -0.00151339      -0.00218405
H       11.28881553       5.01033997      10.72056261      -0.00285390       0.00037878      -0.00155160
H        6.94227363       1.30250657       9.52190076      -0.00318177      -0.00023088       0.00468080
H        7.24547864       2.58939474      10.67901052      -0.00264411       0.00434838      -0.00029406
H        7.04850823       2.98280717       8.96039516      -0.00338295      -0.00259750      -0.00143789
