142
Lattice="13.05039003899536 0.0 0.0 0.0 13.05039003899536 0.0 0.0 0.0 13.05039003899536" Properties=species:S:1:pos:R:3:forces:R:3 energy=-427454.9375 stress="0.0007566157146357 -0.00048641962348483503 0.0009433841041754931 -0.00048641962348483503 -0.0007128231227397919 0.0003201910149073228 0.0009433841041754931 0.0003201910149073228 -2.5920096959453076e-05" pbc="T T T"
Tb      13.29687695      13.99031499       0.55342638      -0.00773580      -0.00698006      -0.00685364
N       11.99203208      12.96808794      12.05372030       0.00229691      -0.00804019      -0.01472563
C       11.40009463      12.63443721      11.09368184      -0.00950617      -0.01252649      -0.00610159
N        2.86507504      11.64950807      -0.04841013       0.00198609      -0.01452595       0.01411702
C        2.02689757      12.45742212      -0.02525505      -0.01231074      -0.02168429       0.02386935
N       -0.42080805      13.14294347       2.49847957      -0.00385047       0.01097536       0.00360098
C       -0.01295283      12.80213082       3.54933891      -0.03420090       0.02096079       0.01852271
O        8.85422071       9.77575100       9.58175343      -0.00161359       0.01603196       0.00256213
O       10.83869627       9.23802217      10.20602268      -0.00255612       0.01335938       0.00286698
O       10.61191629      10.66536786       8.45082629      -0.00092590      -0.00144553      -0.00952017
C        7.93014938      10.60601938       8.85446169      -0.00067592       0.00779200      -0.00794017
C        6.65861018       9.81877264       8.65343624       0.00029227       0.00481987      -0.00197828
C       10.15786133       9.97794294       9.32758043      -0.00151408       0.00857061      -0.00225252
C       12.26685761       9.38781179      10.18669629      -0.00171128       0.00342374      -0.00507925
H        7.75640893      11.50047966       9.45958551      -0.00250699       0.01404661      -0.01802114
H        8.38565551      10.90858430       7.91242514       0.00096929      -0.00231510      -0.01024204
H        5.89858142      10.45109762       8.19193011       0.00239055      -0.00233003      -0.01484894
H        6.83143352       8.96137221       8.00302672       0.00349113      -0.00474074       0.01167943
H        6.26886598       9.45725798       9.60409487      -0.00397553       0.01871947       0.00161228
H       12.58688774       9.80205924       9.23595689      -0.00369045      -0.00498754      -0.00942665
H       12.68379766       8.39517725      10.33982028      -0.00759924       0.00163800      -0.00106597
H       12.55589170      10.05358657      10.99792429       0.00652456       0.00663823      -0.01074073
O        2.10767860      10.21765073       5.97043995      -0.00138356       0.00058591      -0.00108103
O        3.20091426       8.55973731       5.11473528       0.00078614       0.00203922      -0.00096972
O        1.22731108       8.13448547       6.14176569       0.00351763      -0.00112820       0.00285214
C        0.95745204      10.73134865       6.69548849      -0.00115694      -0.00117922       0.00077999
C        1.17507132      12.20255327       6.91091293       0.00112032      -0.00272298       0.00936329
C        2.08660848       8.89870694       5.78101452       0.00105768       0.00025612       0.00046399
C        3.31548140       7.15983042       4.83155818       0.00420713       0.00189729       0.00132918
H        0.06177019      10.53802707       6.10518693      -0.00087595       0.00401007      -0.00124460
H        0.88098073      10.18138591       7.63261243      -0.00289494      -0.00626189      -0.00244021
H        0.34347592      12.59837800       7.49482454       0.00039892      -0.00460573       0.00951093
H        2.10067936      12.38510253       7.45826934       0.00011027      -0.00756691       0.01260506
H        1.19698604      12.72348374       5.95517707       0.00398918       0.00305096       0.01269224
H        3.37566334       6.58954244       5.75826933       0.00641037       0.00352778       0.00213173
H        4.22361474       7.05440802       4.24432628       0.00381404       0.00303207       0.00055464
H        2.44987636       6.81529474       4.26807654       0.00482312      -0.00080690       0.00257991
O       10.12060622       2.85097757       2.76123378      -0.00635834      -0.01905061       0.00281965
O        8.37482535       1.67172727       3.22521226      -0.00994292      -0.01467841       0.00044536
O        8.12427416       3.90426309       2.93382672      -0.00492316      -0.01481277      -0.00548359
C       10.71377010       4.11881010       2.44782221      -0.00277573      -0.02067566       0.00289463
C       12.18960185       3.87608655       2.27620989      -0.00415310      -0.02606719      -0.00073507
C        8.79772566       2.90098645       2.97096376      -0.00666809      -0.01601362      -0.00123485
C        6.96739385       1.56224400       3.48487183      -0.01006670      -0.01058526       0.00102244
H       10.26018133       4.51039243       1.53463085      -0.00298548      -0.01825556       0.00416738
H       10.51238791       4.82715989       3.25393379       0.00118145      -0.02089322       0.00406918
H       12.68060451       4.79704642       1.96042901      -0.00041823      -0.02658822       0.00331214
H       12.64870719       3.52111024       3.19849056      -0.00466337      -0.03486277      -0.00410211
H       12.33743547       3.11381314       1.49935253      -0.01058946      -0.02183274      -0.00520238
H        6.67413037       2.25607854       4.26752085      -0.00665521      -0.01224592       0.00386834
H        6.82100401       0.53833753       3.80985398      -0.01338110      -0.01119408      -0.00257408
H        6.40558081       1.75719012       2.57247892      -0.01057728      -0.00551189       0.00244907
O        7.16267631      11.57514264       1.82981416       0.00938228       0.00422734       0.00818513
O        5.04973004      11.42147528       2.26636748       0.01068565       0.00329211       0.01273910
O        6.48117983      10.03280774       3.33865807       0.01234007      -0.00289571       0.00183499
C        8.51094371      11.04560256       1.97271287       0.00875865       0.00184080       0.00378829
C        9.44391603      11.94106898       1.21750103       0.00667709      -0.00186384      -0.00244147
C        6.25226320      10.92252955       2.55391002       0.01092434       0.00145578       0.00722104
C        3.96061126      10.77601169       2.96208281       0.01325201      -0.00358577       0.00893392
H        8.74753162      10.99971826       3.03634649       0.01358248       0.00446953       0.00275367
H        8.49927556      10.03361623       1.56771924       0.00504994       0.00115585       0.00613660
H       10.45743747      11.54580193       1.29042132       0.00617613      -0.00406346      -0.00552715
H        9.18178024      11.99547660       0.16243060       0.00203913      -0.00469517      -0.00139135
H        9.44849098      12.94866525       1.62766413       0.01042555      -0.00110626      -0.00463594
H        4.01800163       9.70082200       2.82800590       0.02543230      -0.00366786       0.01889515
H        3.05918143      11.17504312       2.50831155       0.01220664      -0.01739962      -0.00169380
H        4.00895085      10.99144855       4.02797460       0.00031567       0.00723109       0.00734043
O        2.90595135       3.92862714       2.25131110      -0.01385173       0.01246583      -0.01656145
O        3.36599617       2.21888005       3.45559472      -0.02633637       0.00441587      -0.02233618
O        2.00320999       1.95062786       1.66325415      -0.01152646       0.01714253      -0.03407332
C        2.41935590       4.52869263       1.03008551      -0.00984119       0.02018702      -0.01510787
C        2.27709360       5.99986398       1.28733650      -0.00700865       0.01943755      -0.00908898
C        2.70988377       2.63523440       2.40724915      -0.01668000       0.01218033      -0.02453220
C        3.41659523       0.79133242       3.70433930      -0.03184939       0.00313193      -0.02686955
H        3.14466435       4.30753927       0.24411706      -0.00942972       0.02058015      -0.01476198
H        1.47238632       4.06718380       0.76065139      -0.01026985       0.02378389      -0.01849646
H        1.98663282       6.50373094       0.36642262      -0.00364326       0.02317223      -0.00812614
H        1.51450870       6.18704617       2.04283207      -0.00918128       0.01819238      -0.01091643
H        3.21857768       6.41746065       1.63508595      -0.00745249       0.01729293      -0.00538457
H        2.41431093       0.37877567       3.80308549      -0.03480864       0.00822166      -0.02601354
H        3.96398279       0.70181908       4.63835729      -0.03152508      -0.00230163      -0.02862997
H        3.96091565       0.31069299       2.89628791      -0.03643720       0.00212060      -0.03001335
O        6.83239607       7.19303820       2.74777295      -0.00507808      -0.00344354      -0.01282853
O        5.07638973       7.78768316       1.62083322      -0.00354001       0.00865644      -0.00841576
O        7.11670714       8.10816958       0.69847878      -0.00320584       0.00962695      -0.00682902
C        8.26914115       7.23850811       2.92593794      -0.00509879      -0.00646888      -0.01104784
C        8.55694930       7.10398857       4.39490164      -0.00742465      -0.00900985      -0.01088369
C        6.41846753       7.73028887       1.60656009      -0.00379682       0.00526312      -0.00925320
C        4.49594847       8.42799362       0.46750758      -0.00218770       0.02086808      -0.00246372
H        8.70157548       6.42227398       2.34772712      -0.00579727      -0.00647864      -0.01171422
H        8.63043238       8.18715480       2.53658672      -0.00309213      -0.00648242      -0.00915584
H        9.63218691       7.18715920       4.56510924      -0.00789545      -0.00802461      -0.00876270
H        8.05919321       7.89813724       4.95083657      -0.00943862      -0.01063502      -0.01044183
H        8.22735592       6.13774852       4.76766428      -0.00693973      -0.01018092      -0.01333458
H        5.05559038       9.31694061       0.19185739      -0.00280809       0.02462727       0.00861207
H        3.48769809       8.70945559       0.75283805      -0.00272208       0.01719455      -0.00088809
H        4.47045164       7.72892996      -0.36895698       0.00014821       0.03041676      -0.01047331
O       10.34206728       2.59817047      12.39277149       0.01981208       0.00178670       0.01658530
O        8.49204323       1.59734334      12.95786187       0.01469098       0.01001325       0.01436169
O        8.39147480       3.30279107      11.48102288       0.02613837      -0.00335181      -0.00212884
C       11.02072728       3.46416004      11.45192182       0.02608329      -0.00249413       0.01693232
C       12.49150221       3.10979712      11.48231758       0.02485377      -0.00674554       0.02455774
C        9.00631342       2.56812364      12.20973981       0.02047795       0.00200832       0.00864875
C        7.07992809       1.38934057      12.75940685       0.01569667       0.00925641       0.00770286
H       10.59790649       3.30574430      10.45993491       0.02950607      -0.00393141       0.01574153
H       10.83713328       4.50367867      11.73328393       0.02830660      -0.00127187       0.01375253
H       13.04810743       3.79832243      10.84390814       0.02980004      -0.01339899       0.02188098
H       12.89914655       3.22022116      12.49826583       0.02087387       0.00097724       0.02483982
H       12.64330514       2.09507277      11.11080624       0.02208650      -0.00962999       0.03066087
H        6.51845082       2.23477972      13.15708300       0.01421863       0.01185641      -0.00051966
H        6.83732606       0.47251148      13.28858942       0.01252753       0.01251167       0.01177835
H        6.86685827       1.28965953      11.69562703       0.02145003       0.00310196       0.00717473
O        5.99937533       3.98683669       9.81127431       0.00069937       0.00224432       0.00040695
O        5.95207191       2.09133738       8.79896718      -0.00216243       0.00224322       0.00029736
O        4.12196310       2.72728145       9.98247395       0.00612485      -0.00382338       0.01622820
C        5.42470991       4.99940151      10.66709926       0.00385457       0.00039491       0.00495276
C        6.51665483       5.98655257      10.98266154       0.00417778       0.00143999      -0.00016042
C        5.24280106       2.92221427       9.57726347       0.00219858      -0.00021799       0.00643206
C        5.25591585       0.91101752       8.38084221      -0.00143206      -0.00071414       0.00725553
H        4.58189549       5.45481824      10.13849189       0.00016662      -0.00025772       0.01025867
H        5.03754982       4.51284206      11.56475465       0.00979081      -0.00135991       0.00638366
H        6.12963876       6.80114486      11.59255821       0.00840466      -0.00323415       0.00871125
H        7.32081436       5.49731045      11.52651852       0.01067059      -0.00017524      -0.01110092
H        6.93160258       6.41560739      10.07148668      -0.00596119       0.00813737      -0.00153148
H        4.94112109       0.32388889       9.24283484       0.00963179      -0.00182189       0.01048818
H        5.97058963       0.36462358       7.77232777      -0.00509329       0.00225511       0.00039700
H        4.37776526       1.17633562       7.79224843      -0.00840542      -0.00445932       0.01605311
O        8.31537458       3.90649117       7.23531152      -0.00107900      -0.00057986       0.00041796
O        9.85924161       2.46150901       7.68713998      -0.00448741      -0.00241172       0.00586066
O        8.14617542       1.83070036       6.34733465      -0.00342757      -0.00194907       0.00413924
C        7.10531228       4.27271719       6.53748667       0.00010911      -0.00007427      -0.00113170
C        6.69297177       5.63634108       7.02734870       0.00314891       0.00226051      -0.00474274
C        8.71585843       2.65127134       7.02770386      -0.00301325      -0.00183153       0.00347841
C       10.46481756       1.16939908       7.47462715      -0.00803378      -0.00514940       0.01233977
H        7.31259288       4.26751453       5.46472678       0.00045970      -0.00345642      -0.00109607
H        6.34469320       3.52003146       6.74378991      -0.00165606       0.00227484       0.00047518
H        5.86825224       6.00923578       6.41938367       0.00602990       0.00405802      -0.00759523
H        6.37397455       5.58619420       8.06421874       0.00035497       0.00531001      -0.00546226
H        7.51803507       6.34213048       6.95079454       0.00580390      -0.00077701      -0.00407982
H        9.78226896       0.36760585       7.74303432      -0.00994980      -0.00173005       0.01728439
H       11.32889879       1.14605501       8.13037674      -0.00772023      -0.00397869       0.01204222
H       10.76665435       1.06657613       6.43266667      -0.00878108      -0.01191270       0.01280475
