140
Lattice="12.395627131392438 0.0 0.0 0.0 12.395627131392438 0.0 0.0 0.0 12.395627131392438" Properties=species:S:1:pos:R:3:forces:R:3 energy=-429534.65625 stress="-0.0014393372694030404 1.930205371536431e-06 -0.0016062749200500548 1.930205371536431e-06 -0.0022504639346152544 0.00013569500151788816 -0.0016062749200500548 0.00013569500151788816 -0.0008419002988375723" pbc="T T T"
Tb      12.04840131      14.10946798      -1.05066583       0.00725949       0.01074204      -0.00013930
S        5.50096129      10.59877974       8.08556622      -0.08449745      -0.03018713       0.00763744
N        3.69502881      12.58559382       8.90010827      -0.08160877      -0.01614368      -0.02292049
C        4.45702808      11.74547424       8.56816992      -0.08500470      -0.02177128      -0.00987504
S        6.99684003      12.30409849      11.55561429       0.04153144      -0.00501728       0.01508135
N        8.97701636      10.60459612      10.49390751       0.02140474       0.00924695      -0.00357699
C        8.13262250      11.30340643      10.93107186       0.03661606       0.00199407       0.00589012
S       12.26694939      11.28728270      -0.68819438       0.00188852      -0.06475431      -0.00907231
N       10.23320881      13.05656319      -0.06820118       0.07450682       0.00716347      -0.00202232
C       10.90529500      12.08672832      -0.25937707       0.04640055      -0.01678967       0.00804017
O       10.34356746       5.10159510       2.18277070      -0.00426997      -0.00005373      -0.01612154
C       11.49256930       3.31458819       1.21041145       0.00993729       0.01237646      -0.01296860
C       11.05897021       2.87849724       2.61536301       0.00100528       0.00137031      -0.01981348
C       11.46416428       4.83400903       1.35609571       0.01281982       0.00859392       0.00641282
C        9.99983195       3.92624904       2.94407499       0.00061038       0.00041837      -0.01340697
H       12.49817316       2.93113700       0.94981522       0.00874701       0.01345596      -0.01990787
H       10.71717802       3.00861161       0.48516497       0.01037075       0.02781238      -0.01865499
H       10.67082323       1.86338935       2.66086454       0.00168213       0.00119683      -0.02834489
H       11.91038064       2.95754445       3.29609307      -0.00183272       0.00099304      -0.01657858
H       12.39139821       5.18345905       1.82807027       0.00210881      -0.00430043       0.03451914
H       11.33183309       5.36690922       0.41151830       0.03617457       0.02361299       0.01256368
H        9.00828155       3.58805753       2.62616188      -0.00431454       0.00765657      -0.00489920
H        9.95882239       4.18189111       4.00461313       0.01014930      -0.00361168      -0.01188254
O        7.56812713       1.76071497       5.59857171      -0.00397170      -0.01871721       0.01552477
C        5.35346159       1.03054358       5.81055299      -0.00852007      -0.00525278       0.00491098
C        5.34870442       2.55638353       5.75830478       0.00164300      -0.00541985       0.00304148
C        6.76594607       0.78938656       6.29832512      -0.01291275      -0.01426241       0.01165874
C        6.73611597       2.84760343       5.19066452       0.00467885      -0.01549678       0.00705335
H        4.60669646       0.60982097       6.47607488      -0.01492614      -0.00113411       0.00023374
H        5.21877643       0.61168045       4.80823703      -0.00435277      -0.00475872       0.00425699
H        4.54321654       2.97486061       5.15444916       0.00651902      -0.00066080       0.00038223
H        5.25530881       2.96158601       6.76997542       0.00245979      -0.00282287       0.00182486
H        6.83451345       0.94775786       7.38213963      -0.01541741      -0.01640774       0.01201648
H        7.16566244      -0.19670686       6.08283922      -0.01902127      -0.01659173       0.01113552
H        6.71411121       2.86378627       4.09477300       0.00908387      -0.01963330       0.00674474
H        7.16750538       3.78796713       5.54721815       0.00884661      -0.01674098       0.00478390
O        8.47500310       9.38532637       3.70632262       0.00793065       0.00849152      -0.01285969
C        9.52390790      11.47522040       3.45890117       0.01446381       0.00630534      -0.01210830
C        8.02037070      11.66907368       3.27896745       0.01444823       0.01091439      -0.00850800
C        9.65304242       9.98754384       3.17340982       0.01032981       0.00565320      -0.01077753
C        7.47267649      10.39953927       3.91313144       0.01181692       0.01118821      -0.01055732
H       10.12509964      12.07768954       2.78022922       0.01407728       0.00286156      -0.01568508
H        9.81666327      11.69814692       4.48932309       0.01798337       0.00701805      -0.01350853
H        7.64469912      12.57128587       3.75944063       0.01774342       0.01023585      -0.00412807
H        7.77219587      11.70123432       2.21387648       0.01258274       0.01438806      -0.00778323
H        9.70078494       9.81285614       2.08931377       0.01038668       0.00494913      -0.01032418
H       10.52210836       9.51766902       3.64011614       0.00882226       0.00369743      -0.00957757
H        7.30871645      10.49949254       4.99174110       0.01444122       0.01113616      -0.01060909
H        6.53114244      10.07207563       3.47687290       0.00983840       0.01374924      -0.00825804
O        1.31262244       3.18106775      10.81093813       0.00994006      -0.00553803       0.02493404
C        3.60254256       2.77865551      10.46025664       0.00721741      -0.00216936       0.00361812
C        3.29416345       4.15995252       9.88457106      -0.00472477      -0.00255629       0.01108533
C        2.26301182       2.11421426      10.35902502       0.00852640      -0.00293693       0.01656604
C        1.92032711       4.47866739      10.46291828       0.00377496      -0.00846863       0.03089701
H        4.33595798       2.20424085       9.90355998       0.00086048      -0.00021461      -0.00672466
H        3.91977067       2.86020737      11.50137743       0.02032387       0.00199643      -0.00194547
H        4.03773308       4.90606120      10.16082187      -0.00656402      -0.00234979       0.01048461
H        3.25217395       4.10494365       8.79407698      -0.01318915       0.00128621       0.01202884
H        2.04563276       1.83296353       9.32713762       0.00680876       0.00192392       0.01782224
H        2.12534040       1.23340183      11.01104933       0.00402757      -0.00424260       0.01048480
H        1.97652099       5.05303449      11.38639117       0.01782378      -0.02193666       0.03632864
H        1.25473817       4.98532947       9.76155708      -0.00659579       0.00437643       0.05172916
O        3.83852204       0.35988991       2.50911487      -0.00467530      -0.00704852      -0.00375805
C        2.71490895       2.34465117       1.95413387       0.00534958       0.00179291       0.00350145
C        4.21602229       2.61997126       1.91505777       0.00563200      -0.00801593       0.00459988
C        2.67457583       1.10624366       2.84218115       0.00026631      -0.00004679      -0.00135961
C        4.78761651       1.20984827       1.83559568      -0.00453232      -0.01069450      -0.00666901
H        2.12736251       3.17587895       2.34863028       0.01025177       0.00397857       0.00473465
H        2.35589284       2.10477358       0.94366205      -0.00009367       0.00807340       0.00406544
H        4.53968691       3.25878865       1.09333424       0.00387583      -0.00385624       0.00873876
H        4.51754794       3.10302831       2.84578471       0.01149666      -0.01387613       0.00565252
H        2.70087541       1.39856871       3.90222829       0.00765233      -0.00411148      -0.00115740
H        1.79847137       0.47134405       2.68556958      -0.00406188       0.00872916      -0.00629293
H        4.89332710       0.86108235       0.80318360      -0.01362731      -0.00192253      -0.01021910
H        5.76050448       1.11006485       2.32021820      -0.00114247      -0.01862636      -0.01693869
O        6.11328109       7.81293928       3.94374203      -0.02028062       0.00826126      -0.01253906
C        6.02508944       5.46443161       3.63566216      -0.00291929       0.00580764      -0.00727345
C        5.58129487       6.20176201       2.37988324      -0.00197011       0.00038430      -0.01144424
C        6.10672962       6.58946189       4.67484262      -0.00932426       0.00957137      -0.01031689
C        6.32454465       7.50940232       2.57102057      -0.01450250       0.00740927      -0.01114959
H        5.34181444       4.67777533       3.94180257      -0.00196242       0.00504088      -0.00686241
H        7.00600192       5.01577567       3.47615781      -0.00162116       0.00725016      -0.00271162
H        5.80917532       5.67688712       1.45315671       0.00831780       0.00112130      -0.00901216
H        4.50984501       6.39164049       2.42973100      -0.00390834      -0.00880955      -0.01942236
H        5.23320268       6.60954761       5.33284180      -0.00767231       0.00448055      -0.00842887
H        7.00418221       6.50797607       5.29460728      -0.00722015       0.01787394      -0.01253060
H        7.39717990       7.39162057       2.36299041      -0.01307410       0.01755655      -0.00823895
H        5.94712654       8.34553277       1.98141346      -0.02114829       0.00258806      -0.01349100
O       10.43109362       3.30618424       8.05584111       0.00017096      -0.00240425      -0.01282103
C       11.63759474       1.39731070       8.63532007      -0.00322995      -0.00636455      -0.00402498
C       10.16534158       0.99232926       8.53149893      -0.00532573      -0.00542623      -0.00391242
C       11.49822205       2.91705374       8.86358810      -0.00588393      -0.00227809      -0.00587308
C        9.61557112       2.15335773       7.71530350      -0.01337999       0.00072104       0.00629193
H       12.23152368       0.76557182       9.32230446      -0.00650195      -0.01555016      -0.00593233
H       12.15157870       1.26374242       7.67983157      -0.00315958      -0.01346014      -0.00469732
H       10.00936047       0.02262409       8.06530143       0.00403026      -0.00773275      -0.00505143
H        9.70282484       0.92930714       9.52508716      -0.00968014      -0.00851266      -0.00665194
H       11.21853695       3.20214041       9.92450177      -0.03554296       0.00248811      -0.01652330
H       12.38709566       3.49410703       8.60292107      -0.00440764       0.00842135       0.01651969
H        9.72182488       1.97484101       6.64500946      -0.03091745       0.00521696       0.00553674
H        8.57613337       2.40076713       7.91611065      -0.00663522       0.01531667       0.02944355
O        6.36493587       4.76726232      11.31584673       0.00702700       0.00132954       0.01208850
C        8.68280070       4.96482781      10.86746656       0.00676101      -0.00211832       0.01328230
C        8.32873052       3.49390224      11.07064734       0.00485891      -0.00155252       0.01516950
C        7.48556712       5.65220598      11.51158895       0.00841081      -0.00115929       0.01383646
C        6.84085611       3.51867820      10.77985610       0.00463820      -0.00168680       0.01798184
H        9.61865358       5.28016963      11.32980486       0.00748031      -0.00261387       0.01264776
H        8.73256774       5.17458814       9.79781555       0.00278569      -0.00022677       0.01367056
H        8.84664489       2.80779616      10.40114349       0.00209291      -0.00494997       0.01689346
H        8.49335185       3.16636334      12.10071144       0.00469078       0.00011786       0.01573339
H        7.65151876       5.78013738      12.58696518       0.00885232      -0.00617211       0.01385713
H        7.25061207       6.62805299      11.08061918       0.00915518       0.00042355       0.01665261
H        6.66050250       3.49646261       9.69630837      -0.00106461      -0.00821941       0.01937526
H        6.30399127       2.69291125      11.23955377       0.00709820      -0.00036791       0.02287722
O        7.90776198       5.55094204       7.51870782      -0.00017837       0.00321871      -0.00055189
C        8.60186821       7.65921862       8.35241267      -0.00091442       0.00601214      -0.00927138
C        7.09303260       7.69606406       8.12326960      -0.00139880       0.00408083      -0.00512297
C        9.00472470       6.48674425       7.47108793      -0.00216568       0.00462085      -0.00758547
C        6.74954681       6.21785983       8.05527012       0.00032321       0.00354308      -0.00042079
H        9.09680030       8.59158324       8.08824454      -0.00217089       0.00560105      -0.01266641
H        8.82991646       7.46941341       9.40293964       0.00245759       0.00804424      -0.00973329
H        6.53912537       8.23022293       8.89423159      -0.00042203       0.00432661      -0.00456735
H        6.87002675       8.18597901       7.17240949      -0.00486592       0.00139934      -0.00549358
H        9.15029339       6.81415296       6.43369438      -0.00694623       0.00195356      -0.00894415
H        9.90209801       5.95793956       7.79668612       0.00019211       0.00751728      -0.00981696
H        6.53462645       5.80601784       9.04664151       0.00306645       0.00585073       0.00113732
H        5.89375440       6.00009186       7.41107306      -0.00078592       0.00098546       0.00208682
O        2.38650511       8.30886995       3.26933527       0.01330620      -0.00608769      -0.00364310
C        2.19856471       7.21153967       1.19929110      -0.02027671       0.00759053      -0.00674587
C        2.00175729       8.70592420       0.96265843      -0.00658438       0.01060724       0.00188619
C        1.88471503       7.11334262       2.68663996      -0.00607084       0.00346079      -0.00437504
C        2.55777351       9.30873586       2.25072365       0.00554661       0.00016107       0.00146306
H        1.54331490       6.58915435       0.59074274      -0.03374282       0.01748659      -0.00211691
H        3.23226138       6.92291947       0.99878376      -0.02546036      -0.00260177      -0.01790576
H        2.51352016       9.07664982       0.07555516      -0.00741978       0.01101685       0.00149760
H        0.93847536       8.92807662       0.85850324      -0.00452921       0.02121462       0.00831716
H        0.79858325       7.04629148       2.84476287      -0.00492376       0.01429726       0.00663931
H        2.35634648       6.26309515       3.18844356      -0.01054101      -0.00425553      -0.01351342
H        3.62375752       9.54099792       2.16839199       0.00480980      -0.00091459      -0.00618906
H        2.03837374      10.22039347       2.55263011       0.00937611      -0.00114346       0.01163693
