147
Lattice="16.81025373069793 0.0 0.0 0.0 16.81025373069793 0.0 0.0 0.0 16.81025373069793" Properties=species:S:1:pos:R:3:forces:R:3 energy=-1301699.0 stress="-0.0004685245221480727 -0.0005049392639193684 -0.0003400677815079689 -0.0005049392639193684 -0.001041009440086782 7.791483221808448e-05 -0.0003400677815079689 7.791483221808448e-05 -0.0009099642629735172" pbc="T T T"
N       12.37644626      15.22469121       3.53407622      -0.00234148      -0.00531267       0.00292594
C       13.63002050      15.95024846       3.89602425       0.00134927       0.00397128      -0.02029388
C       11.55349351      14.98569842       4.75254751      -0.00580022      -0.00111784       0.00040138
C       12.74175380      13.92327045       2.89109611       0.00026065      -0.00237632       0.00351873
C       11.58914219      16.03774860       2.56287412      -0.00429696      -0.00030863      -0.00063926
H       13.36293134      16.89698676       4.35861771       0.01770832      -0.00375734      -0.02151556
H       14.19242531      15.33191774       4.58918402       0.00620411      -0.00881152      -0.01131004
H       14.21057495      16.10455108       2.98965153      -0.00395200      -0.01964279      -0.01673111
H       10.66457155      14.43111561       4.46015925       0.01153010       0.00539972       0.01283283
H       12.13756038      14.41059411       5.46658970       0.01513340      -0.01010692      -0.00168826
H       11.27413119      15.94664190       5.17845833       0.01306498      -0.00746664       0.01519421
H       11.82561646      13.41314155       2.61677754      -0.01851648       0.00045642       0.00432735
H       13.34870622      14.14129228       2.01827766      -0.01106334      -0.01340080       0.00751007
H       13.32647750      13.33485702       3.59085839      -0.01740398      -0.00077742       0.00520009
H       10.69638570      15.48068237       2.29367453      -0.01178245      -0.00529267       0.00967419
H       11.32682447      16.98602595       3.02698599      -0.00104021      -0.00150293      -0.01305173
H       12.20228851      16.20186892       1.68158578      -0.01337367      -0.01940576      -0.00543635
B       15.38399481      13.00875935       1.15234849       0.00262232       0.00540811       0.01167823
F       15.13721703      14.37533635       0.92807543      -0.01164818       0.00209475       0.00704041
F       15.41922178      12.79489279       2.55133985       0.02221006       0.01239952       0.01255798
F       14.30873772      12.25790554       0.61969353       0.00170481      -0.00508761       0.02952290
F       16.57873509      12.61130048       0.57585521      -0.00223589       0.01184481      -0.00526631
Cl       9.81712432       8.86903805      15.15786919       0.00047141       0.00630319      -0.01146895
Cl      12.11723972       7.61540822      16.39074780      -0.00091311       0.00063233      -0.01704645
Cl      11.12318132       6.63426438      13.86565510      -0.00992694       0.00299960      -0.01345587
Cl       9.58241418       6.21372413      16.29014738      -0.00479433       0.00752437      -0.00989178
C       10.65732997       7.33486327      15.42509280      -0.00411449       0.00459403      -0.01297119
Cl       9.39594426       9.21612967       2.01669084       0.02199976      -0.01234087      -0.00097449
Cl       9.08857297      11.78503422       0.69358023       0.00785518      -0.02411595      -0.02014029
Cl      11.73105635      10.83377460       1.42303482       0.01121503       0.00128881       0.00109215
Cl       9.87029810      11.67127707       3.47552917      -0.00832639       0.00050786      -0.01563436
C       10.02942857      10.86670577       1.88191089       0.00802440      -0.00837271      -0.00899597
Cl      15.04701952      14.65163609       7.22272593       0.01274433       0.00359944       0.00442074
Cl      15.87723476      17.26764362       6.28027162       0.02293077      -0.00048985       0.00108162
Cl      15.76537129      16.71645458       9.11180838       0.01515161       0.00434388       0.00372788
Cl      13.30407294      16.94756938       7.59846611       0.02144629       0.00910893      -0.00160137
C       15.00783048      16.39395164       7.56046944       0.01952699       0.00458371       0.00103057
Cl      11.68077633       3.92144944       8.91015614       0.00441729      -0.00621742       0.00014578
Cl      12.51383443       6.55045341       9.79716405       0.00336757       0.00010212       0.00966987
Cl       9.73208614       6.06730348       9.12107927      -0.00413108      -0.00713705      -0.00828439
Cl      11.73517907       6.12667865       7.02737932       0.02477225      -0.02839226       0.00707248
C       11.41302448       5.66294923       8.71187187      -0.00036470      -0.00653350       0.00537682
Cl       6.10004486       5.30010440      12.37884877       0.00026126      -0.00503153      -0.01005481
Cl       4.24382381       7.37529207      13.17542256       0.01655027       0.00457992       0.00025627
Cl       4.03598776       6.18363055      10.54046431       0.00383723       0.00652419      -0.00397491
Cl       6.26203836       7.92647033      11.15889263       0.00717649       0.00032851      -0.00225626
C        5.15718320       6.70105964      11.81312494       0.00651475       0.00127980      -0.00401597
Cl       0.03994934       6.01847069       8.72769702       0.00443839       0.03958291      -0.00111547
Cl      -0.17507371       4.21928728       6.46361546      -0.00884345       0.00455776       0.01078132
Cl       2.15658394       4.11324173       8.19564560      -0.00601926       0.00351706      -0.00963733
Cl       1.75861996       6.37170442       6.41761647      -0.01032650      -0.00889558      -0.03847012
C        0.94290834       5.18430370       7.44825259       0.00187087       0.00926924      -0.00859329
Cl      15.64567630      15.27735922      12.44660041      -0.00105774      -0.00761780      -0.00860476
Cl      15.56050024      12.90675614      10.78330885      -0.01447830      -0.01235515       0.00134540
Cl      13.20811148      14.58957059      11.03095571      -0.01052767      -0.00414327       0.01659472
Cl      14.09551204      12.98967256      13.28248610       0.00205156      -0.00756234       0.00612533
C       14.62629802      13.92793005      11.89665306      -0.00637828      -0.00813392       0.00295433
Cl       6.68463375      10.53817373       4.30376173       0.00493464      -0.00203093      -0.00058538
Cl       5.95023516      10.36587623       7.09323600       0.01310211      -0.00064794       0.00038373
Cl       7.80935804      12.40595000       6.22197397       0.00119102       0.00509301      -0.00674767
Cl       8.61949263       9.61224034       6.25445090       0.01192176       0.00691569      -0.00354809
C        7.26352991      10.71933574       5.96397299       0.00828050       0.00217968      -0.00274786
Cl       5.28546456       4.45113706       5.59078097      -0.02108708       0.00216714       0.01072255
Cl       6.24000136       6.39113272       7.52567951      -0.00051318      -0.00022537      -0.00137669
Cl       5.18291172       7.28535060       4.98972867      -0.01281863       0.00497669       0.00669964
Cl       7.73753337       5.92637503       5.08222044      -0.02381459      -0.00954624      -0.01508731
C        6.10799293       6.01128374       5.79996441      -0.01569508      -0.00065847       0.00029374
Cl       2.35934686      15.92276585       4.63279462      -0.01409076      -0.00785724      -0.00803909
Cl       3.01853113      17.74595922       6.78073999      -0.01846347       0.01071003      -0.02187886
Cl       4.69804097      15.43156716       6.27816412      -0.00082126       0.02365319      -0.01789966
Cl       2.04821134      15.08150821       7.39149082       0.00438303       0.00475463      -0.00859630
C        3.02389463      16.04432420       6.27136568      -0.00620563       0.00853764      -0.01359908
Cl      12.63716201       9.53220441       8.07947331      -0.00866707       0.00006363       0.00177082
Cl      12.55106347      10.96555539       5.56190396      -0.01142804      -0.01208054      -0.00847557
Cl      14.85876358      11.20583350       7.29601061      -0.00895789      -0.00769575      -0.01101046
Cl      12.33015533      12.41104992       8.06088657      -0.00349940       0.00253215      -0.01747575
C       13.08984782      11.02323089       7.25016372      -0.00818469      -0.00481907      -0.00896287
Cl      15.05507029       9.64402453      15.03524894      -0.01377863       0.00619581      -0.00263995
Cl      13.59494908       9.43195794      12.53433231      -0.00800031      -0.00601082      -0.00604346
Cl      14.92923857       7.10656654      13.61992836       0.00283603       0.00429410       0.00517694
Cl      16.49604102       9.29428296      12.55045219      -0.00868404       0.01048671       0.00035581
C       15.02307472       8.87263668      13.44645495      -0.00759748       0.00363649      -0.00127599
Cl       6.77653663       3.23945801       9.55199426      -0.00050744      -0.00481072       0.00277773
Cl       6.49094023       0.81722237       7.98836061       0.00333676      -0.00030038      -0.00652038
Cl       8.93908372       1.31626733       9.45339841      -0.00435096      -0.00771672       0.00861573
Cl       8.30625827       2.89864766       7.10978701       0.01037568      -0.00131536       0.00990587
C        7.62755429       2.06696619       8.52810095       0.00173679      -0.00325473       0.00376266
Cl       3.04105795      11.91628508       8.91195210       0.00605746      -0.00165021      -0.00290628
Cl       0.69701536      10.23298726       9.21082053      -0.00571492       0.01376549      -0.00855825
Cl       2.91602585       9.97248705      11.06002625      -0.01705897       0.00449923       0.00165647
Cl       3.18866461       9.07872244       8.31882367      -0.00902718      -0.00322127       0.00478846
C        2.46531895      10.30517504       9.37760501      -0.00620579       0.00381225      -0.00109024
Cl       5.53480639       1.24759417       3.27711881      -0.00099629      -0.01779551       0.02457089
Cl       8.17925003       2.44281413       3.24710965      -0.01309881       0.00815755       0.00059824
Cl       7.57418602       0.21309678       1.49605030      -0.00890323       0.00190813       0.00612411
Cl       7.79971192      -0.20771348       4.35833133       0.02418816       0.00544947       0.00285894
C        7.26439719       0.93030705       3.09252974       0.00029750      -0.00013545       0.00834912
Cl       9.99002416      15.63410464      16.28397237      -0.00865135      -0.00454940      -0.00491180
Cl      12.18806308      13.72555202      16.17384647      -0.00844270       0.00046176       0.01627326
Cl      12.24433688      16.07950751      14.51631011       0.01097706       0.00283065       0.01917082
Cl      10.34387623      13.95438147      13.95311808       0.02237704       0.00449783      -0.00904310
C       11.20351027      14.83207169      15.22765617       0.00347707       0.00156359       0.00562692
Cl      16.94650406       7.50011969       2.81372359      -0.00646240       0.01342732       0.02002342
Cl      15.64881044      10.06399175       3.23211801      -0.00566169       0.01510596       0.01045571
Cl      14.84168727       7.74207484       4.78765020      -0.01280989       0.02021806       0.01103634
Cl      14.20854659       7.94836152       1.95379050       0.00133768       0.01278248       0.00590473
C       15.42859632       8.33316977       3.21321821      -0.00605396       0.01537794       0.01060759
Cl       4.58583256       4.92481984       1.92569816       0.00038426       0.00723279       0.00557575
Cl       5.49315398       5.34471368      -0.79474765       0.00198916      -0.00491217       0.00684217
Cl       6.37177513       7.12647350       1.31388402      -0.00348055       0.00858954      -0.00289659
Cl       3.62023564       7.20560662       0.41520621      -0.00161090       0.00037044      -0.00540432
C        5.01447465       6.14928342       0.71458474      -0.00075862       0.00246073       0.00132526
Cl      14.75687496       2.65289556       3.65468379      -0.00123648      -0.02424266      -0.00692970
Cl      12.99285917       2.34561779       1.36656047      -0.00485526       0.00770269      -0.00698671
Cl      13.48878101       4.96927525       2.48242292       0.01090501      -0.00828612       0.02047551
Cl      11.90241009       3.04686925       3.96862637      -0.00201237      -0.01209061      -0.00067797
C       13.28649610       3.26974912       2.85777040      -0.00031117      -0.01042181       0.00290081
Cl       2.74992856       9.82992298       4.10333508       0.01891427       0.00532287       0.02441287
Cl       1.64948385      12.14917811       2.76476385       0.02180007      -0.00561732       0.00177270
Cl       3.73809936      12.48623422       4.74125689       0.01329327       0.00694853       0.01054507
Cl       1.08515226      11.70160750       5.57091701       0.00770772       0.01430931      -0.00119936
C        2.30013614      11.55490849       4.27059268       0.01621688       0.00547542       0.00873145
Cl       8.27429418       1.76174238      13.35430496       0.00444633      -0.01727717      -0.03101607
Cl      10.59135112       2.93752474      14.64164738      -0.01193751      -0.00682922      -0.01041961
Cl       9.59458205       4.02557902      12.13567340      -0.01049352      -0.00341979      -0.00630137
Cl      10.91994709       1.45553925      12.17769115       0.01560527       0.00634670      -0.00921339
C        9.84396662       2.54957521      13.07953113       0.00009239      -0.00607145      -0.01585230
Cl       5.11376872      10.85178755       1.02286097      -0.01158795       0.00187388       0.00540435
Cl       3.20066347      11.90013241      -0.87694981      -0.01384825       0.01017843       0.01184466
Cl       5.48949673      10.37754577      -1.81331028      -0.02671281      -0.00314933       0.00543410
Cl       5.86100366      13.04256730      -0.73054374      -0.00876588      -0.00308138       0.00075518
C        4.89993584      11.54587626      -0.60188917      -0.01502138       0.00225013       0.00585939
Cl      -0.70547019       3.56136589      14.66728708       0.01804727      -0.00090666      -0.00045165
Cl       0.01135434       2.94828508      17.41003654      -0.00648260      -0.00598302       0.00323373
Cl      -0.36313969       5.70180120      16.59390155       0.00022587      -0.00464845       0.00617218
Cl       1.94212358       4.21634005      15.66187520       0.00931245      -0.00479543       0.02215077
C        0.22400291       4.11145048      16.08229281       0.00518471      -0.00415947       0.00760070
Cl      10.44357971      12.05933800      11.12163844       0.00933659      -0.01511624      -0.00403694
Cl       8.25536269      11.00137670      12.70391508      -0.00616187       0.01379599      -0.00588644
Cl      10.06608865       9.19758926      11.32247562      -0.01681226      -0.00937736       0.01155944
Cl       8.17636429      10.79781997       9.81801584       0.00103265      -0.00257478      -0.00320780
C        9.23563176      10.76349748      11.24049005      -0.00333431      -0.00403649      -0.00075608
Cl       3.16086573       1.16689373      10.63222349      -0.01415503      -0.00155571      -0.00257084
Cl       2.67708560       1.08723619      13.49395196       0.01738283      -0.00734697       0.00262371
Cl       0.44961152       1.35426912      11.66339649      -0.00125366       0.03680228       0.02811363
Cl       2.29002467       3.55372749      12.02178638       0.04014680       0.00229657       0.00909964
C        2.15237469       1.79096870      11.95346392       0.00949627       0.00511548       0.01094490
