146
Lattice="16.905819977148106 0.0 0.0 0.0 16.905819977148106 0.0 0.0 0.0 16.905819977148106" Properties=species:S:1:pos:R:3:forces:R:3 energy=-1295284.625 stress="-0.00023887792485766113 -9.518017759546638e-05 0.0001588087106938474 -9.518017759546638e-05 -8.972860086942092e-05 0.00011457975779194385 0.0001588087106938474 0.00011457975779194385 -0.00028394843684509397" pbc="T T T"
N       15.01431894      13.50966023       1.38186379       0.00336607       0.00028510       0.00726130
C       16.32528505      13.81138131       0.72126501       0.00660640       0.00447714       0.01472256
C       15.16890859      13.68859025       2.86339411      -0.00700173      -0.00503363       0.00844294
C       14.59977294      12.10919825       1.09081523       0.00705054       0.00150090      -0.00182064
C       13.97505034      14.45999804       0.86443434       0.00584877       0.00175032       0.00520906
H       16.60114320      14.83165376       0.98458503       0.01026433      -0.00176591       0.02881721
H       17.06931905      13.11279438       1.09868104       0.00248095      -0.00471291       0.00607832
H       16.19483636      13.68899966      -0.35094328       0.00964241       0.02346792       0.01262872
H       14.19975557      13.52844570       3.33077250      -0.00893703      -0.00711197       0.00091861
H       15.88659617      12.95139816       3.21569222      -0.00778948      -0.00451310       0.01007724
H       15.56085873      14.68847983       3.04448362      -0.00956883      -0.00347391       0.01287850
H       13.65827128      11.91279506       1.59677473       0.00242442      -0.00111867      -0.01197150
H       14.47386550      11.99138051       0.01608224       0.01732454       0.00484672      -0.00377382
H       15.36779426      11.43267935       1.45908078       0.00446700       0.00127170       0.00311386
H       13.04383404      14.26472462       1.39162107      -0.00073811      -0.01223349      -0.01266141
H       14.33612960      15.47380191       1.05128817      -0.00297248      -0.00014302       0.02312618
H       13.84107043      14.27059659      -0.19830152       0.02268025       0.01634774       0.00055666
O       15.55118378      16.96214155       1.75528232       0.01313138       0.00219239       0.00958085
O       17.23961814      16.02005680       2.89270893      -0.00791025       0.02504730      -0.00116378
C       16.53228040      16.99243800       2.54083676       0.02765560      -0.02475572       0.00204557
H       16.79574904      17.98886255       2.96751050       0.02931193       0.00750697      -0.01783210
Cl      10.21342991       9.88965286      14.92148494       0.00020694      -0.01411849      -0.00728657
Cl      11.60464547       8.15384515      16.78282664      -0.00021064      -0.00195136       0.00673214
Cl      11.06422976       7.24549286      14.08562231      -0.00220312      -0.02042222       0.01299345
Cl       8.88732842       7.54464909      15.97536666      -0.00155205      -0.00340791       0.01283130
C       10.44322662       8.20197879      15.44119493      -0.00132282      -0.00971283       0.00620704
Cl       9.32275940       9.56509982       2.68476878       0.00068864       0.00708733       0.00232880
Cl      10.69653482      11.69594538       1.28426411       0.00507160       0.00277910       0.00268893
Cl      12.17669236       9.92396160       3.05387232       0.00296429      -0.00206918      -0.00003098
Cl      10.33027959      11.86252678       4.15035167       0.01017397       0.00091513       0.00473914
C       10.61750582      10.76164061       2.79527468       0.00421557       0.00227385       0.00243130
Cl      14.22643570      15.28879271       7.14900667      -0.01121603       0.00288337       0.00358272
Cl      15.78995323      17.26994087       5.73695219       0.00233251      -0.00409631       0.00752741
Cl      15.42985953      17.48967814       8.60869548       0.00041847      -0.00718270       0.00875854
Cl      13.19449923      17.98174508       6.82516393       0.00548416       0.01065576       0.00648991
C       14.66559304      17.01296301       7.07558502      -0.00046217       0.00128588       0.00594344
Cl      11.95653885       4.17612643       8.60243964      -0.00351226      -0.00541928       0.00957779
Cl      11.54275026       6.74475816       9.89026810      -0.00771488      -0.00038746      -0.00192198
Cl       9.26819636       5.23333771       8.90884589      -0.00444865      -0.00485358      -0.00089604
Cl      11.10662066       6.45422923       7.03683366      -0.00011652      -0.01203680      -0.00150192
C       10.96210590       5.64283955       8.61063644      -0.00369985      -0.00522434       0.00157928
Cl       6.88341366       5.60520302      12.33315751      -0.00483233      -0.00003555       0.00146449
Cl       5.41830261       7.91805545      13.30347881      -0.00658057      -0.00278890       0.00441864
Cl       4.18731649       6.10986638      11.39559568      -0.00107896       0.00643572      -0.00709912
Cl       6.36042614       7.84533122      10.56619174       0.00440986       0.00654536       0.00730482
C        5.70957662       6.86599072      11.90135889      -0.00231060       0.00234658       0.00178711
Cl       1.18328985       5.15095506       9.08866408      -0.01456428      -0.00803359       0.00144911
Cl       1.08790260       3.15180041       6.99102424       0.00619781      -0.02747557       0.01652917
Cl       3.59797301       3.74186766       8.31834626      -0.00252756      -0.00306273       0.02579798
Cl       2.41957309       5.68188969       6.51979500       0.00128430      -0.02414322       0.00474963
C        2.06808365       4.42584546       7.72596498      -0.00311285      -0.01598243       0.01287116
Cl      15.53248222      13.30669290      13.81445629       0.01128791      -0.00891637      -0.01710622
Cl      16.14130820      13.69570773      11.01488026      -0.02351257       0.00509472      -0.02148744
Cl      15.00348726      15.87423800      12.56078225      -0.00333713      -0.00330880       0.00558639
Cl      13.37664379      13.56773492      11.89372383      -0.01154661       0.00383015       0.00615337
C       15.00567254      14.11597045      12.30635873      -0.00733232      -0.00066054      -0.00673743
Cl       6.51471093      11.60195147       4.47919166       0.00067508       0.00211858       0.00305623
Cl       5.63113407      11.19448378       7.20971207       0.00273180       0.00947481       0.00577283
Cl       7.97252604      12.81210976       6.66875577       0.01320113      -0.00866228       0.00047478
Cl       8.05254092       9.92573906       6.27189486      -0.00930206      -0.00921589       0.00136230
C        7.04022240      11.38240190       6.15970591       0.00124482      -0.00085112       0.00236201
Cl       5.79138972       4.52683408       5.25969147      -0.00285098      -0.00170410       0.01132753
Cl       6.13733236       6.44346972       7.41107179      -0.00440505       0.01571603      -0.00364411
Cl       5.31159418       7.35482857       4.79016061      -0.00423566      -0.00559404      -0.01093142
Cl       8.01154569       6.37958919       5.19669170      -0.00409269      -0.00091760      -0.00490797
C        6.30902134       6.17042992       5.66792830      -0.00311332       0.00219049      -0.00221360
Cl       2.17969246      15.92000049       5.04524321       0.00757316       0.00902535       0.00999773
Cl       3.71475119      17.32782707       7.07292916       0.01898332      -0.00865793       0.01494096
Cl       4.41058652      14.60168408       6.38716474      -0.00684446      -0.01645714       0.00925665
Cl       1.95557982      15.15441111       7.83148556      -0.00094002       0.00707227       0.00883204
C        3.05663489      15.75246041       6.56176923       0.00577161      -0.00189269       0.01023488
Cl      11.85805886       9.85842121       7.46747516      -0.01038873      -0.00259241      -0.00691070
Cl      14.04015383      11.53237165       6.54630802      -0.00089499      -0.01490256      -0.00672027
Cl      13.85536638      10.78136231       9.34419554      -0.00990340      -0.00557780      -0.00489885
Cl      11.95139961      12.65251306       8.21660260      -0.00029753      -0.00110096      -0.01556400
C       12.91762690      11.20402404       7.89751239      -0.00549687      -0.00584786      -0.00930678
Cl      13.80543202       9.89973776      13.89542730      -0.01152578       0.00232828       0.00474840
Cl      14.75731084       7.97293644      11.94717408      -0.01701301       0.00489385       0.00030676
Cl      15.00066973       7.40922280      14.78406651       0.00246681       0.00761014      -0.00052586
Cl      16.65289057       9.45188607      13.56930228      -0.01111403       0.01186781      -0.01342450
C       15.05716095       8.67702922      13.55529774      -0.00975299       0.00711735      -0.00193312
Cl       6.78856970       1.96546696       9.27384196      -0.00612876       0.00440358      -0.00186311
Cl       7.73543358      -0.60741620       8.32742790      -0.02937520       0.00446707      -0.03020742
Cl       9.60081885       1.29995896       9.46572336      -0.01300016      -0.02352795      -0.00630403
Cl       8.41285592       1.81231763       6.87410599      -0.00485205       0.01153809      -0.00328386
C        8.14145558       1.11851519       8.48107124      -0.01304588      -0.00113449      -0.01051459
Cl       2.74395496      11.51075809       8.85208177      -0.02161014       0.02152410      -0.00784095
Cl       0.26935736      10.10723889       9.35902392       0.00406182      -0.02259160       0.00364024
Cl       2.48133426       9.87914706      11.23511636       0.01403084       0.01374573      -0.00579065
Cl       2.64550725       8.61327658       8.63789975       0.02957775       0.01989076      -0.00867468
C        2.03575082      10.02334103       9.52424786       0.00577233       0.00782182      -0.00495746
Cl       5.96528032       0.41883970       4.33205481      -0.01198608       0.00917846      -0.00452948
Cl       7.90603960       2.28337039       3.26161068      -0.00348017      -0.00226545      -0.00740603
Cl       6.78279087       0.22961107       1.55380846       0.00326386      -0.01071919      -0.00007203
Cl       8.63501832      -0.49272521       3.67326420      -0.01269495      -0.00149345       0.01539932
C        7.31124010       0.61030391       3.20633519      -0.00661719      -0.00064442       0.00117570
Cl       8.94568034      16.27680860      14.94048851       0.00721213      -0.00702345      -0.01257905
Cl      10.13803345      15.50544076      17.46319274      -0.00270745      -0.01705405      -0.00976431
Cl      11.81205837      15.87935259      15.12199308       0.00577256      -0.00681666      -0.00185459
Cl      10.02202386      13.60314677      15.27285068       0.00534957      -0.00808960      -0.01723891
C       10.22510106      15.32331487      15.69885894       0.00379266      -0.01018585      -0.01098676
Cl      16.56287751       7.93733061       5.66648753       0.00832751      -0.00022292       0.00946184
Cl      14.69464573       7.07159481       7.69724877       0.00081120       0.00888782       0.00868368
Cl      15.32137191       5.32303586       5.46865672       0.00862573      -0.00134403       0.01848084
Cl      13.75042677       7.71533039       5.02553402       0.00863990      -0.00228344       0.00294837
C       15.08937267       7.00268427       5.96815673       0.00702778       0.00110402       0.00982190
Cl       4.38258989       5.00527644       1.79978324      -0.00052924       0.00990090      -0.00011843
Cl       5.51606481       5.15701248      -0.86477216      -0.00105211       0.00081038      -0.00106379
Cl       6.00949619       7.28406735       1.04434428       0.00913769       0.00105768      -0.00397958
Cl       3.36693667       6.95051136      -0.09599526       0.00727245       0.01065066      -0.00347647
C        4.81204538       6.09616478       0.47047588       0.00352705       0.00514664      -0.00240481
Cl      12.96939717       4.53516202      -0.02195387       0.00394377      -0.00894055      -0.00471914
Cl      10.77916714       3.27034561       1.39911739       0.00984460      -0.00876239       0.00725264
Cl      12.64366662       4.97181188       2.82388456       0.01218396       0.00064129      -0.00636137
Cl      13.50727866       2.37564067       1.83906943       0.01169235      -0.00304985      -0.00018270
C       12.48985018       3.77186789       1.51601913       0.00918752      -0.00455458      -0.00040834
Cl       2.82936129       9.78288937       5.11036521       0.00316930       0.00512195      -0.02483422
Cl       1.36853243      10.29520920       2.66060673      -0.04631988       0.00749671       0.00469947
Cl       2.76355420      12.45977908       3.99378839      -0.00636230       0.00309542      -0.03500582
Cl       0.39139203      11.33450334       5.19970232       0.01513851       0.01989731       0.02154744
C        1.85139697      10.97673908       4.24675658      -0.00813979       0.00899850      -0.00850272
Cl       8.36772569       2.34204810      12.82804456       0.00221667      -0.01068667      -0.00050615
Cl      10.31618456       3.05211802      14.85274065       0.00187125      -0.00209878      -0.00274944
Cl      10.46147515       4.25113152      12.21642006      -0.01046087       0.00182748      -0.00174689
Cl      11.12758048       1.46065626      12.57597968       0.00692582       0.00491160      -0.00573358
C       10.06785284       2.78196800      13.12655844       0.00057852      -0.00139704      -0.00286381
Cl       5.37607170      11.04101870       1.28434190      -0.02489608       0.00020912       0.00608826
Cl       3.96839095      12.13040394      -1.00231218      -0.00176078       0.00087328      -0.00657119
Cl       6.49988879      10.75125431      -1.37077134      -0.00423671      -0.00913087       0.01473847
Cl       6.43298070      13.36229013      -0.09837634      -0.00317952      -0.00728261       0.00965838
C        5.57209399      11.82610298      -0.29982191      -0.00875741      -0.00353867       0.00575881
Cl      -0.63161646       3.90038807      14.65385937       0.00467664      -0.00551886      -0.01520997
Cl      -0.36022843       2.16761389      16.96627891       0.01045984       0.00870514      -0.00494277
Cl      -0.09210914       5.03763653      17.26839122       0.00954542       0.01072532      -0.02348864
Cl       1.96721823       3.53328754      15.88674459       0.00728256       0.00337049      -0.01870987
C        0.21893287       3.63685418      16.19845749       0.00821590       0.00476304      -0.01532523
Cl      10.79469623      11.06680267      11.51072189      -0.00581670       0.01396132       0.00873432
Cl       9.21113673      13.31717192      10.58160485      -0.00839706       0.01055574       0.00273290
Cl       8.01731757      11.33123519      12.31738210      -0.00793600       0.01011881       0.00366414
Cl       8.68504106      10.64371574       9.57963485      -0.00122163       0.00782287       0.00485322
C        9.17161513      11.58696512      10.99597270      -0.00606948       0.01050237       0.00487515
Cl       3.77524837       0.36997174      11.22314835      -0.00152522       0.01521733      -0.01988328
Cl       2.37861038       0.40989489      13.76470603       0.01102141      -0.00540906      -0.01631951
Cl       1.96925364       2.54917317      11.85051971       0.00187647       0.01405001       0.00700238
Cl       4.50041178       2.32149109      13.24691231       0.00965047      -0.00035155      -0.00824851
C        3.15142623       1.40919321      12.51987086       0.00512058       0.00700891      -0.01037359
