140
Lattice="11.96613121648188 0.0 0.0 0.0 11.96613121648188 0.0 0.0 0.0 11.96613121648188" Properties=species:S:1:pos:R:3:forces:R:3 energy=-93848.046875 stress="-0.0030024219304323196 -0.0008800136274658144 -0.0010368004441261292 -0.0008800136274658144 -0.000714636582415551 -0.00011375060421414673 -0.0010368004441261292 -0.00011375060421414673 -0.001784600201062858" pbc="T T T"
N        9.91386853       9.00043091       2.78785448      -0.00710481       0.00348044      -0.00448285
C       11.18484165       9.26931017       3.52372885      -0.00760710       0.00779103      -0.00544310
C       10.25124409       8.26681712       1.52731324      -0.00588940       0.00997281      -0.00776356
C        9.22189297      10.28576989       2.46097880      -0.01294520       0.00140077       0.00106308
C        9.03307793       8.18623218       3.66874410      -0.00208402      -0.00497955      -0.00723499
H       11.67514522       8.31563367       3.69307881       0.00278699       0.01111962      -0.01709447
H       11.78938220       9.95899132       2.93796712      -0.01622654       0.02044001       0.00005439
H       10.93351011       9.72400181       4.47724971      -0.00888480      -0.00471827       0.00002439
H        9.34108218       8.07628873       0.96904947      -0.00581101       0.00925621      -0.00742639
H       10.93379393       8.88994124       0.95389018      -0.00883585       0.01442550      -0.00618794
H       10.73154081       7.32984280       1.79629355      -0.00266379       0.01065417      -0.01212934
H        8.29728738      10.04867213       1.93867397      -0.01232921      -0.00042555       0.00105358
H        9.02087736      10.80746396       3.39304220      -0.01474809      -0.00296647       0.00291978
H        9.89101492      10.90511439       1.87070446      -0.01654434       0.00550637       0.00150125
H        8.08295738       8.02411321       3.17332277      -0.00086354      -0.00998002      -0.00786822
H        9.51269275       7.23125206       3.87009726       0.00391170      -0.00246407      -0.01077634
H        8.88346627       8.74105750       4.59166362      -0.00575755      -0.00964133      -0.00514872
O       11.97433930      11.78988266       0.11667800      -0.01790506       0.00000393      -0.00600719
N       11.63951956      12.26020079       2.45356634       0.00053740       0.01055849       0.02088070
C       11.81349143      12.04884597       1.29262898      -0.00690694       0.00520401       0.00153017
O        2.60721825       2.90162684       6.16610539      -0.01972742      -0.01979600       0.00239636
O        4.22081408       2.03734793       5.02782453      -0.01282288      -0.01092939       0.00366549
O        2.24977434       2.42057217       3.97653569       0.00323021       0.02939118      -0.01225466
C        1.22769586       3.32438418       6.28292558      -0.01700680      -0.00852451      -0.00452596
C        1.10030250       4.10257322       7.56609891      -0.01702221      -0.01259723      -0.00244358
C        2.94858642       2.44359426       4.95617079      -0.00866431       0.00226054      -0.00291348
C        4.79297820       1.61152665       3.78071308      -0.00785513       0.00223842       0.00101969
H        0.96855154       3.92319733       5.40996979      -0.00762554      -0.00304970      -0.00334927
H        0.59920184       2.43059851       6.27131479      -0.02470961      -0.00282973      -0.01020250
H        0.05180465       4.33788403       7.74885789      -0.01553603      -0.00325619      -0.00613499
H        1.48095392       3.52703333       8.41010417      -0.02592617      -0.01803078      -0.00215045
H        1.65229994       5.04081822       7.50679564      -0.00810903      -0.01800552       0.00190613
H        4.44780205       0.60675471       3.54384376      -0.01252477       0.00741419      -0.01430519
H        5.86812803       1.62713818       3.93250153      -0.00873232      -0.00608018       0.00648221
H        4.51821747       2.29250333       2.97841887       0.00036293       0.01464742       0.00910112
O        7.81340176      11.43605340      10.22521069       0.00846276       0.02006371       0.01255757
O        9.81552955      11.72659063       9.50029189       0.00434236       0.01673713      -0.00151985
O        9.12578408       9.61052420       9.93350705       0.00464602       0.01914394       0.00717635
C        6.72052084      10.57924278      10.63283333       0.00894630       0.02122840       0.01635294
C        5.58809971      11.48069930      11.03654064       0.01331544       0.02151677       0.02715302
C        8.93554656      10.80621918       9.89275332       0.00570038       0.01810300       0.00634060
C       11.12311321      11.21242171       9.22432909       0.00207653       0.01428211      -0.00702577
H        6.44810775       9.93904802       9.79492431       0.00222322       0.02509618       0.01576242
H        7.06824906       9.94433444      11.44888382       0.01254243       0.01722497       0.01164341
H        4.70336288      10.88161411      11.24437870       0.01316519       0.02298777       0.02969853
H        5.84699870      12.06585120      11.91891926       0.01958323       0.01552541       0.02933586
H        5.33923108      12.16132405      10.22636421       0.01066098       0.02739827       0.03303096
H       11.48469371      10.65571398      10.08267139       0.00309330       0.01118146      -0.00955138
H       11.74805149      12.08694733       9.07599508       0.00406575       0.01251185      -0.00754515
H       11.10564040      10.59002021       8.32835025      -0.00179383       0.01622872      -0.00814509
O        5.58631367       5.14214700       9.68380920       0.00907966      -0.01186362       0.01832743
O        7.50953071       4.17498923       9.83950543       0.00947841      -0.01158035       0.01751387
O        5.66358162       2.87950706       9.61019240       0.01168382      -0.01124239      -0.00265525
C        4.15979569       5.07067585       9.48674966       0.00845127      -0.01145595       0.02001599
C        3.66091130       6.48627512       9.41535493       0.01097488      -0.01116055       0.00736442
C        6.20275575       3.95302528       9.70714399       0.01031232      -0.01169264       0.00941416
C        8.31934249       2.98963267       9.72226861       0.01021512      -0.01182848       0.02252978
H        3.95694507       4.52064199       8.56595913       0.00588750      -0.02068081       0.02627993
H        3.71872781       4.50958472      10.31309556       0.00879036      -0.00196671       0.02658904
H        2.57781305       6.49629722       9.28367453       0.01181468      -0.00915998       0.00125304
H        3.90406887       7.02087639      10.33350641       0.00657554      -0.00519263       0.00478277
H        4.11188602       7.00333728       8.56904427       0.01650152      -0.01800791       0.00632669
H        8.10207922       2.29396308      10.52877301       0.00446156      -0.01376490       0.01937205
H        9.34432868       3.34250642       9.77301666       0.00992042      -0.01211809       0.03197370
H        8.13284666       2.50806836       8.76548358       0.01694322      -0.00915311       0.02049688
O        4.28906863       9.40882126       6.64014132       0.01021397      -0.01146431       0.01658042
O        2.61692613       9.15863993       7.97764826       0.01087035      -0.00785192       0.01913328
O        4.41103198      10.32256814       8.70500798      -0.00419870       0.02725136       0.00145888
C        5.57259634       9.99147301       6.32094845       0.00824890      -0.00951093       0.01028776
C        5.77719970       9.82860971       4.83709910       0.00312632      -0.01246216       0.00998622
C        3.83341311       9.68913486       7.85964757       0.00517315       0.00515676       0.01151323
C        1.97603025       9.40254169       9.23732501       0.00937049       0.00529143       0.01579782
H        5.56150215      11.04022699       6.62083264       0.00811420      -0.00905588       0.00763574
H        6.33607061       9.47048605       6.90143500       0.01134437      -0.00698766       0.00849441
H        6.73680489      10.26457173       4.55441259      -0.00289206      -0.00349027       0.00368751
H        5.76700638       8.77480201       4.55920501       0.01320207      -0.01296335       0.01200704
H        4.98867668      10.33568711       4.28278554      -0.00457563      -0.02166225       0.01268587
H        2.53643132       8.93551826      10.04472331       0.01273133       0.02052386       0.02228251
H        0.99339253       8.95115058       9.14560712       0.01193592      -0.00163849       0.02357872
H        1.89552172      10.47050267       9.43011352       0.00295261       0.00737604       0.00114715
O        2.92108148       7.84358587       4.44065661      -0.00483599       0.00647549      -0.00537421
O        2.36573866       9.91960233       4.56588725      -0.00246695       0.00802626      -0.00415346
O        1.11244457       8.39691570       5.68636202       0.00132757       0.01024541       0.00181675
C        2.80948570       6.47927079       4.90528278      -0.00439388       0.00618942      -0.00525025
C        3.90383918       5.69814379       4.23426304       0.00926313       0.01012594       0.01261300
C        2.04438786       8.69383903       4.97967741      -0.00143385       0.00762916      -0.00258982
C        1.68254349      11.00770815       5.20916561      -0.00854644       0.00455651      -0.00454704
H        2.91625742       6.48240724       5.99238767      -0.02181013       0.00763644      -0.00383621
H        1.81275337       6.10628110       4.65845636       0.00198296      -0.00055456      -0.02069403
H        3.81779341       4.64646698       4.49591327       0.01501700       0.01161346       0.02081803
H        3.83986385       5.78686227       3.15081163       0.01959734      -0.00004037       0.01123425
H        4.88444768       6.03722417       4.56370240       0.00264405       0.02106324       0.02096324
H        0.60952206      10.94780366       5.06082436      -0.00841352      -0.00565872       0.00017833
H        2.04826996      11.90248406       4.71626434      -0.01903209       0.00681147      -0.00795932
H        1.91842962      11.00864324       6.27277593      -0.00498169       0.00900618      -0.00530297
O        8.85149192       5.72087865       7.24329404       0.00175706       0.00434095       0.01215911
O        7.48402186       4.11434729       6.85361442       0.00443082       0.00232044       0.00438389
O        6.73052948       6.24327055       6.62361339       0.00873291       0.00152659      -0.01260228
C        9.13291535       7.11979028       7.46956325      -0.00110012       0.00516915       0.01299409
C       10.60652722       7.23405955       7.74591650      -0.00058091       0.00960585       0.00791864
C        7.59492346       5.44098614       6.88628946       0.00583524       0.00248826       0.00005285
C        6.20608575       3.60615661       6.43253510       0.00699541       0.00468059      -0.00735777
H        8.83589884       7.67951221       6.58101393      -0.00606932       0.00604247       0.01539931
H        8.53105304       7.47136525       8.30804331       0.00112224       0.00192131       0.01584792
H       10.86470195       8.27933304       7.90708728      -0.00431536       0.00925758       0.01593142
H       10.86761654       6.67775278       8.64630388       0.00597645       0.00355804       0.00206727
H       11.20124955       6.86198259       6.91191991      -0.00217028       0.01933666       0.00261356
H        5.42153131       3.93147665       7.11122666      -0.00021094       0.01869644      -0.02228972
H        6.30083758       2.52721324       6.48242989      -0.00168381       0.00462642       0.00660118
H        5.99591731       3.93305158       5.42113617       0.02283292      -0.00569966      -0.01435462
O        2.10928307       8.59468224       1.46027793      -0.00464945       0.00127532      -0.00950883
O        1.31298311       6.58079299       1.29043216      -0.01599336       0.00559276       0.00544831
O        3.52733118       6.89503400       0.98911015      -0.01411808      -0.00989494       0.00262623
C        3.26683263       9.48267556       1.53440522      -0.00174430      -0.00303411      -0.01819623
C        2.78142246      10.90064263       1.58780244       0.00289485      -0.00104296      -0.03125559
C        2.42344352       7.32812087       1.22987925      -0.01120126      -0.00214887      -0.00034226
C        1.54080656       5.18538024       1.00811841      -0.02629231       0.00255750       0.01321015
H        3.82700458       9.19336485       2.42450320      -0.00207441       0.00423856      -0.01571321
H        3.88624456       9.29591900       0.65742718      -0.00234166      -0.01376698      -0.01633027
H        3.64304370      11.55839932       1.71147890       0.00589319      -0.00230566      -0.04706734
H        2.25792211      11.18522221       0.67678092      -0.00445199      -0.01060041      -0.03006005
H        2.10419610      11.06672948       2.42209811       0.01037110       0.01076948      -0.02746342
H        2.06350995       5.07931709       0.05924815      -0.03494743      -0.00622194       0.00947902
H        0.55658363       4.73213481       0.96209208      -0.02924296       0.00814454       0.02425076
H        2.13110059       4.72718957       1.80011784      -0.02251616       0.00423232       0.01105952
O        7.83958719       5.91138072       2.00208720       0.00671667      -0.00880495      -0.01431807
O        9.20937163       4.65598958       3.10131063       0.00976419      -0.00876433      -0.01827209
O        6.98277019       4.37252772       3.42493592       0.00964200      -0.03063583      -0.03512418
C        6.50156210       6.42627268       1.77051560       0.00335065      -0.02441344      -0.02747521
C        6.60867624       7.49692652       0.72116223       0.00157319      -0.02073124      -0.02399549
C        7.91761758       4.92131263       2.89480432       0.00861144      -0.01763558      -0.02329102
C        9.46504040       3.59159093       4.04507511       0.01357672      -0.01236340      -0.02376032
H        5.85012495       5.61211482       1.46064206       0.01497447      -0.03095526      -0.03589557
H        6.11426242       6.81641257       2.71549994      -0.00919758      -0.03100598      -0.03088355
H        5.61124767       7.87245694       0.50969256      -0.00024277      -0.02962940      -0.03195865
H        7.21691202       8.33213056       1.07024878      -0.01044046      -0.01554459      -0.01557363
H        7.04099125       7.10932150      -0.20003735       0.01377556      -0.01309630      -0.02122548
H        9.22867150       3.92735014       5.05388167       0.01619764      -0.01639912      -0.02192664
H       10.51826465       3.35572821       3.93879991       0.01340064      -0.01128389      -0.02756111
H        8.86291499       2.72058971       3.79866098       0.01404542      -0.01189181      -0.02503869
