146
Lattice="16.088592724705357 0.0 0.0 0.0 16.088592724705357 0.0 0.0 0.0 16.088592724705357" Properties=species:S:1:pos:R:3:forces:R:3 energy=-994683.5 stress="-5.139464701642282e-05 0.00015306333807529882 -8.38498308439739e-05 0.00015306333807529882 0.00011495337821543217 -1.8758804799290374e-05 -8.38498308439739e-05 -1.8758804799290374e-05 -5.685548239853233e-05" pbc="T T T"
N       14.27179221      14.85608085       2.87130034      -0.00721708      -0.00205713       0.00984839
C       14.66620427      13.45938149       3.24457938      -0.00286180      -0.01045263       0.00880133
C       13.67018792      15.53512893       4.05097020      -0.00440648      -0.00105134       0.00846142
C       13.27013207      14.83411571       1.75469551      -0.00111103      -0.00623629       0.00280446
C       15.49049933      15.59494220       2.42112250       0.00436753      -0.01171559      -0.00845072
H       15.29295947      13.51710661       4.13196140       0.00320813      -0.00508498       0.00730611
H       13.76630424      12.88637856       3.44663614      -0.01473930       0.00131764       0.01579719
H       15.20658660      13.00330128       2.41864065      -0.01194964      -0.00962575       0.00171006
H       13.35804408      16.53394339       3.75732416      -0.00127806      -0.00159688       0.00283136
H       12.80929043      14.95769768       4.37928960      -0.00651820      -0.00376652      -0.00190308
H       14.41257822      15.58780105       4.84313107      -0.00547528      -0.00541058       0.01010692
H       13.04422068      15.86472140       1.49247898      -0.00801393       0.00210737       0.02015046
H       13.70655673      14.29196628       0.91952906       0.00293559       0.00820068       0.00340748
H       12.37748208      14.32530335       2.10917017      -0.00043042      -0.01202223       0.00571385
H       15.21723387      16.63012494       2.22991679      -0.00959457      -0.00976487      -0.02106030
H       16.23226870      15.54482210       3.21585828       0.00575901      -0.00039588      -0.00560017
H       15.85803959      15.11496134       1.51706413      -0.00440709      -0.02795433      -0.00177389
Cl      14.86317102      11.84649857       0.13838716      -0.00997606       0.01270199      -0.00939012
O       15.69407885      11.24310424       1.20772543       0.00834954      -0.01421010      -0.03873634
O       13.44313423      11.89664222       0.63469142      -0.00401545       0.00089654       0.00891793
O       15.30451917      13.25910775      -0.03815186      -0.00893301       0.01444030      -0.00258297
Cl      11.18744916       7.31714334      14.94980432       0.02519406       0.00713748       0.01590365
Cl       9.63033282       9.20080800      13.34899498      -0.00165194      -0.00268119       0.02755840
Cl      11.89826879      10.14899757      14.93723796       0.02758865       0.00292137      -0.01762435
C       11.23256034       8.81394852      13.99482333       0.00895463      -0.00161714       0.00130877
H       11.89663676       8.63791231      13.15769429      -0.01048027      -0.01174506      -0.01377654
Cl       9.78831155      12.69206828       1.30832182       0.02264038       0.00573242       0.01219807
Cl      11.10350533      11.75227803       3.74330838       0.01883057      -0.01024870       0.00422779
Cl       9.83910604       9.85238846       1.93266197      -0.00079167       0.00302988       0.00476009
C       10.72187248      11.37007695       2.04199731       0.01401951      -0.00492647       0.00465892
H       11.66875385      11.29385706       1.51175771       0.01041442      -0.01580580       0.00120381
Cl      15.97484176      15.81136909       7.23906424      -0.02404980      -0.00719066      -0.01279942
Cl      16.38456266      14.07344808       9.53642447       0.00179072       0.00702730      -0.00632773
Cl      14.48582091      13.31052831       7.45972861      -0.00086720      -0.01951445       0.00624181
C       16.00762375      14.12678806       7.80921856      -0.00681011      -0.00450745      -0.00483972
H       16.80166262      13.61163220       7.27664511      -0.00462262       0.00084151      -0.00646552
Cl      10.76769218       5.72571797       9.06298177       0.00580269       0.01195374       0.00162987
Cl      10.77535334       4.24418987       6.54425253       0.00163194       0.02663638       0.00095910
Cl      13.12578188       4.19194254       8.28428071       0.00275081       0.00095557       0.00350723
C       11.36138245       4.28074020       8.21159946       0.00311783       0.01000891       0.00050584
H       10.96575076       3.41331349       8.72763849       0.00460687       0.00915152       0.00278580
Cl       4.08873575       8.21441328      12.71242411       0.01290656       0.00245550       0.00255512
Cl       3.81213722       6.42388583      10.42561197       0.02014368       0.01440134      -0.00286272
Cl       5.87300989       5.92793643      12.43197419      -0.00207022      -0.01391071       0.01308121
C        4.23562460       6.55461376      12.14387153       0.00611009       0.00229087       0.00103918
H        3.54211835       5.93525413      12.70224334      -0.00358893       0.00545493      -0.00750412
Cl      11.39472315      12.71026271      12.17183956       0.00762210      -0.00921443       0.00515839
Cl      13.22891319      14.75368134      11.18780395      -0.00154632      -0.00151315       0.00441422
Cl      10.83291724      14.08988359       9.65837416       0.00195305      -0.00754923       0.00486061
C       11.54081825      14.23209345      11.27505864       0.00058350      -0.00811239       0.00562971
H       10.98598935      14.98819190      11.81841567      -0.00140987      -0.01229176       0.00872183
Cl       6.74233418      11.20114115       4.21943053      -0.01798430      -0.02666059      -0.00017589
Cl       5.77733924       9.97100713       6.68860124       0.01905972      -0.00096836       0.02765411
Cl       7.43741974       8.43352234       4.84684342       0.01724098      -0.01187900       0.03179570
C        7.09981478      10.03972631       5.50232521       0.00553575      -0.00622558       0.01230832
H        7.98187121      10.37822939       6.03234728       0.00619209       0.01178338      -0.00184390
Cl       4.91565225       5.36964984       3.70984587       0.00341812      -0.00287580       0.01273678
Cl       6.04127774       2.70597739       3.27294779       0.00780413       0.00090729      -0.01032560
Cl       7.77726761       4.90437179       4.09353785       0.00442842       0.00111921      -0.00229499
C        6.14713879       4.21472550       4.20770706       0.00721163      -0.00493898      -0.00073208
H        5.96940843       3.96425853       5.24632315       0.01476503      -0.01379409      -0.00184703
Cl       4.79477035      16.44530167       6.87946384       0.01065843      -0.00154255       0.00722465
Cl       2.92343910      14.84581990       5.29753086       0.00958147       0.00260040      -0.00015423
Cl       4.07128644      13.74795466       7.74219508      -0.00122159      -0.00026515       0.00343360
C        3.52242108      15.22374310       6.92810547       0.00700423       0.00131532       0.00111213
H        2.69377040      15.63179021       7.49724643       0.00587989       0.00378849      -0.00306118
Cl      13.72969523       9.99282479      10.19909356       0.01750835       0.01061442      -0.01101312
Cl      14.05805971       7.96569702       8.12781140      -0.02137345       0.00118488      -0.00728107
Cl      12.41650317      10.32810850       7.61548547      -0.01065749       0.01123717       0.00230603
C       13.83773482       9.68615229       8.46235722      -0.00418982       0.00453231      -0.01217349
H       14.70975801      10.21341302       8.09548495      -0.00620693      -0.00308050      -0.02627458
Cl      14.81671101       8.91151773      13.35975370       0.02039970      -0.01782367       0.02475037
Cl      13.76585462       6.54632053      11.99042300      -0.00554186       0.01154424      -0.00407997
Cl      16.58419690       7.25191879      11.72393583       0.01042613      -0.00968079       0.00761938
C       15.17147930       7.27329983      12.78481810       0.00630040      -0.01306553       0.00285181
H       15.40432818       6.67457855      13.65665079       0.00839726      -0.02741711      -0.00845864
Cl       1.00679937       8.22399270       0.39142733      -0.00442448       0.00341827      -0.00474138
Cl       0.59213530       5.38654098      -0.21773768      -0.01196668       0.01804850      -0.03859013
Cl       0.42686647       6.32804009       2.52736583       0.03687629      -0.02385260      -0.01553172
C        0.14976400       6.76461463       0.82984618       0.00517025      -0.00127125      -0.00510155
H       -0.91312030       6.93682996       0.70637749       0.00177687      -0.00308345       0.02085933
Cl       4.60835768       4.25965919       7.63503829      -0.00853331       0.00008332      -0.00383271
Cl       7.24884044       3.04593297       7.84279664      -0.00739866      -0.00294863      -0.00540450
Cl       6.96600174       5.94214292       7.97446015      -0.01052371      -0.00113264       0.00201055
C        6.22679326       4.39608695       8.36990670      -0.00877157      -0.00346828      -0.00393716
H        6.10393181       4.32701391       9.44599420      -0.00951497      -0.00742066      -0.00510290
Cl       1.61401063      10.84872492      11.29523134      -0.02497397       0.00261402      -0.01355872
Cl       4.09213550      10.78528492       9.75294509      -0.00274363      -0.00552978       0.01752222
Cl       1.52624729      10.56080541       8.38510277       0.01215242       0.01699349      -0.01378365
C        2.39421507      11.26525791       9.77071889      -0.00028162       0.00426019      -0.00022073
H        2.35410760      12.34026008       9.65526825       0.00669826       0.00627029       0.00488064
Cl       7.78374172      -0.39918526       2.24893133      -0.01857270       0.00373638      -0.00060068
Cl       9.13379462      -1.23180046       4.70084903       0.00387286       0.01624270      -0.00789625
Cl      10.20376510       0.98380465       3.12499784      -0.01364583       0.00804747      -0.02847736
C        8.73497050       0.12826206       3.64741189      -0.00879212       0.00944133      -0.01060336
H        8.13134902       0.83495771       4.20470494      -0.00318842       0.01000485      -0.00411895
Cl      11.64842176      15.60435757      14.68199587      -0.00675580       0.00997712       0.00440817
Cl       9.57652512      17.60470055      15.13278350      -0.01481126       0.00208041      -0.00271672
Cl       8.89057138      15.06321684      13.88443141      -0.00057094      -0.00711127       0.00854692
C        9.93520658      15.87968364      15.05906720      -0.00758330       0.00372001       0.00649652
H        9.73913423      15.44655235      16.03261529      -0.00598592       0.00755580       0.00871277
Cl      12.37511734       7.64068417       4.61546992      -0.01730937       0.02117270      -0.00532387
Cl      13.40079317       8.70454607       2.08925086      -0.01227872       0.02127168      -0.00033918
Cl      14.36423583       9.78816212       4.60606569      -0.00147694       0.00660565       0.00563738
C       13.76936829       8.34050826       3.78316022      -0.01192295       0.01476888      -0.00248295
H       14.56660707       7.60799282       3.79919059      -0.01579034       0.01179919      -0.00745223
Cl       6.43639631       5.21122118       0.25130251       0.01458167      -0.00065815      -0.02069148
Cl       4.16737978       7.04885853       0.24925295       0.01647475       0.00587055      -0.01028527
Cl       6.69856405       7.87087355       1.43091141       0.02456944      -0.00890005      -0.01325557
C        5.92846837       6.90184001       0.16282349       0.01603254       0.00001914      -0.01460725
H        6.24430802       7.29959275      -0.79388131       0.01124296       0.00196235      -0.01557320
Cl      13.04882767       5.34911926       1.42971255      -0.03181200      -0.01538564      -0.00067633
Cl      13.82556940       3.24381213       3.28371729       0.01006861      -0.00233661      -0.00010335
Cl      12.75942656       2.56003176       0.64491187       0.02301255      -0.02496023       0.00133272
C       13.71345796       3.72602544       1.57340261       0.00150067      -0.00312978      -0.00134563
H       14.72112614       3.73050535       1.17193448       0.00463244       0.01285469       0.00330407
Cl       1.83827919      11.03595773       4.04736425      -0.00817612      -0.00995022      -0.00816460
Cl       1.69447308       8.48265258       5.46771758      -0.00779086       0.00193876       0.01616986
Cl       3.64076189       8.85249882       3.33716601      -0.00439745      -0.01288900       0.01150143
C        2.75092531       9.64573447       4.64250535      -0.00838419      -0.00474405       0.00483197
H        3.47520035       9.99946137       5.36539353      -0.01097664       0.00288273       0.00318897
Cl       9.20799288       4.55678285      13.15792691       0.00678165       0.01508899      -0.00425443
Cl      10.67946079       2.62416830      11.52641834       0.00665665       0.01315351       0.00119689
Cl       7.76285978       2.60794148      11.52378945       0.00454538      -0.00943825       0.02731694
C        9.21345913       3.61677323      11.66436124      -0.00101131       0.00142214       0.00426020
H        9.22069654       4.31538054      10.83463015      -0.01466129      -0.00882006      -0.00381909
Cl       2.97250453      11.20839319       0.33105016      -0.00296062       0.01166072       0.00258350
Cl       5.49391389      10.70216215      -1.06765337      -0.00772201      -0.00407176      -0.00041270
Cl       5.41666218      12.55055097       1.18811103       0.00001501       0.01713058      -0.01805367
C        4.72173847      11.07438955       0.48837073      -0.00248018       0.00978689      -0.00102636
H        4.94297361      10.25701446       1.16425027       0.00101737       0.01524711       0.00351164
Cl       0.59441979       1.41598452      15.31448476      -0.00815594       0.01815491      -0.01166892
Cl       3.32343312       2.47128240      15.25524506      -0.00418440       0.01460063      -0.00551400
Cl       2.86568912      -0.41361357      15.11736067      -0.01406812       0.00942975       0.01225288
C        2.24893696       1.18378360      14.68991010      -0.00422414       0.01029504       0.00041112
H        2.19010028       1.24640729      13.60902726       0.01040449       0.01056764       0.00120428
Cl       7.10695813      10.28334184      11.33443338      -0.00107342      -0.01178044       0.00131989
Cl       9.32274491       9.67062257       9.53525875      -0.00767951       0.00503522      -0.02340108
Cl       7.73575944      12.08724782       9.13330616      -0.01219891       0.00128999       0.00568876
C        8.40018153      10.95539268      10.32363949      -0.00854331      -0.00560412      -0.00438756
H        9.07677922      11.50688231      10.96666297      -0.00344084      -0.01156378      -0.00503105
Cl       1.44234154       3.67679021      11.35741634      -0.00199910      -0.00367189       0.00976580
Cl       4.16081221       2.61496108      11.31407501       0.00485294       0.01100983      -0.00041483
Cl       1.97215831       1.09288597      10.11689386       0.00491540      -0.00639316       0.01679486
C        2.61546130       2.71308133      10.45309122      -0.00132153      -0.00191759       0.00846364
H        2.80264611       3.20417743       9.50517833      -0.00987398      -0.00337959       0.00718361
