148
Lattice="10.746505214684941 0.0 0.0 0.0 10.746505214684941 0.0 0.0 0.0 10.746505214684941" Properties=species:S:1:pos:R:3:forces:R:3 energy=-113405.515625 stress="-0.001045455108396709 0.0002087950852001086 0.00019005369540536776 0.0002087950852001086 -0.00230772839859128 -0.00042076459794770926 0.00019005369540536776 -0.00042076459794770926 -0.0005729607655666769" pbc="T T T"
N        4.56325069       4.01423819       4.92343772      -0.00158656       0.00016526       0.00186132
C        4.71712827       5.06536571       5.99894923      -0.00556690      -0.00363368       0.00572199
C        3.42481880       4.36857420       3.97603126       0.00079089       0.00255080      -0.00025719
C        4.27441652       2.67216598       5.56761579      -0.00177549      -0.00166175      -0.00226355
C        5.85088505       3.95505397       4.12644625       0.00121662       0.00293158       0.00605667
C        3.52345518       5.23523733       6.90987774      -0.00930047      -0.00267299       0.00025013
C        3.44251775       5.78736843       3.44877688       0.00317515       0.00300938       0.00105821
C        4.36361048       1.50639994       4.61368977       0.00334859       0.00059393      -0.00400075
C        7.07348808       3.53307062       4.91120905      -0.00148401      -0.00270429       0.00698602
H        5.58848418       4.77531864       6.57938102      -0.00971073      -0.00817628       0.00946859
H        4.96345603       5.98606265       5.47339939      -0.00009929      -0.00259274       0.01017950
H        3.49411726       3.65568597       3.15551255       0.00118449       0.00353852      -0.00105211
H        2.50257478       4.16465878       4.51857168      -0.00031817       0.00356041      -0.00179994
H        4.99041616       2.55122684       6.37969266      -0.00524220      -0.00100720       0.00102261
H        3.27583750       2.74699154       5.99704804      -0.00359792      -0.00479985      -0.00642891
H        5.66016308       3.26812561       3.30201472       0.00333878       0.00823593       0.00123435
H        5.98755977       4.94807667       3.70554283       0.00287046       0.00497168       0.01195385
H        3.69798857       6.12103572       7.52244752      -0.00598852      -0.00853437       0.00735414
H        2.59042272       5.38889237       6.36986658      -0.00518474       0.00792951      -0.00365865
H        3.40664488       4.39059655       7.58536857      -0.01907500      -0.00658232      -0.00630783
H        2.65550883       5.86205614       2.69762539      -0.00007053       0.00657301       0.00507122
H        3.21265471       6.52054889       4.22000996       0.00961945       0.00321548       0.00251606
H        4.38318619       6.04957490       2.96735965       0.00191492       0.00018901      -0.00286344
H        4.01107362       0.62330968       5.13609016       0.00445323      -0.00054766      -0.00589278
H        3.74201298       1.63931041       3.73214131       0.00371829       0.00045359      -0.00420055
H        5.38340591       1.30239974       4.29414137       0.00405267       0.00341182      -0.00378896
H        7.91238212       3.54955951       4.21918662       0.00104184       0.00384070       0.01016013
H        7.31181154       4.21387239       5.72358694      -0.00524941      -0.01087874       0.01484625
H        6.99967711       2.52216214       5.31140913      -0.00205660      -0.00645602      -0.00301721
S        9.00404768       8.83048585       2.49800272       0.02361163       0.04145475      -0.00966406
F        7.36245089       8.80732529       0.45450747      -0.02506030      -0.02926050       0.00357856
F        9.45194182       8.72037481      -0.11814436      -0.00337393       0.00212699      -0.00174282
F        8.59464238      10.58853785       0.56280976      -0.03969544       0.00794961       0.00774499
O       10.04459965       9.77520653       2.84634012      -0.01670837      -0.00213897      -0.00849837
O        9.41259404       7.43999924       2.45128883       0.00723612      -0.03539938      -0.00371573
O        7.72044194       9.04704638       3.17301824      -0.03767025      -0.00824208       0.02462563
C        8.58682725       9.25839115       0.74304887      -0.01964453      -0.00542441       0.00505865
O        4.30987955       4.87541750       0.01566122      -0.00379247      -0.01057768      -0.02803580
H        4.90978445       4.58914288       0.71001615      -0.01458775      -0.01054055      -0.01905799
H        3.51627167       4.32504515       0.11925411      -0.02520523       0.02257595      -0.01111629
O        6.41565936       2.82667048       8.80083257      -0.00687572      -0.00183080      -0.01874430
H        7.09829220       2.35527085       8.29246785      -0.00145066      -0.00583474      -0.00756837
H        6.62382923       3.76351473       8.69637492      -0.00495689      -0.00256188      -0.01940390
O        3.60574375       8.50589862       0.56275241      -0.00225195       0.01574466      -0.00108571
H        3.10970536       7.73892755       0.88455565       0.00022544       0.01831362       0.01088261
H        2.90664163       9.18466096       0.46286395      -0.00722377       0.01443275      -0.00721941
O        1.58970232       3.84906568      11.04657875       0.01244870       0.00804156      -0.00351053
H        1.05098117       3.06174617      10.88597051       0.02715948      -0.00398524       0.00722766
H        1.29539562       4.45600169      10.33201457       0.00768697      -0.00535872      -0.01355943
O        7.64896689       5.46372009       7.68624667      -0.00806621      -0.01295757      -0.00140942
H        7.73900741       5.66984312       8.65379987      -0.01445939      -0.00928955      -0.00184304
H        7.32621711       6.27742055       7.28000107      -0.01266523      -0.01641397      -0.00444895
O        1.46449255       2.72242448       7.94837431       0.00116155      -0.01186942       0.01028023
H        1.05871974       3.58412755       8.10147277      -0.02196284      -0.01774139      -0.02184233
H        0.84497830       2.07476740       8.33473700       0.00458191      -0.01771996       0.00988945
O        1.85840724       8.09602881       6.19321428      -0.00158136       0.00501260      -0.00653112
H        1.47458415       7.43368830       5.59044523       0.00865600      -0.00564455      -0.00163677
H        1.38751006       7.98550565       7.03048774      -0.00550416       0.00819470      -0.00803031
O        5.20711342       7.19794731       9.47232206      -0.00267569       0.00310099       0.00797058
H        4.63787670       7.80443225       9.98608398      -0.00696433       0.00583366       0.00156769
H        4.91194275       6.31730960       9.76641329      -0.00724342       0.00310104       0.00506366
O        5.75337665      10.64342653      -1.12704162       0.00184673      -0.00283965       0.00639221
H        6.46458008       9.99567203      -1.24270834       0.00473168       0.00236315       0.00162124
H        6.16366388      11.42564158      -0.74286074      -0.00323473      -0.00272898       0.01135267
O        1.32207021      10.14914249       0.61070605      -0.00698233       0.00283109      -0.01157959
H        1.39338631      10.96894326       1.15441465      -0.01065348      -0.00592099       0.00451208
H        0.90591288       9.53490242       1.23046301      -0.00896996      -0.01062810      -0.02279489
O        3.94679453       1.84175568       1.13255668       0.02238663       0.01322246       0.01704704
H        3.84032160       1.84658271       0.15602584       0.01965616       0.00585598       0.01777901
H        4.44823545       1.03310937       1.35025847       0.01602444       0.01086831       0.01924868
O       10.75809881       2.79049048       4.85435501       0.02491742       0.00590707      -0.01228806
H       11.36342683       2.08512352       5.14972609       0.01702836      -0.00038359      -0.00931285
H       10.50745048       3.30076245       5.64977581       0.00959116      -0.00503631      -0.01247486
O        2.58731941      -0.34096119       7.94810297      -0.01464050       0.02081321      -0.01665233
H        2.40260936      -0.10829882       7.01806918      -0.01337155       0.02689006      -0.01581034
H        3.15415224       0.36364744       8.32495131      -0.01092409       0.01523583      -0.01381890
O        0.44671167       6.19836811       4.79740164       0.00492271      -0.00600827       0.00603825
H        0.42313000       5.79663578       3.90696718      -0.00495286       0.00763769       0.00049178
H       -0.25713315       6.87333456       4.86695161       0.00882632      -0.00102194       0.02391286
O        0.36649553       4.54572986       2.64491421      -0.00464730       0.00771455      -0.00143075
H        0.39349923       3.77209199       3.23616162       0.00488542       0.01069711       0.00268174
H        0.89653777       4.31342822       1.84712054      -0.00037332       0.01216839       0.00163120
O       11.75069939       7.06109984       0.82773788       0.00617625       0.00447382       0.00163744
H       11.39769932       6.47487464       0.14123027       0.01406488       0.00019178      -0.00092758
H       11.04704795       7.10098012       1.49468379       0.00327859       0.00175487      -0.00295859
O        0.76465739       5.53321924       9.09272817       0.00907938       0.01348697       0.00991043
H        1.24247651       6.34623778       8.83942473       0.00869275       0.01234905       0.00642877
H        0.14562015       5.33743744       8.35717382       0.01411046       0.00314544       0.00985284
O        2.68501598       9.50980971       3.58098645       0.01718789       0.01902273      -0.00869556
H        3.24781523       9.13276940       4.28654682       0.00938426       0.01252600      -0.00813158
H        3.36166498       9.85819543       2.97907566       0.01973229       0.02658350       0.00020033
O       10.15102998       4.70952764       6.84637898       0.01238261      -0.00927528       0.00806747
H        9.23061369       4.98599129       7.04632755       0.01257537      -0.00738794       0.00617702
H       10.48029835       5.30655828       6.13742525       0.01520144      -0.01627509       0.00364091
O        6.55087825       6.38126385       2.14423737      -0.00229309      -0.01041792      -0.00182282
H        6.78433681       7.25728391       2.47376253       0.00055245      -0.01357603      -0.00443541
H        7.38048882       5.87842471       2.18336272      -0.00637336      -0.01646641      -0.00357617
O        1.51754608       1.58755343       2.23508359      -0.00038104      -0.00351290      -0.01365164
H        1.61629855       1.13580831       3.08262049      -0.01560337      -0.00284521      -0.01063149
H        2.43737581       1.74659884       1.89497922       0.00301190       0.00357665       0.00519449
O        8.40748134       1.09370004       7.67482490       0.00406543      -0.00875100      -0.01780879
H        9.15074303       0.63815922       8.11921264      -0.00643552      -0.00991322      -0.00171509
H        7.69366309       0.44993501       7.49907899      -0.00524169       0.00048672      -0.00954702
O        5.06525516      10.21483797       2.08914856       0.00467491      -0.00429094       0.00162416
H        5.93491953       9.99951217       2.44836196       0.00156790      -0.01329559      -0.00461227
H        4.81424764       9.48355615       1.48975817      -0.00666507       0.00528755      -0.00563538
O        3.74692441       1.89052376       9.11062096      -0.00044271       0.00250775       0.01640317
H        3.00736330       2.40761609       8.72254426      -0.00266147       0.00415554       0.02241103
H        4.59499070       2.29697128       8.85669152      -0.00461919       0.01266541       0.02001976
O        7.25140125       8.51584987       8.33408545      -0.00085610      -0.00154620       0.00568512
H        8.10069547       8.16738320       8.62585978      -0.00779279      -0.01450545       0.01152955
H        6.56478217       7.94963973       8.76261273      -0.00961966       0.00462626       0.00169708
O        9.63071479       7.85384033       6.11403334      -0.00185400      -0.00401354      -0.00976913
H        9.69563090       8.81796102       5.98267489      -0.00282022      -0.00358342      -0.01513605
H        8.68634950       7.67444718       5.98706692       0.00131349      -0.01039088      -0.00806387
O        8.58712021       4.37181681       1.66330109       0.01099279      -0.01086821      -0.01553272
H        9.48264578       4.62142149       1.99303908       0.00687942      -0.00771595      -0.00398098
H        8.51590497       3.45656342       2.01300713       0.00575961      -0.00935154      -0.00757578
O        9.73182114       2.85189233      10.11448373       0.02151890       0.00919625       0.00322842
H        9.16729772       3.37747566      10.69908082       0.03464407       0.00142845       0.02491730
H        9.13825000       2.41613716       9.49370019       0.00731950       0.00502457       0.01852310
O        7.76161354       5.94033340      10.26040321       0.01214232       0.00174932      -0.00894946
H        6.98666431       6.37739840      10.64103758       0.01699165      -0.00169458       0.00404538
H        8.08615743       5.34685820      10.96091407       0.01512607      -0.00858111      -0.01890696
O        9.56854947      -0.17447428       5.50950664       0.01125079      -0.00063792       0.00647658
H        9.10590827       0.52427222       6.00520387      -0.00405435      -0.03037702       0.03048338
H        9.38745946      -0.06264330       4.56583949      -0.00653495       0.02263018       0.00588913
O        9.00050740       1.91497822       2.86267803      -0.00089796      -0.00541133       0.00725275
H        9.58441659       2.18848766       3.59941752       0.01015252      -0.00394600      -0.00221600
H        9.57144154       1.39057793       2.28929586      -0.01381290      -0.02564317       0.00940328
O        1.64475991       8.06046460       8.93200450       0.00667675       0.01492848       0.00494795
H        1.31749108       8.24858776       9.82123047      -0.00526941       0.01187145       0.00154983
H        2.19381115       8.82681718       8.67344576      -0.00587395       0.02374001       0.00266460
O        4.31859243       8.89870987       5.72285854      -0.00154633       0.00092681      -0.00318508
H        5.04505081       8.25803864       5.67405372      -0.00153236       0.00108721       0.00922370
H        3.52929779       8.48073414       6.13635758      -0.00402164       0.00419714      -0.00097240
O        0.09105665       0.40501481       8.86814605      -0.00930671      -0.00151207      -0.00382850
H        0.90490582       0.00480576       8.48958081      -0.01360969      -0.00168177      -0.01459562
H        0.17041179       0.18048233       9.80866355       0.00970110       0.00455304      -0.00350016
O        1.49560468       0.42111837       5.39940667       0.00708902       0.00952161      -0.02613677
H        1.89022014      -0.19669132       4.73917064       0.01401073       0.00855709      -0.02390000
H        0.59131456       0.07141698       5.53945451       0.00596125       0.00858551      -0.02567686
O        6.88025999       7.93224994       5.64192896      -0.00689310      -0.01039776       0.02429454
H        7.14980905       8.43291055       4.85029867      -0.01430473      -0.00106578       0.03494580
H        6.96568575       8.52928258       6.40969620      -0.00132388      -0.02822129       0.03907482
O        5.90843797       0.18613230       6.93548925      -0.00089427      -0.00405093      -0.00087635
H        5.67032895       0.13851830       7.88490243      -0.00821619      -0.00389194      -0.00357883
H        5.33703355      -0.48529507       6.52091688      -0.00514902       0.00460722      -0.00884913
