150
Lattice="11.193922683521182 0.0 0.0 0.0 11.193922683521182 0.0 0.0 0.0 11.193922683521182" Properties=species:S:1:pos:R:3:forces:R:3 energy=-168884.21875 stress="0.00018377341621089727 0.00033513581729494035 0.0011871085735037923 0.00033513581729494035 -0.00032928306609392166 -0.00032806395029183477 0.0011871085735037923 -0.00032806395029183477 5.205934576224536e-05" pbc="T T T"
N        8.46113605       9.46294315       2.08902160       0.00492266      -0.00368545       0.00117225
C        7.08216459       9.63676102       2.63691776       0.00619805      -0.01231214       0.00723961
C        9.40919889      10.34323616       2.83474167       0.00334907      -0.00069922      -0.00075129
C        8.47040172       9.83472595       0.64100003      -0.00242874       0.00008529       0.00217563
C        8.88306290       8.03740643       2.25574885       0.01487739      -0.00109661      -0.00333056
H        7.11494235       9.44959879       3.70619921       0.00951705      -0.01898101       0.00596732
H        6.76828532      10.65849142       2.43574687       0.00236104      -0.01184577       0.01555675
H        6.42566704       8.90697731       2.16890869       0.00638539      -0.01074028       0.00416349
H       10.40822684      10.19447222       2.42956199       0.00175831       0.00653302      -0.00721927
H        9.07486416      11.37408450       2.73671280      -0.00371940      -0.00230613       0.00525802
H        9.39570809      10.04534685       3.88072097       0.01183039      -0.00593333      -0.00228827
H        9.47547719       9.67827732       0.24978092      -0.00328389       0.00581742      -0.00214868
H        7.74842422       9.21243522       0.11705775      -0.00151609      -0.00196038       0.00317203
H        8.18461332      10.88157440       0.56050120      -0.00768356      -0.00120711       0.00593457
H        9.94373143       7.96725700       2.02777173       0.01325199       0.00636305      -0.01207583
H        8.69256614       7.74274025       3.28481150       0.02612507      -0.00248301      -0.00179577
H        8.29015935       7.42391716       1.58130590       0.01341964      -0.00478021       0.00101137
Br      12.18092409       9.59767261      -0.13773775       0.00483163       0.01299883      -0.00054260
O        9.26496978       4.34436014       5.35234974      -0.00031093      -0.01012370      -0.00453463
H        9.79432997       4.52081936       6.16962535       0.00754138      -0.01251393      -0.00959555
H        8.43354638       3.96046857       5.73979556       0.00076328      -0.00326220       0.00004969
O        3.31138990       1.87103839      10.01345218       0.01392083      -0.00393371      -0.00023827
H        3.93503844       2.56168319       9.69765501       0.00833452      -0.00688456      -0.00601747
H        3.53828151       1.08017499       9.51157585       0.00211748      -0.00629491      -0.01668674
O        2.36465873       6.44185076       2.25788639      -0.01785100       0.00214133       0.00722087
H        3.28787126       6.75968327       2.11392787      -0.01802240       0.01051350      -0.00414539
H        2.35011162       5.50528435       1.99528004      -0.01137127       0.00479299       0.00975319
O        2.56971620       3.73424007       1.66569765      -0.00308487       0.00533119       0.00585506
H        2.06533381       3.12310023       1.11082039      -0.00102117      -0.00081526       0.00805014
H        2.56384839       3.28652089       2.54378742      -0.00057644       0.00701765       0.00629944
O       11.15837433       5.99700172       0.28267769       0.00380696      -0.00478116       0.01297748
H       11.66462226       6.46359225       0.96581214       0.00207554      -0.01571675       0.01812026
H       10.40368539       6.56268571       0.05724820       0.00178637       0.00136910       0.02032751
O        1.80573070       4.72619690       7.22417323       0.01374438      -0.00176954      -0.00699905
H        0.85197269       4.80867443       7.43972670       0.01630822       0.00012145      -0.00443427
H        2.23871703       5.29931575       7.87137203       0.01937692      -0.00450696       0.00023062
O       10.36824834       4.71896088       7.72481187       0.01605138       0.00551058      -0.01657271
H        9.98467289       5.55025786       8.05008556       0.02949931       0.02790424      -0.02710614
H        9.97291786       3.93538275       8.16131429       0.01091765       0.02724567       0.00043333
O        5.38740470       4.74001795       4.64160393       0.00821760       0.00755214      -0.00696081
H        5.19673408       3.78089299       4.55497467       0.00779754       0.00588659      -0.00103184
H        4.49413168       5.15975978       4.73569392       0.01203438       0.00914424      -0.00945921
O        1.00940969       1.24036688       1.61578290       0.00710419       0.00777160       0.00543990
H        0.98823636       0.39844602       1.11703081       0.00952718       0.00810342      -0.00028034
H        0.09464317       1.46514001       1.81476343       0.00995323      -0.00072937       0.01488179
O        9.47450261       2.20322973       8.41758854       0.00715487       0.00209169       0.00065019
H        9.42496814       1.94992787       7.47674350       0.01164475       0.00566134      -0.00137644
H       10.32180178       1.81035850       8.75240796       0.00936491       0.00893222      -0.00062055
O        6.07364148       7.87211135      -1.30690173       0.00033987      -0.00742342      -0.00526933
H        5.45126038       8.44004344      -0.80753443       0.00280088       0.00392352      -0.02347684
H        6.06443005       8.25036608      -2.19257492       0.02651518      -0.01589565      -0.01630806
O        5.23610407       3.86797651       9.39914125      -0.01419643      -0.00525659      -0.01342803
H        5.09640246       4.52806793       8.70061152      -0.02491928      -0.00284123      -0.01395227
H        5.06318944       4.32866469      10.25769606      -0.00720586      -0.00593955      -0.01410486
O        7.42557185      10.58247795       8.43860717      -0.01079822       0.01196086       0.01175147
H        8.26313558      11.03617628       8.59327944      -0.01476318       0.01353754       0.01814187
H        7.63757345       9.81589098       7.86869468      -0.00458808       0.01057124       0.01566096
O       10.14972995       7.49512869       8.20058474      -0.00123214      -0.02268481       0.02282958
H        9.61102294       7.36288887       9.00506096      -0.00726278      -0.01654317       0.02193721
H       11.08269910       7.34446066       8.47103949      -0.00203776      -0.00434347       0.03265128
O        9.39252281       3.99521228       1.30518416      -0.01310568      -0.00133263      -0.00991350
H       10.09424399       4.63924758       1.08958693      -0.00606515      -0.00689608      -0.00444593
H        8.91027784       3.84388828       0.46836323      -0.00498214      -0.00191209      -0.01467813
O        7.98477918       3.86358584      10.05534118      -0.00712199      -0.00306660      -0.01186161
H        7.03726866       3.82061649       9.80154437      -0.00496168      -0.00231239      -0.01833047
H        8.42803580       3.23813222       9.44920335      -0.00230934      -0.00236052      -0.00945627
O        8.53935032       6.62110420      10.28522108      -0.00706923      -0.00268801       0.01656034
H        7.66598605       7.05656900      10.20614339      -0.00753403      -0.00020304       0.01626430
H        8.36030880       5.66997010      10.13470313      -0.00727826       0.00090743       0.00664068
O        9.22708328       1.04741205       5.83673206       0.00044030      -0.00730811      -0.00555956
H        9.70706729       0.25048861       6.13725275      -0.00659490      -0.00827660      -0.00630869
H        9.65840316       1.38239693       5.03034048       0.00487183      -0.00910327      -0.00738369
O       10.14968430       2.46813168       3.56500941      -0.00417276      -0.00397791      -0.01730491
H        9.96045034       3.14289684       4.25285357      -0.00595421      -0.00413766      -0.01342547
H        9.75180327       2.86245342       2.76744417      -0.00266108      -0.00358370      -0.01470742
O        1.46924427       6.84690452       9.17964533      -0.00149526      -0.00325506       0.01568128
H        1.09680089       6.44376019       9.98573474       0.00127471      -0.00213545       0.01606931
H        1.70224288       7.74198558       9.47157281       0.00249008      -0.00103088       0.01698212
O        4.64355883       6.13430031       7.47137970      -0.02227630      -0.02610856       0.00475376
H        4.48568445       6.90867633       8.02038935      -0.00980765      -0.00054867       0.03508598
H        4.13818597       6.28962395       6.65796124      -0.00086658      -0.00106713       0.02653499
O        0.53442435       1.14323631       9.30562115       0.01741621       0.01920346      -0.00603756
H        0.60208462       0.27800750       9.75166120       0.01830914       0.02005693      -0.00807867
H        1.34354454       1.61489425       9.54875454       0.01822871       0.02112184      -0.00135854
O        2.53506404      -0.05132600       6.32571919       0.00032413       0.00839187      -0.00443198
H        2.04082733      -0.92344647       6.24384886      -0.01120859       0.01497711       0.00386678
H        3.16046010      -0.21788025       7.04424152      -0.00350221       0.00537985      -0.00016569
O        7.45821708       8.69447998       6.42149021      -0.02174656      -0.01773534       0.02672498
H        6.65993760       9.01137503       5.95112058      -0.01040858      -0.00809950       0.01525678
H        7.58998204       7.78770179       6.04786362      -0.01727622      -0.01289492       0.01789989
O        1.10109640       8.56771690       3.38302207      -0.01606631       0.00252977       0.00742050
H        1.82430305       9.18604423       3.18638497      -0.01545109       0.00456490       0.00159114
H        1.38957737       7.72439719       2.98670378      -0.01729331       0.00451279       0.00865012
O        7.59215195       6.49721830       4.96672837       0.00775652       0.00091234      -0.00422257
H        8.27164052       5.81007524       5.11834704       0.00965027       0.00047620       0.00038658
H        6.74954751       6.01431095       4.97627765       0.01236176      -0.00500765      -0.02471896
O        3.01257332       5.84200855       5.05598298       0.01279123       0.01384990      -0.00571481
H        2.37769060       5.43611707       5.68291190       0.01014598       0.00150636      -0.00747979
H        2.52475887       6.12256683       4.26408341       0.01467179       0.01271817      -0.00235936
O        4.90468593       4.79152585       0.65543320      -0.00431556      -0.00626279      -0.01115651
H        5.68176640       4.56728708       1.21306445      -0.00181288      -0.00461688      -0.01252750
H        4.12979335       4.34380288       1.05279059      -0.00253959      -0.00226768      -0.00605016
O        9.90124171       9.77029069       6.75776166      -0.01941832      -0.01869386       0.00637296
H        9.06418439       9.41944304       6.38840560      -0.02139552      -0.02063595       0.01286022
H       10.08865892       9.09568338       7.45117734      -0.01367179      -0.01521521       0.00726663
O        3.28718833      10.42137571       3.59762803      -0.00052099       0.00030515       0.00116517
H        2.93765511      10.97127802       4.31972479      -0.00095849      -0.00184545       0.00185657
H        3.48567139      11.01660842       2.84951210      -0.00367199       0.00029957       0.00035477
O        2.29928035       2.17324329       3.83574068       0.00435880       0.00348760       0.00342532
H        1.78742505       1.62112068       3.21252929       0.00734976       0.00159929       0.00113288
H        1.76196137       2.27447469       4.67840723       0.00030398       0.00181895       0.00167431
O        7.05814589       3.68360597       6.66856279       0.00461289       0.00259329       0.00397068
H        6.34155483       4.17922693       6.23599700       0.00582705       0.00606985       0.01002418
H        6.76871224       2.75550430       6.66868922       0.00046694       0.00154945       0.00195144
O        6.94655079       4.36015417       2.33600061      -0.00034553      -0.00677902      -0.01491582
H        6.64115615       4.76067241       3.16722172      -0.00812495      -0.00535645      -0.00674345
H        7.89972187       4.51487901       2.18710284      -0.00809778      -0.00375549      -0.00863086
O        1.12364517       2.27009885       6.15709976      -0.00345495      -0.00179007      -0.00217643
H        1.54473452       1.43673619       6.45913916       0.00498979      -0.00157228      -0.00734765
H        1.52419476       2.98744723       6.67811496      -0.00292778      -0.00324565      -0.00289024
O        6.59921061      12.10538996       6.31026442       0.00205150       0.00790678       0.00585873
H        6.74850751      11.64101031       7.16235989      -0.00102747       0.00761493       0.00601295
H        7.51551387      12.14295113       5.94095842       0.00043952       0.00261347       0.00297275
O        1.26656530       8.88434191       6.04330876      -0.01125018       0.01004833       0.00581887
H        1.28062543       8.61525129       5.09494239      -0.01076403       0.01250350       0.00611891
H        0.34242612       9.15165873       6.17735188      -0.01452935       0.00332275       0.00607663
O        4.58459024       9.96718272       8.12116814      -0.02182168       0.01462749      -0.01929335
H        4.79721957       9.79817726       7.18180356      -0.00741591       0.01299226      -0.01079840
H        5.39880285      10.32377925       8.49987317      -0.01554554       0.00193327      -0.00097487
O       11.26989812       5.42171059       3.52601027       0.01669437      -0.01295488      -0.03054846
H       10.51396027       5.21950089       4.09050144      -0.04510222      -0.00876095       0.01411987
H       11.64546044       4.55204046       3.34406876      -0.02429014       0.02573580       0.00264381
O        4.15160838       0.64457900       1.28704656       0.01251033      -0.00439152      -0.00798603
H        3.72743571       1.16672679       0.58256079       0.02062500      -0.00303756      -0.01108430
H        4.99538114       1.11092497       1.50008951       0.01008717      -0.00553714       0.00399342
O        4.88991196       7.29956330       1.81526823      -0.02360567      -0.00164748      -0.01095654
H        4.64581000       8.04995127       1.23362754      -0.01051009      -0.00176391      -0.01682153
H        5.02163505       6.53412767       1.22604364      -0.01820005      -0.00434229      -0.00577224
O        4.27040456       9.37533664       0.17778351       0.00556639       0.00426267      -0.01613767
H        3.31958243       9.31042693      -0.04062957       0.00312179       0.00842641      -0.00887366
H        4.34305692      10.27077665       0.58316066       0.00965251       0.00015799      -0.00880504
O        6.41577119       1.65429853       2.28817095       0.01330945      -0.01031414       0.01430181
H        5.92768609       1.69950977       3.13771526       0.00364470       0.00212471       0.00754896
H        6.69543667       2.58354641       2.17536467       0.01191592      -0.01127953       0.00208416
O        5.27093138       9.84653292       5.41066563       0.00885028       0.00858417      -0.00829315
H        4.59414165       9.88638306       4.70025354       0.01036984       0.01270393      -0.00872672
H        5.64595629      10.74276293       5.48654157       0.01298418       0.00797491      -0.00462351
O        4.86122145       2.06796752       4.47437248      -0.00108196       0.00532296       0.00496277
H        5.09677745       1.62207846       5.29834846       0.00080229       0.00121047       0.00956514
H        3.89108337       1.97032894       4.29887979       0.00269061       0.00361679       0.00741323
