150
Lattice="11.663167275899553 0.0 0.0 0.0 11.663167275899553 0.0 0.0 0.0 11.663167275899553" Properties=species:S:1:pos:R:3:forces:R:3 energy=-124753.5078125 stress="-0.006219369359314442 0.0004197361267870292 -0.00033312283630948514 0.0004197361267870292 -0.004045739304274321 0.0003412622900214046 -0.00033312283630948514 0.0003412622900214046 -0.003861142322421074" pbc="T T T"
N        5.46576846       6.88241500       5.60801758       0.00410014       0.00214868       0.00522527
C        6.04730673       5.89625861       4.62355795       0.00506762       0.00168854       0.00658207
C        4.24871624       6.32708026       6.30709770       0.00469917       0.00064177       0.00410047
C        5.03706138       8.14076415       4.86982997       0.00354573       0.00115389       0.00467432
C        6.53660022       7.20011071       6.64287020       0.00265235       0.00441192       0.00541633
C        5.18916477       5.56974569       3.42121682       0.00890052       0.00483990       0.00358897
C        4.47509878       5.15001001       7.23347106       0.00723784       0.00463101       0.00787702
C        4.63741473       9.29905695       5.74827211       0.00639778       0.00263736       0.00353521
C        7.71479206       7.99327230       6.13496143      -0.00044778       0.00923747       0.00657588
H        6.98974535       6.32624678       4.29469663       0.00690931      -0.00072914       0.01011117
H        6.28936784       5.00092519       5.19381199       0.00097935       0.00098649       0.00680877
H        3.83906303       7.16984160       6.85441696       0.00035167       0.00042382       0.00051953
H        3.53480228       6.07878874       5.52329021       0.00775743      -0.00448782       0.00339481
H        5.87544171       8.40086471       4.22981267       0.00223869      -0.00055242       0.00284319
H        4.20350246       7.84244936       4.23556261       0.00216451       0.00135222       0.00708695
H        6.02686465       7.73662451       7.44175068       0.00080457       0.00145708       0.00577611
H        6.86885412       6.24044159       7.02669172       0.00612222       0.00544658       0.00407205
H        5.66363105       4.73610111       2.90290104       0.00880046       0.00466360       0.00433011
H        4.18257335       5.24692612       3.68591212       0.00747779       0.00690622      -0.00066069
H        5.11362598       6.40310464       2.72429800       0.01373994       0.00546688       0.00443509
H        3.50228299       4.83609219       7.61846408       0.00783020       0.00100692       0.00536111
H        4.91085343       4.28811626       6.73565407       0.01325541       0.00547124       0.01202981
H        5.10732210       5.40138079       8.08282603       0.00305656       0.01025066       0.00876576
H        4.59524909      10.17287059       5.10484424       0.00061347      -0.00006771       0.00075126
H        3.65693274       9.16826510       6.19569138       0.00938705       0.00221653       0.00904447
H        5.36998372       9.51920110       6.51807581       0.00974418       0.00645118      -0.00120038
H        8.39312043       8.13309380       6.97344462       0.00053546       0.00634809       0.00590044
H        8.29006726       7.46176274       5.37740799      -0.00092643       0.01426938       0.00321518
H        7.44085962       8.98165659       5.77652370      -0.00286451       0.00993371       0.01147971
F        9.45774657      11.32610839       0.28250538       0.00269978      -0.01523101      -0.01511636
O        3.28654401       8.50109744       8.68742975      -0.00768586      -0.00423634       0.00648049
O        1.37551783       7.40508740       9.00652597      -0.00970235      -0.00167532      -0.00189394
O        1.65423232       8.63098862       7.13834829      -0.00120589      -0.00152072      -0.00229156
C        3.53577067       7.61674043       9.79553404      -0.01457345      -0.00308090       0.00827447
C        2.13208886       7.21811187      10.21756421      -0.01671752       0.00002734       0.00204992
C        2.05143795       8.22126519       8.18672009      -0.00422055      -0.00387505       0.00419253
H        4.08494821       8.15641740      10.55534724      -0.01681386      -0.00373910       0.01021546
H        4.12674849       6.77130300       9.44514311      -0.01492158      -0.00452882       0.01236941
H        2.03825838       6.17607976      10.50763154      -0.01946540       0.00107667       0.00406086
H        1.72598711       7.88045762      10.98299822      -0.01987018       0.00200593      -0.00157249
O        1.07879061       3.37663829       6.89704974       0.01360029      -0.00657472      -0.00112064
O        1.71462330       2.48117571       4.96231311       0.00311497      -0.00188304      -0.00594118
O        1.53061986       1.17130119       6.78533872       0.01529692      -0.00709641      -0.00729883
C        0.87575376       4.42296595       5.93359635       0.00827682      -0.00496864       0.00200370
C        1.56363471       3.87313357       4.68704226       0.00340100      -0.00118390      -0.00157487
C        1.43441988       2.23789453       6.26331080       0.01131066      -0.00187874      -0.00647765
H        1.29632444       5.34794617       6.32256937       0.00843124      -0.00544968       0.00226851
H       -0.19097911       4.54836386       5.77917500       0.00789022      -0.00612188       0.00638955
H        0.97700685       3.99084922       3.77800193       0.00044906       0.00136866       0.00120580
H        2.55793227       4.29752625       4.52683659       0.00292668      -0.00142096      -0.00396440
O        1.49418178      11.64988936       3.27954531      -0.00138405       0.00158390      -0.01554740
O        2.57584388       9.72106792       3.48971669      -0.01851091      -0.00296690       0.02058383
O        3.67152168      11.65655736       3.78953771      -0.00047415      -0.00529027      -0.00420757
C        0.47424508      10.65853138       3.09246482      -0.00778282       0.00667933      -0.00600719
C        1.25083164       9.33728240       3.09739433      -0.01679955       0.00270915       0.01108596
C        2.65595459      11.07347399       3.54910177      -0.01324672      -0.00628808      -0.00191008
H       -0.01119472      10.86002430       2.14322208      -0.00476122      -0.00050774      -0.00887817
H       -0.23773485      10.74771440       3.90909329      -0.00889260       0.02042935      -0.00886515
H        0.88105755       8.62189259       3.83121730      -0.02812316       0.01024458       0.01234502
H        1.31289536       8.88471544       2.10606708      -0.01021182      -0.00466631       0.01505247
O        6.83270427      10.37624852       8.09949726      -0.00756994       0.01360863       0.02197440
O        8.00661298      12.08753299       8.89467287       0.00198434       0.01099491       0.01059693
O        8.27222661      11.46530989       6.75490261      -0.00809497       0.00603351       0.00408363
C        6.49179783      10.40942147       9.49018820       0.01266897       0.00847197       0.02688130
C        7.29926208      11.59004452      10.05042055      -0.00374562       0.02462268       0.01319569
C        7.76358830      11.31945064       7.82244464      -0.01089311       0.00807709       0.02506220
H        6.77888709       9.45070315       9.92486379       0.03859912       0.01509577       0.02410260
H        5.41125717      10.54733486       9.56441929       0.01119852      -0.01381505       0.04292701
H        6.66028057      12.39506305      10.41436136      -0.01429111       0.02506667      -0.00614432
H        8.05194078      11.33756859      10.81758722      -0.00585490       0.04075626       0.02132434
O       10.89254568       9.22562601      10.32993262       0.01349443      -0.01265952      -0.00642708
O        9.65259522       9.58790854       8.53031786      -0.00259979       0.00575343       0.00952050
O        9.08387849       7.93512896       9.93708343       0.00480056       0.00037837       0.00300142
C       11.30935498      10.52754618       9.80976333       0.01799875      -0.01391204      -0.00311112
C       10.80796207      10.46232342       8.38822961      -0.00041864       0.00018275       0.00296295
C        9.81863961       8.83924080       9.62839832       0.00329635      -0.00399208       0.00328891
H       12.38468352      10.61064455       9.91388189       0.01948559      -0.02380758      -0.01685338
H       10.79255253      11.26324917      10.43315287       0.03170514      -0.01337418       0.00631791
H       10.46597662      11.41067101       7.98528156      -0.00058156       0.00518560       0.01639067
H       11.50074835       9.98370465       7.69860067      -0.01165763       0.00306386      -0.00958386
O        8.86046165       5.50063729       7.81102007      -0.00307587      -0.01814212       0.00515962
O       10.95585328       5.02213779       8.36434768       0.00007054      -0.01024505      -0.00250196
O       10.54717634       6.76585080       7.00225771      -0.01044011      -0.01384699      -0.00307477
C        8.77729167       4.49549623       8.84628372       0.00391167      -0.01735219       0.00592196
C       10.16512380       3.89271017       8.79749973       0.00624895      -0.01104572       0.00427239
C       10.16306295       5.85619437       7.67461941      -0.00536075      -0.01481020      -0.00004232
H        7.98757501       3.79455939       8.58252945       0.00714958      -0.02141944       0.00845416
H        8.55309536       4.99692510       9.78861042       0.00342569      -0.01759493       0.00558507
H       10.55306154       3.55450591       9.75200423       0.01037787      -0.00535342       0.00426459
H       10.25260184       3.10960607       8.04318428       0.00746873      -0.01393893       0.00784346
O        4.12147915      11.70774867       0.62969601       0.01181707      -0.00080030      -0.01545349
O        3.43175212       9.59684107       0.59195729      -0.01716939       0.00902880       0.01404848
O        2.00916002      11.23664711       0.01905815       0.00451946       0.02074602      -0.01001313
C        5.21791069      10.97528992       1.22418670      -0.00031352      -0.00753209      -0.00290182
C        4.76838862       9.51748474       1.11978301      -0.01459061      -0.00265545       0.00465669
C        3.09324967      10.89004854       0.37995562       0.00247800       0.00997993      -0.00342886
H        5.31986589      11.30867218       2.25008127      -0.00333267      -0.00194597      -0.00486451
H        6.12782720      11.20376955       0.67817802       0.00530255      -0.02090213       0.00187084
H        5.38291054       8.92154705       0.44493278      -0.02474256      -0.01005059       0.00219330
H        4.71233591       9.03166611       2.08670088      -0.01187650       0.00018637       0.00609297
O        4.69766072       5.40206964       0.02496221       0.00141875       0.00663072       0.00143208
O        5.93784504       3.66009966       0.62695526       0.01531267       0.01328538      -0.01152850
O        6.93753366       5.59928939       0.08932824      -0.00018793       0.02608207       0.00590740
C        3.73964016       4.40708840       0.44946286       0.00981349      -0.00539555      -0.00964320
C        4.58294828       3.15096976       0.62788680       0.02045774       0.00117451      -0.01781949
C        5.94952066       4.93731996       0.23311965       0.00391346       0.01508716      -0.00051672
H        2.97286692       4.30308717      -0.30895334       0.01270604      -0.00521529      -0.01228869
H        3.27549748       4.75417560       1.37330289       0.00433673      -0.01755269      -0.00824219
H        4.41670658       2.63175120       1.56657322       0.02270634      -0.00693037      -0.02241215
H        4.47699298       2.44958134      -0.19590621       0.02825260       0.00642130      -0.02299112
O       10.81203877       5.61342899      -0.29213193       0.01518520       0.00394906      -0.00000966
O       11.95568197       5.23680292       1.57604662       0.00011945      -0.00799671       0.00585142
O       12.45194158       4.08696112      -0.29353993       0.00657198      -0.00427037       0.00642049
C       10.22150329       6.51490976       0.66362830       0.00979200       0.00046176      -0.00060922
C       10.89195279       6.12285086       1.98309621       0.00713667       0.00168608       0.00080574
C       11.79395984       4.91024252       0.27423357       0.00705433      -0.00287372       0.00456581
H        9.14957825       6.34452435       0.63895669       0.01067507      -0.00277823      -0.00330528
H       10.44247549       7.52948769       0.34102961       0.00688627       0.00113821       0.00092058
H       11.34082878       6.96428469       2.50421806       0.01348798       0.00052106      -0.00364354
H       10.23737968       5.56969889       2.65426717       0.00311890       0.00998995       0.00303847
O       10.78759317       1.60315392       3.26527694      -0.01830126       0.01089031      -0.00604203
O        9.53876363       3.41398366       2.98318076      -0.01131114       0.01220527      -0.02225190
O       10.17342231       2.81157609       5.05984170      -0.01548797       0.02893497      -0.01198828
C       10.80650231       1.84174847       1.83241268      -0.02012092      -0.00487787      -0.00849153
C        9.67375149       2.83092079       1.66067696      -0.01116687       0.00320464      -0.01756272
C       10.16196575       2.60914693       3.87790331      -0.01464532       0.01650830      -0.02342576
H       10.59017458       0.91376333       1.29592391      -0.02810565      -0.00870258       0.00117761
H       11.78954153       2.24152570       1.57774123      -0.01747072      -0.01662749      -0.01564016
H        9.87135907       3.63260471       0.95457559      -0.00116221      -0.00303021      -0.02190536
H        8.74431823       2.33266098       1.40816316      -0.01514763       0.01134628      -0.01793181
O        5.44045271       2.11577061       3.59347691      -0.01693898       0.00644596      -0.00248608
O        7.38217125       1.82475474       4.62501095      -0.00660842       0.00422732      -0.02245241
O        7.21064107       1.39106083       2.42792764      -0.03179777       0.01952359      -0.01471472
C        5.12025554       2.29310544       4.97519214      -0.00560212      -0.00363935       0.00021373
C        6.47002496       2.11995536       5.68461587       0.00337890      -0.00482358      -0.01261199
C        6.72934932       1.73396967       3.46557599      -0.01368710       0.00612628      -0.02925134
H        4.38091234       1.54681890       5.25042413       0.00086781      -0.00809729       0.00280903
H        4.69122075       3.28705880       5.08504075      -0.00654592      -0.00647548       0.01247987
H        6.82565612       3.01545734       6.19736175       0.00473440      -0.00758612      -0.01124948
H        6.47645405       1.28063868       6.37161798       0.01199844      -0.00914967      -0.01961946
O        7.13879729       9.30796490       2.43870879      -0.00356255      -0.00889194      -0.00210309
O        8.89105269      10.17511284       3.48773993      -0.00127718      -0.00064687      -0.01392348
O        6.79979677      10.70697481       4.15282867      -0.00080889       0.00549680      -0.00913221
C        8.26507958       8.63353875       1.86418465      -0.00518699      -0.01037857      -0.00296345
C        9.42936015       9.48283840       2.33418614      -0.00344902      -0.01001731      -0.00857162
C        7.56442980      10.14122145       3.43111206       0.00256583      -0.00448537      -0.01272482
H        8.16749666       8.62720610       0.77993744      -0.00814234      -0.01364457      -0.00251156
H        8.26616830       7.60832674       2.24355185      -0.00435571      -0.00935295      -0.00105251
H       10.27635356       8.89450230       2.68018568      -0.00486594      -0.00971206      -0.00453372
H        9.67659592      10.23650499       1.55687543      -0.00011145      -0.01636499      -0.01261485
