150
Lattice="11.118103587361238 0.0 0.0 0.0 11.118103587361238 0.0 0.0 0.0 11.118103587361238" Properties=species:S:1:pos:R:3:forces:R:3 energy=-68916.296875 stress="-0.0025118959601968527 0.0004132602334721014 -0.00012530737512861378 0.0004132602334721014 -0.000785008363891393 0.0002926839661085978 -0.00012530737512861378 0.0002926839661085978 2.478812893969007e-05" pbc="T T T"
N        6.74818107       5.74853598       3.89750388       0.00202228       0.00110262      -0.00069894
C        5.97786677       6.26130423       2.69786822       0.00142531       0.00152740      -0.00005066
C        5.88332655       5.69715087       5.14071189       0.00367257       0.00345781       0.00020730
C        7.89833603       6.69614626       4.16433961       0.00401372      -0.00032431      -0.00368072
C        7.23390704       4.33457545       3.59138918       0.00012831       0.00041491       0.00016153
C        5.31632154       7.60643471       2.89867209      -0.00224259      -0.00058445       0.00178075
C        4.58103112       4.94392451       5.00589958       0.00414068       0.00186649       0.00357729
C        8.74547464       6.31413667       5.35579212       0.00484745       0.00137499      -0.00395626
C        8.32571602       4.23241412       2.55159069      -0.00304818      -0.00298451      -0.00228685
H        6.69916425       6.30777876       1.88237114       0.00193915       0.00510930       0.00082590
H        5.25101662       5.48613883       2.45403623       0.00350004       0.00051543      -0.00239002
H        6.50132639       5.23768147       5.90911371       0.00459547       0.00619389       0.00095709
H        5.71663682       6.73043454       5.44153841       0.00260941       0.00395983      -0.00275393
H        8.48705276       6.75098417       3.24887639       0.00295331      -0.00345962      -0.00412861
H        7.44658106       7.67439419       4.32091438       0.00588144       0.00094935      -0.00566884
H        7.56640232       3.91013876       4.53630942       0.00164457       0.00157461      -0.00008154
H        6.34628657       3.78677677       3.28000838      -0.00130233       0.00073224       0.00292079
H        4.75591720       7.84876476       1.99426885       0.00271353       0.00178656      -0.00044608
H        4.62250765       7.59611090       3.73846337      -0.00746119      -0.00523504      -0.00287652
H        6.03071109       8.41734764       3.02954529      -0.00510336       0.00025508       0.00953935
H        4.05807285       5.01413818       5.95945301       0.00425744       0.00604333       0.00318825
H        3.92169778       5.36620897       4.24748843       0.00421982      -0.00261588       0.00136885
H        4.73335420       3.88677167       4.79064267       0.00473940       0.00087640       0.00850083
H        9.62978185       6.95539517       5.36459362       0.00709030      -0.00183439      -0.00819707
H        8.22323537       6.47184694       6.30068399       0.00792216       0.00656883      -0.00341673
H        9.09383493       5.28384164       5.30887397       0.00129837       0.00022367      -0.00097553
H        8.55040661       3.17002362       2.42784139      -0.00540769      -0.00339389      -0.00172842
H        8.04275329       4.63153661       1.57740480      -0.00414725      -0.00324969      -0.00177798
H        9.24983541       4.70862391       2.87607958      -0.00082198      -0.00462353      -0.00503032
Cl      10.39045556      10.36709248      -1.02859006      -0.00344834       0.00159105      -0.00745190
N        3.68624454       3.27105998       2.17581321       0.00182486      -0.00006703       0.00016040
H        3.25593552       2.69685293       1.44586425       0.00322436      -0.00194509       0.00229268
H        2.95142075       3.90859212       2.46709449       0.00573900       0.00135717      -0.00369950
H        3.85222568       2.65925342       2.96752525      -0.00180873      -0.00128120       0.00488789
N        8.56411610       9.76808597       6.09848771      -0.00583646      -0.00215688       0.00981830
H        9.12013924       9.02534658       5.69468014      -0.00001097      -0.00800043       0.01165110
H        7.63087307       9.39071738       6.25091960      -0.00020689      -0.00200372       0.00836677
H        8.96802240       9.93599188       7.01534277      -0.00238738       0.00104706       0.00642525
N        9.04517931       5.91185719      10.24488809       0.00158013      -0.00794458      -0.00071761
H        9.80731235       6.36425845       9.74827333       0.00302774      -0.01742399      -0.00949932
H        8.36971067       6.64191083      10.45345427       0.00937535      -0.00167939      -0.00376619
H        8.59134334       5.32166558       9.55135794      -0.00531922      -0.00894805       0.00596024
N        0.87418122       4.64461462       0.85913178       0.01193924      -0.01248839       0.00369790
H        1.43992898       5.31405012       0.34923278       0.01662730      -0.02120448      -0.00687241
H       -0.06876315       4.74610140       0.49210061       0.00974958      -0.00424518       0.00844083
H        1.20741220       3.72595177       0.58011377      -0.00024887      -0.01466909       0.01323457
N        6.82550919       1.29508494       5.22788068      -0.00098514      -0.00471618      -0.00634117
H        7.04473793       1.85336486       6.04528991       0.00555578       0.00226936       0.00331211
H        7.39650478       0.45657324       5.31805508       0.00340651      -0.00126910       0.00068555
H        5.85258231       1.00791878       5.31441254       0.00982346       0.00529042      -0.00686207
N        0.57898945       8.24126268       7.53682234       0.00089988      -0.00341076       0.00116619
H        1.54972313       8.41818132       7.77489275       0.00336840      -0.00950778      -0.00059711
H        0.39578879       7.26351782       7.75724691      -0.00644074       0.00111751      -0.00182967
H        0.04322624       8.78712572       8.21098777       0.00571103       0.00226438       0.00398107
N        5.11689642       0.11347709       2.41959760      -0.00279064      -0.00500808      -0.00546271
H        4.89008294      -0.54308287       1.67496248      -0.00766396      -0.00125255      -0.00500366
H        6.10373908      -0.04686655       2.60638958      -0.00383236      -0.00612784      -0.01107020
H        5.08258404       1.03735108       2.00226026      -0.00586646      -0.00062034      -0.00369637
N        7.11945974      10.17151360       9.15235727      -0.00647688       0.00422804       0.00637300
H        8.10053830      10.39464646       9.31990394      -0.01003624       0.00678337       0.00265496
H        7.01723268       9.99976342       8.15991833      -0.00568271      -0.00180158       0.00177430
H        6.97390758       9.27019167       9.59670592      -0.00588579       0.00695135       0.00733360
N       10.17366208       7.59993951       1.61047371       0.01173256       0.00257454       0.01332586
H       10.28813722       8.35774793       0.94098532      -0.00041141       0.00573104      -0.00054166
H       10.10345609       6.74727363       1.06584257      -0.00640857      -0.00286513      -0.01324251
H       11.03050830       7.55194896       2.15343146      -0.01238391      -0.00752364      -0.01207131
N        2.41822868       1.57908294      -0.22408356      -0.00254722      -0.00720876       0.00428462
H        2.85000273       2.03379259      -1.02368513       0.00459390      -0.00522870       0.00478207
H        1.50742469       1.23434465      -0.51813245       0.00296713      -0.00907966      -0.00160916
H        2.95993270       0.73490183      -0.05978042      -0.00147479      -0.00467142       0.00584659
N        9.68032867       0.64450583       2.30521874       0.00407241       0.00417512      -0.00801053
H        9.97934214       0.45905972       1.34952583      -0.00450056       0.00278626      -0.01086059
H        8.83545502       0.08930721       2.41972743       0.00129080       0.00414511      -0.00143316
H       10.38083429       0.20315084       2.88858195       0.00293174       0.00546624      -0.01275522
N        1.84436273       7.59534999       3.48480853      -0.00519836       0.01267374       0.02160889
H        1.76265690       7.39979660       4.47682767      -0.00035603       0.01311835      -0.00926125
H        2.61953659       8.23948833       3.37953804      -0.00809267       0.01032020      -0.00326854
H        2.11175965       6.72700176       3.03492489       0.00848454      -0.00317389       0.00063706
N        7.46296606       3.79688623       7.99015239       0.00186118      -0.00257215       0.00547710
H        7.81582022       3.19216490       8.72531030       0.01203773      -0.00462970       0.00158369
H        8.04924751       3.57628237       7.18014032      -0.00088818       0.00321689       0.00125872
H        6.52351941       3.46352500       7.79538679       0.00500672      -0.00504419       0.01250323
N        4.68885982       9.23072230      -0.16521174      -0.01866224      -0.00756968       0.00589675
H        5.02230934       9.96389171      -0.78266890      -0.00735962       0.00047392      -0.00190926
H        3.70212630       9.38999672       0.03487063      -0.00301997      -0.00751710      -0.00331094
H        4.78036682       8.36388522      -0.68623619      -0.00631876      -0.00465263      -0.00299694
N        6.00590056       6.80876506       8.82762677       0.00252855      -0.00485227      -0.00435439
H        6.52843502       5.97151397       8.57850752       0.00662313      -0.00231337      -0.00321303
H        6.26879246       7.51854212       8.15180151       0.00852445      -0.00004983       0.00238094
H        5.02254670       6.59191211       8.65884932       0.00489756      -0.00406915      -0.01445040
N       -0.77254673       2.56663209       9.44012906       0.01434217       0.01265698       0.01099896
H       -0.95802654       1.56977007       9.57401013       0.02393801       0.01227517      -0.00066563
H        0.21815505       2.68137434       9.62308167       0.00505562       0.02719489       0.03780100
H       -1.23729177       3.05534278      10.19931021      -0.01296283       0.00225205       0.00251313
N        0.37296463       9.97529713       4.93840511      -0.00614858      -0.00222149      -0.00614772
H        0.42769552       9.30467458       5.71386977      -0.00480880       0.00219674      -0.00183365
H        0.40820201       9.42666062       4.08488853      -0.00753362      -0.00010921      -0.00087903
H       -0.55855076      10.37654461       4.99029285      -0.01129479      -0.00279596      -0.00285298
N        4.92969627       4.22977815      -0.56283208      -0.01536825      -0.01316710      -0.00850625
H        5.18085251       3.40423969      -1.09666604      -0.01321033      -0.00403165      -0.00823204
H        4.82001949       3.94983805       0.40830537      -0.00579024       0.00115234      -0.01392969
H        5.70109019       4.88339352      -0.62498206      -0.00590416      -0.00049802      -0.01619573
N        7.63104092       9.50341634       1.31848647      -0.01106415       0.00282546       0.00080754
H        8.19596054       9.93886278       0.59423656      -0.00778209       0.00625160       0.00327641
H        6.73908418       9.25665863       0.89604936       0.00167105      -0.00475416       0.00553874
H        8.13561227       8.65904838       1.57129343       0.00457776       0.00123520       0.00269045
N        1.83183661       9.96896426       1.15171155      -0.00360152      -0.01307786       0.00102039
H        1.55546287       9.20457445       1.75774184      -0.00639573      -0.00508394      -0.01203248
H        1.07147344      10.08445523       0.47921246      -0.00081569       0.00558942      -0.00158241
H        1.82760844      10.79876138       1.73494644       0.00192253      -0.00767700       0.01028899
N        9.50605519       2.75836907       5.72931324       0.00220178       0.01675245      -0.00988809
H       10.22786796       3.29066848       5.24460394      -0.00166852       0.00708862      -0.00092651
H        9.12816791       2.09347699       5.06095497      -0.00016619       0.01184606       0.00156460
H        9.95352002       2.22476945       6.46655546       0.00607198       0.00836778       0.00221650
N        1.82117388      -0.07988527       7.80702125       0.00350241       0.01389616       0.00358114
H        1.38159464      -0.29013366       6.91532417       0.00010460      -0.01261749       0.00058336
H        1.11422049      -0.24959438       8.52158238      -0.00322885      -0.00818756       0.00609908
H        1.99654160       0.91724662       7.79410843      -0.02155516      -0.00478280      -0.00309630
N        0.37936206       4.75507061       4.08741140       0.01299718      -0.00547940       0.00295702
H        0.61115478       4.64406265       3.10000509       0.00997846      -0.00188228      -0.00075328
H        1.19490858       4.51641606       4.64172902       0.00225461       0.00150335      -0.00134397
H        0.19272298       5.73954257       4.22793985       0.00780166       0.00395913      -0.00255743
N        2.00060644       3.22566491       6.54833264       0.00490819      -0.00290152       0.00941865
H        1.75703097       2.71715039       5.69166176      -0.00186926      -0.00112183       0.01066256
H        1.29499121       2.97462194       7.23298888      -0.00044146      -0.00218761       0.01394615
H        2.87936776       2.84174998       6.88351046      -0.00076833      -0.00094095       0.00645944
N        2.97318659       5.70141601       8.59885887       0.00349432       0.00782292      -0.01052876
H        2.74318798       5.01432256       7.88679378      -0.01203163       0.01378240      -0.00774972
H        2.07512471       6.01638360       8.94916335       0.01347075       0.02884398      -0.00372373
H        3.44756844       5.19811101       9.35258320      -0.00413048      -0.00057538      -0.01109954
N        3.79235409      11.63232608       5.21407594       0.00264320       0.00389945      -0.00366836
H        3.09562149      12.34889096       5.03930272      -0.00550447      -0.00320461      -0.00772549
H        3.26842480      10.86450143       5.62046183       0.01093256       0.00440448       0.00540508
H        4.12117049      11.33792162       4.28828194       0.00128343      -0.00114436      -0.00165245
N       10.83927762       5.22688273       7.78118905       0.01004300      -0.00049387      -0.00849293
H        9.97826713       5.50719076       7.32764452      -0.00841871      -0.01487012      -0.00938352
H       10.61072455       4.34927105       8.24840853       0.01010973       0.00237878       0.00732901
H       11.48388647       4.98010027       7.03586323      -0.00134579       0.00256956       0.00593204
N        4.76057560       1.23895119       8.33689548      -0.00539897       0.00121820      -0.00320101
H        4.80363941       1.17263428       7.32120469       0.00882450       0.00852357      -0.00057919
H        4.03001433       0.57631315       8.58807589      -0.01124311       0.00651120      -0.01587474
H        5.62652675       0.83598288       8.69202839      -0.00995154      -0.00764083       0.00671005
N        5.34482697       9.12309681       6.43434476       0.00012100       0.00451271      -0.00008429
H        5.15324080       9.25805840       5.44714466       0.00161731       0.00413954       0.00459312
H        5.10697989      10.01224640       6.86678482      -0.00344338       0.00178641       0.00458296
H        4.65660039       8.46194645       6.78035308       0.00048567      -0.00092919       0.00150856
N        1.24954025       1.71729506       3.89471843      -0.01236649       0.00135131       0.00741598
H        1.09540456       0.75965984       4.21566680      -0.00558413      -0.00311790      -0.00042237
H        1.82898464       1.67068706       3.06415864      -0.00677894       0.00200786      -0.00402746
H        0.34975119       2.07660869       3.58976291       0.00128725       0.00168280       0.01520946
