144
Lattice="12.568867708486902 0.0 0.0 0.0 12.568867708486902 0.0 0.0 0.0 12.568867708486902" Properties=species:S:1:pos:R:3:forces:R:3 energy=-717544.5 stress="-0.0005577306728810072 0.00042953154479619116 -3.569916771084536e-05 0.00042953154479619116 -0.002165380632504821 0.0006297731306403875 -3.569916771084536e-05 0.0006297731306403875 -0.0001231708884006366" pbc="T T T"
Tm      15.26767498      11.04065678       2.63780482       0.01824209      -0.00448945       0.00967422
Br      12.33787826      11.48113781       2.97713621       0.03987741       0.00149531      -0.00400658
O       11.02644463      11.62714375       2.08413517       0.02592921       0.01134767      -0.01157048
O       12.16665394      11.58712397       4.55721259       0.00258107       0.02666838      -0.00699049
O       13.17482322      10.06766925       2.61955523       0.00911323       0.01400936       0.02324088
O       13.54592111      12.53876810       2.46879639       0.02876803       0.01477456       0.01186532
Br       8.38445365      12.48360518       4.75789289      -0.00138728      -0.00197585       0.00355706
O        7.38503524      13.58883888       5.41190924      -0.00720215      -0.00769877       0.00013363
O        7.78619619      11.94827779       3.34743904      -0.00297266      -0.01820338       0.00951374
O        9.82283412      13.18276766       4.54708616      -0.00751913       0.00754046      -0.01001233
O        8.52112077      11.20684197       5.78667125       0.01733080       0.00634676       0.01076007
Br       4.25149006      12.21207322       4.98483162       0.00322530      -0.00822716       0.02157408
O        4.43385501      12.38233480       3.33600379       0.02657859      -0.01938419       0.02577442
O        2.83707200      11.28006059       4.89676408       0.00423841      -0.00679851       0.01262166
O        5.39383976      11.31278914       5.63822744      -0.00737169      -0.00624496       0.04834671
O        3.95814988      13.58405333       5.73394243      -0.00334913      -0.00213328       0.00907928
O        8.24601432       4.97605625       2.77633461      -0.00010508      -0.00129080      -0.00159431
O        9.00562854       4.45562832       0.74504562      -0.00165969      -0.00385112      -0.00180918
C        8.46805158       2.69456727       2.29185959      -0.00120958      -0.00198948      -0.00008124
C        8.59254502       4.11251903       1.87072214      -0.00097489      -0.00287646      -0.00159937
H        7.49683209       2.52662187       2.75982044      -0.00221844      -0.00215134      -0.00218910
H        8.62611590       2.01650364       1.45959188       0.00101826      -0.00280061       0.00099908
H        9.23118218       2.51718650       3.05570914      -0.00328545      -0.00109102       0.00177878
H        8.26588670       5.92831561       2.40976815       0.00136415      -0.00222629      -0.00217110
O       12.15127691       1.28770015      10.89507132      -0.00709426      -0.00365856       0.00473741
O       12.25814471       1.68560349       8.69586869      -0.00269264       0.00146238       0.00441492
C       10.19761544       2.12697556       9.85612741      -0.00501883       0.00215876       0.00108925
C       11.61715087       1.68663133       9.71521627      -0.00548184       0.00035686       0.00321245
H        9.64736917       1.46247696      10.51943241      -0.00731964       0.00068417      -0.00137655
H       10.18405025       3.12310208      10.30505267      -0.00454536       0.00117758       0.00399043
H        9.73507328       2.17459617       8.87466071      -0.00290951       0.00507792      -0.00020212
H       13.06799757       1.04482343      10.70226142      -0.01064357      -0.00255663       0.00058204
O        9.22164723       3.17602781       6.42469360       0.00263667      -0.00322419       0.00135790
O       10.44661923       3.78861382       4.63271485      -0.00146249       0.00449170       0.00161552
C       11.17489163       4.41671841       6.83327779       0.00055480      -0.00006729       0.00269395
C       10.27427509       3.77039737       5.82860591       0.00028285       0.00098094       0.00213575
H       10.66152318       5.26469395       7.29226603      -0.00181174      -0.00591327       0.01035514
H       11.42623744       3.70772997       7.62060227       0.00666474      -0.00423661      -0.00279221
H       12.08210534       4.75783344       6.34464531      -0.00285409       0.00751568       0.00203001
H        8.67096650       2.70924879       5.76805744       0.00134371       0.00065381      -0.00006464
O        3.86474343       7.45753035       1.04065902      -0.00174350      -0.00155604      -0.01646376
O        3.22460777       8.91374031       2.58276455       0.01026290      -0.00685975      -0.00878109
C        1.89867257       6.94985529       2.27350969       0.00580508      -0.00413612      -0.00761430
C        3.05505931       7.83291645       1.99159664       0.00786862      -0.00362146      -0.01309884
H        1.02491771       7.36808318       1.76497781       0.00344631       0.00073951       0.00159980
H        2.08514233       5.93989611       1.92866098       0.00145447      -0.00201553      -0.01520862
H        1.68359987       6.96669815       3.34016440       0.01488083      -0.00958937      -0.00635216
H        4.60522998       8.12375610       0.94782584      -0.00208122      -0.00087342      -0.02046701
O        4.88237452      12.06391664       9.26451207       0.00330478       0.01639278      -0.02743989
O        5.59805813      10.35705463      10.52303681      -0.01847941       0.02750158      -0.00098836
C        7.21620196      11.82654174       9.51222852      -0.00002933       0.00871173       0.00044098
C        5.84773164      11.32551859       9.83012497      -0.00628868       0.01999444      -0.01045930
H        7.35014051      11.83052441       8.42747946       0.01001001       0.00740086       0.00177106
H        7.31224075      12.86122325       9.84748369       0.00609489       0.00809243       0.00138683
H        7.97703590      11.19564573       9.96177153      -0.00858749       0.00391538       0.00768444
H        4.03970200      11.56502194       9.32611029       0.00085869       0.02103278      -0.02657816
O        3.97741631      10.84776916       0.54302152       0.00991525       0.01491261       0.00540593
O        5.69111878       9.37855986       0.70762007      -0.00139037       0.00528770      -0.01795049
C        6.19969576      11.73775821       0.71250892       0.01244009      -0.00516182       0.00629529
C        5.36358960      10.52979809       0.64262010       0.00830781      -0.00192471      -0.00408582
H        5.85562067      12.46037239      -0.02237130       0.01894143       0.00507802       0.01052625
H        6.10680317      12.18708228       1.70606551       0.01461788      -0.00827724       0.00998452
H        7.24018662      11.47486387       0.56063203       0.01303333      -0.00724472       0.00590608
H        3.58738742      10.09160875       0.07472174       0.00138369       0.02249181      -0.00911254
O        7.17506812       3.05533915      11.85301168      -0.00077778      -0.00573996       0.00024393
O        5.94519188       4.59618168      12.90235330       0.00040370      -0.00657189       0.00586575
C        4.90793067       2.53148673      12.25206588      -0.00128257      -0.00455719      -0.00273803
C        6.02986492       3.50790418      12.36048221      -0.00077385      -0.00867897       0.00035423
H        5.02054274       1.88346139      11.38516548       0.00074508      -0.00502421      -0.00213765
H        4.93294447       1.93746192      13.16868944      -0.00662180      -0.00411919      -0.00243360
H        3.96348969       3.06330907      12.21748560      -0.00047930      -0.00321405      -0.00642153
H        7.90669105       3.64207319      12.16826852      -0.00073718      -0.00677705       0.00095353
O        3.09845041       9.25673793       6.71665887      -0.01246178      -0.01048738       0.00992632
O        2.78632652      10.46532188       8.56711658       0.00077444       0.00056595       0.00412640
C        3.97266032       8.37005443       8.71773952      -0.00113976       0.00064665       0.00951836
C        3.23098865       9.46458219       8.04027090      -0.00407946      -0.00155288       0.00753230
H        3.60861296       7.40496106       8.37435801      -0.00791959      -0.00057265       0.02113079
H        5.03135694       8.44057439       8.45555148      -0.00332913      -0.00619233      -0.00187464
H        3.87916828       8.47743661       9.79307597       0.01011821       0.00975244       0.00850253
H        2.71332549      10.05424885       6.30083642      -0.01148584      -0.00981966       0.00898319
O        7.88213965       7.41069565       8.22318307      -0.00426689       0.01042998      -0.00406694
O        9.74259734       6.58161702       9.16704341      -0.00984788       0.00130960      -0.00227795
C        7.65291495       6.38275103      10.32278706      -0.01263994       0.00335252      -0.00815701
C        8.54116794       6.79625397       9.19471144      -0.00787127       0.00446507      -0.00409755
H        7.20465114       7.27350407      10.76690756      -0.01334696       0.00251950      -0.00775653
H        6.84265109       5.75860247       9.94306054      -0.01155894       0.00470147      -0.01253467
H        8.22855999       5.85562647      11.07482030      -0.01594219       0.00103088      -0.00740040
H        8.50430889       7.64829884       7.49211091      -0.00269493       0.00947063      -0.00187521
O        9.76268846       6.97989611       0.39755971      -0.00261188      -0.00473827      -0.00788388
O        8.22202242       7.39822894       1.96777591       0.00434327      -0.00279361      -0.00104475
C        9.13645255       9.23027123       0.73509064       0.00871184      -0.00328588       0.00102678
C        8.99805030       7.79260663       1.10107814       0.00442070      -0.00334668      -0.00390160
H       10.16507241       9.46849801       0.47657594       0.00969096      -0.00623761       0.00207271
H        8.53252004       9.40470252      -0.15946162       0.01012528       0.00176883       0.00110720
H        8.78311415       9.85852608       1.54771694       0.01063797      -0.00460299       0.00267927
H        9.50534999       6.02803941       0.57800045      -0.00347060      -0.00440966      -0.00717184
O        5.49821785       4.71716259       7.93533396       0.00471318      -0.00134790       0.00400370
O        5.92554376       3.50551037       6.09594419       0.00654899       0.00493360       0.00029993
C        6.58389812       2.64775868       8.24322251      -0.00380045      -0.00599408      -0.00118530
C        5.98150618       3.63894758       7.29560648       0.00316349      -0.00016391       0.00128388
H        7.43860118       3.10808103       8.74087380      -0.00656065      -0.01027888       0.00718417
H        5.86270876       2.38289827       9.01693824      -0.00915810      -0.00946730      -0.00739504
H        6.89921427       1.76496947       7.69707214      -0.00233650      -0.00374289      -0.00370708
H        5.15289030       5.35093638       7.24335055       0.00702367       0.00194156       0.00589369
O        3.60648375       4.73939806      10.46055990      -0.00834516      -0.00127983       0.00063714
O        2.28065409       5.61248016       8.87656762      -0.00271928      -0.00532007      -0.00625366
C        2.62330847       3.23303088       8.92924083       0.00102273      -0.00430030      -0.00209177
C        2.79061124       4.64644553       9.38306666      -0.00322181      -0.00354993      -0.00261992
H        3.39579813       3.01997615       8.18816972       0.00126883      -0.00231667      -0.00207649
H        2.75235359       2.53305091       9.75255296       0.00264487      -0.00362736      -0.00177035
H        1.65354074       3.10061678       8.46013882       0.00135145      -0.00630135      -0.00174127
H        3.72527969       5.67964516      10.65614294      -0.01054695      -0.00123745       0.00186130
O       11.30891065       8.64509834       8.36021908      -0.00121489      -0.00158358       0.00390583
O        9.72055585       9.68112187       9.55972148       0.00195575       0.00392553       0.00387549
C       11.31812051      11.00954173       8.36413837       0.00225896      -0.00184596      -0.00232041
C       10.68602601       9.73205388       8.82622599       0.00126451       0.00077355       0.00203806
H       11.88182848      11.43298081       9.19702015       0.00682741      -0.00143557      -0.00561434
H       11.99652842      10.85888448       7.52967666      -0.00146037      -0.00519769      -0.00456894
H       10.53868860      11.71705154       8.08798400       0.00302461      -0.00053437      -0.00075485
H       10.79641005       7.84999671       8.65569800      -0.00268644       0.00030749       0.00440679
O        5.35577706       8.33699554       5.15951954      -0.02799106      -0.00432318      -0.01129511
O        4.66596283       6.53484054       6.25770687       0.00266194      -0.00123975       0.01060265
C        6.72158766       6.40664537       5.02349185      -0.00821239       0.00927317      -0.00832403
C        5.50123102       7.07146555       5.54073577      -0.01067752       0.00114571      -0.00172329
H        7.30062006       7.06742433       4.38817663      -0.01609429       0.01239085      -0.01200612
H        7.33077602       6.08618250       5.86974293      -0.00148737       0.01270572      -0.01203352
H        6.43482877       5.49949670       4.49489378      -0.00596893       0.00792262      -0.00701934
H        4.56645740       8.68531046       5.62009671      -0.02518979      -0.00843458      -0.00229767
O        4.31190182       4.98714166       2.44231713       0.01540381       0.00215644       0.01740652
O        4.84753650       2.84672291       2.85130966      -0.02185822      -0.00502181      -0.00760812
C        3.27521149       3.96995195       4.29350747      -0.00190955       0.00315634       0.00363892
C        4.23350433       3.84545885       3.14903052      -0.00409156      -0.00339592       0.00594705
H        3.47694318       4.87720168       4.86097654       0.00658855      -0.00031705       0.01124544
H        2.25763817       4.04151844       3.89948623      -0.00400481      -0.00497465       0.00296576
H        3.35794207       3.10335677       4.93668822      -0.00534930      -0.00216301       0.00200759
H        4.90486015       4.84196228       1.66155599       0.01001447       0.00101805       0.01153357
O       10.08195395       9.37185461       4.66867209       0.00992477       0.00685555       0.00196323
O        9.44337988       7.78401541       6.11583378      -0.00297940       0.00623554      -0.00370896
C       11.42530169       7.44598600       4.82526446      -0.00939655      -0.00746858      -0.00977586
C       10.21347006       8.20576455       5.26966752      -0.00007951       0.00172436      -0.00375134
H       11.90474396       7.93545997       3.98193537      -0.01025179      -0.01254729      -0.01337470
H       12.11703651       7.42268744       5.67112255      -0.00403535      -0.01134337      -0.01404831
H       11.15860880       6.41627337       4.58711912      -0.01761818      -0.00616024      -0.00615844
H        9.37108659       9.93460562       5.09095927       0.01426712       0.00921190       0.00519916
