145
Lattice="12.264887553484476 0.0 0.0 0.0 12.264887553484476 0.0 0.0 0.0 12.264887553484476" Properties=species:S:1:pos:R:3:forces:R:3 energy=-455966.46875 stress="-0.00018703406385611743 -0.0003647092235041782 -2.8163350179966073e-05 -0.0003647092235041782 0.0003832619113381952 -0.00017224486509803683 -2.8163350179966073e-05 -0.00017224486509803683 0.00045865311403758824" pbc="T T T"
Tm      11.39592154      12.46286646      -0.26274185      -0.00163937      -0.01232570       0.00164680
O        7.74180904       8.60081261       4.47265291      -0.01737487       0.03357241      -0.01602745
N        5.73435376       9.01520283       3.20248671      -0.03044844      -0.01346540      -0.01976562
C        6.72477507       8.81368700       3.81325287      -0.00141490       0.00327948      -0.00258601
O        7.31025787      11.85670673      10.92621441      -0.03392291       0.07574607       0.02628161
N        9.68813471      11.99672971      10.83458720      -0.03964952      -0.02115297       0.01271165
C        8.48546913      11.92123419      10.88614513       0.04176706       0.03268148       0.01538651
O       10.01535845      11.92654671       3.87616121       0.08700705       0.01408968       0.04577923
N       11.11457854      11.76414711       1.76326741       0.02868408      -0.00205737       0.01959750
C       10.54907337      11.81423296       2.82560227       0.07228907       0.00425427       0.00388182
O       11.82932112       3.05305727       3.36796316      -0.00665337      -0.01931357      -0.01366085
C       10.84068431       2.89414374       2.36272417      -0.00004634      -0.00524413      -0.02217269
C       11.47712648       2.64384136       0.99180458       0.00866345      -0.00207826      -0.01867646
H       10.15113570       2.08721347       2.61847210      -0.00857070      -0.00138617      -0.03268988
H       10.26736253       3.82134982       2.34217990       0.00676961      -0.00096640      -0.02149868
H       10.68742085       2.36381178       0.27069869       0.01416316       0.00153886      -0.02603505
H       11.97240432       3.54184635       0.61835620       0.01281012      -0.00213295      -0.01328206
H       12.25360217       1.87016130       1.10814159       0.00758580      -0.00259312      -0.01646759
H       12.08934931       2.17559041       3.66475313      -0.02840238      -0.02299148      -0.00551652
O        7.84049612       3.98204530       4.14967266       0.00704150      -0.01727092      -0.01038575
C        7.87406582       2.62145466       4.57342607       0.01092109      -0.01636469      -0.00823220
C        7.06181419       1.71892761       3.67327902      -0.00000706      -0.01786965       0.00289318
H        8.90943909       2.26714180       4.63534361       0.01120609      -0.01726125      -0.01810979
H        7.46967322       2.61648171       5.58952473       0.02177960      -0.01276659      -0.00413820
H        7.12772065       0.68114349       4.00003555       0.00087781      -0.01732171       0.00508071
H        6.01406710       2.02505648       3.67320839       0.00051887      -0.01626886       0.01285514
H        7.43814190       1.77516761       2.64768971      -0.01077971      -0.02101929      -0.00110285
H        7.86188111       3.98867422       3.18753459       0.00865471      -0.01820739      -0.01044336
O        0.31836400       0.82005815      10.12463339       0.00363193      -0.00883089       0.01255310
C        1.10004418       2.02250705       9.86687297      -0.00413720      -0.00404552       0.01229677
C        2.46754360       1.90498400      10.48370340      -0.00078073      -0.00089169       0.00436270
H        1.15065702       2.15815406       8.78619288      -0.01093973      -0.00057348       0.01232472
H        0.55099287       2.87329112      10.28238005      -0.00560150      -0.00754842       0.01769592
H        2.94496406       2.87971376      10.55974251       0.00346994      -0.00184897      -0.01089779
H        2.38550931       1.51003922      11.49740781       0.00421423       0.01162529       0.00934768
H        3.11407697       1.24322866       9.91298867      -0.00772406      -0.01007414       0.00710495
H       -0.05341411       0.52039197       9.24836931      -0.00706665      -0.00065459       0.01323366
O        3.46976214       3.77166959       0.88012581      -0.02118480       0.01089436       0.01332965
C        3.62779394       2.57605583       1.65924115      -0.00423849       0.01048572       0.00951341
C        3.03167304       2.70736694       3.03995652       0.00307252       0.00132856       0.01338446
H        3.15122035       1.74920643       1.12296751       0.00018370       0.00797457       0.00965615
H        4.69647715       2.35327631       1.70294177      -0.00182891       0.01958593       0.00291981
H        3.08939078       1.75469145       3.56919123       0.01571313       0.00078940       0.01099861
H        3.55795799       3.45925718       3.62849304      -0.00013047       0.00512546       0.01170518
H        1.98089795       3.00002509       2.97592787      -0.00021496      -0.00931223       0.02011286
H        2.90264127       4.38039595       1.36704647      -0.00846303       0.01200552       0.02712047
O        5.70418332       5.52082826       0.42683841      -0.00009757      -0.02328706      -0.00530219
C        6.14369932       6.12385402       1.64825575       0.00672276      -0.01043265      -0.01448077
C        5.36594155       5.63271432       2.84633923       0.01045457       0.00696915      -0.00511765
H        7.21388582       5.90395141       1.77799057       0.00632238      -0.01318412      -0.01809176
H        6.04543703       7.20830095       1.56700225       0.01023248      -0.01075488      -0.02572155
H        5.72807334       6.10839758       3.75726609       0.01664009       0.01699676      -0.01294537
H        4.30782974       5.87155284       2.73376243       0.01129259       0.01184338      -0.00260504
H        5.47548685       4.55276179       2.96222929       0.00602573       0.00794931       0.00716580
H        5.00753678       4.88028109       0.63573206      -0.01749615      -0.00270507       0.00154117
O       11.56329592       0.39895747       7.74055814       0.00432858       0.01187795       0.02129102
C       10.31016637       1.09485872       7.54178149      -0.00015686      -0.00091395       0.00533362
C       10.54278011       2.56467349       7.27818206      -0.00457966      -0.00420207      -0.01292834
H        9.75883663       0.61473197       6.73112114       0.00922704      -0.01451033       0.00721866
H        9.74937336       0.94180685       8.46387245      -0.00705461       0.00809534       0.00281507
H        9.59976164       3.10978898       7.31529265      -0.00852066      -0.00979736      -0.03845191
H       11.19190045       2.98755419       8.04744872      -0.02093367       0.01280294      -0.00875308
H       10.99372998       2.75658698       6.30404276       0.01190775      -0.01782888      -0.00764078
H       11.85153310       0.00274858       6.91442937      -0.01320321      -0.04244836       0.04144788
O        8.31732186       2.76091483      12.34419559       0.00642765      -0.01782376      -0.00235774
C        8.62092249       4.02096671      11.72900885      -0.00386080      -0.01273603       0.00201806
C        9.12003530       3.85337217      10.30931558      -0.00074226      -0.00303541       0.00183034
H        7.74500911       4.67642570      11.76513745      -0.00959212      -0.02073842       0.00309776
H        9.39308957       4.46772929      12.35823016      -0.00832090      -0.00799671       0.00428861
H        9.42736798       4.81534194       9.89152183      -0.00784697       0.00126353       0.00646504
H        9.97543768       3.17424920      10.27050333       0.00492890       0.00442078       0.00018931
H        8.32821557       3.44993776       9.67651375       0.00329815      -0.00647736      -0.00114131
H        7.57899751       2.37298458      11.86019443       0.00558564      -0.02012592       0.00136743
O       11.00837495       5.71208876       5.87908847       0.00082994       0.00357535       0.00501141
C        9.76770665       6.40326041       5.70952737       0.00506330       0.00902243      -0.00277901
C        8.69381132       5.90780792       6.65298204      -0.00149423       0.01825172      -0.00507048
H        9.90892093       7.48499600       5.81419575       0.01062629       0.00869310      -0.00637861
H        9.46655126       6.22507202       4.67968012       0.00868931       0.00667216      -0.00351763
H        7.78191201       6.48915724       6.51304509       0.00499639       0.02883847      -0.00382603
H        8.47258823       4.86074675       6.45359141      -0.01342857       0.02123764      -0.00827307
H        9.00809413       6.00600966       7.69581755      -0.00114491       0.01146829      -0.00452511
H       11.32645431       5.89872005       6.76661703       0.00552855       0.01811047       0.00029739
O        1.96801214       6.86628113       2.53120787       0.00496233      -0.00764054       0.00167787
C        2.35269121       7.32474466       3.84139146       0.00004794      -0.00218692       0.00139865
C        1.26188528       8.13504040       4.50220474      -0.00256896       0.00109059      -0.00669754
H        2.60967601       6.46032610       4.46559329      -0.00314538       0.00039917       0.00643381
H        3.26388125       7.90827025       3.69535946       0.00102431      -0.00343630       0.00241795
H        1.58747969       8.45697171       5.49229804      -0.00635149       0.00516741      -0.00679095
H        1.01262901       9.01814739       3.91314352      -0.00054413      -0.00122684      -0.01113307
H        0.35584104       7.53706430       4.62942569      -0.00332274       0.00199603      -0.00768102
H        1.03862224       6.62294197       2.58437349       0.00476317      -0.00785462      -0.00009735
O        2.83447983       9.36869687       9.42887624       0.01836649      -0.03522301       0.05488995
C        3.20011496      10.73760575       9.51665696       0.00899094      -0.03139263       0.00812654
C        4.63256459      10.92983219       9.95725382       0.01174182      -0.00263662      -0.00949049
H        3.03189038      11.16470999       8.52241855      -0.00135275      -0.06780116      -0.00477368
H        2.52164050      11.26686512      10.20163053       0.00937450      -0.01453325      -0.00512809
H        4.89016307      11.98497621      10.04962771      -0.00619314       0.00314455      -0.02173797
H        4.79607189      10.46151166      10.92824361       0.02850982       0.00901359      -0.00707868
H        5.32745204      10.47744094       9.25044524       0.01237418       0.00195384      -0.01187399
H        3.12122460       8.95403233      10.25171479      -0.01849074       0.00538711       0.08929878
O        3.78777355       8.88023410       0.31440294      -0.04579970       0.00668132      -0.03986979
C        3.46298779      10.01291065       1.12195823      -0.02599281       0.00555301      -0.02868414
C        1.98693350      10.35853643       1.00162711      -0.02464163       0.01539571      -0.00385718
H        3.75532028       9.82862373       2.15765084      -0.01208852      -0.00358383      -0.03444344
H        4.08845095      10.83727588       0.76943104      -0.02670166       0.00448212      -0.03325064
H        1.74229124      11.24615028       1.59178496      -0.00881012       0.01174404       0.00733118
H        1.72819814      10.53456687      -0.05169218      -0.04100974       0.02688528       0.00148302
H        1.37027987       9.53768245       1.37029203      -0.02497680       0.01729380      -0.00055977
H        3.71727971       8.09814766       0.87018186      -0.01149540       0.00703516      -0.03478517
O        5.77855335       3.35563688       9.22963651      -0.00301087       0.00414032      -0.00325036
C        4.97751052       4.49626899       9.55382344      -0.00076529       0.00570148      -0.00181675
C        5.63613741       5.80584071       9.18586355       0.00376043       0.00482506       0.00241409
H        3.99697909       4.41323336       9.06628879      -0.00029430       0.00900938      -0.00352880
H        4.82211023       4.44292498      10.62990761      -0.00182841       0.00337147      -0.00214607
H        5.01463660       6.64380591       9.50410581       0.00435187       0.00642233      -0.00018896
H        6.60199483       5.89805929       9.68164841       0.00225276       0.00112989       0.00621864
H        5.78213381       5.88694429       8.10615473       0.00861324       0.00468516       0.00307859
H        5.95909355       3.38679758       8.28597226      -0.00218876       0.00586456      -0.00303897
O        6.93243296      10.28427089       6.68353192       0.00857830      -0.00961964      -0.00082833
C        5.55697484      10.46523051       6.37821218       0.00913459      -0.00299060       0.00183273
C        4.74924600       9.18449602       6.49946453      -0.00052810       0.00424564       0.01317332
H        5.19221692      11.20977500       7.09058739       0.01583561       0.00626782      -0.00362715
H        5.43227308      10.87976868       5.37027505       0.01114886      -0.01065889      -0.00143939
H        3.68289260       9.39312264       6.38867647       0.00229399       0.01114102       0.00028312
H        5.03417980       8.48265659       5.71507990      -0.00050679      -0.00935099       0.02528602
H        4.89921650       8.72547623       7.47669592      -0.01254541       0.01603009       0.02035929
H        7.31653796       9.72732550       5.98564614       0.00480837      -0.00726035      -0.00711936
O       11.04336764       8.79736871       8.92093029      -0.01278527      -0.00438054      -0.02063406
C       10.34206636       8.25933971      10.03383096      -0.00648415       0.00344182      -0.01242799
C        8.83893221       8.32972114       9.87463857      -0.00714183       0.01193123      -0.00100678
H       10.66249456       7.22199229      10.21081233      -0.01118369       0.00173032      -0.01383189
H       10.66285111       8.83985497      10.90329538       0.00378126       0.00296324      -0.01611882
H        8.33143871       7.94755835      10.76233275      -0.00253563       0.01291307       0.00198260
H        8.51362087       9.35503399       9.70439447      -0.00182403       0.01451799       0.00351217
H        8.51165647       7.73113738       9.02175066      -0.01674174       0.01552123       0.00024934
H       10.54236133       8.58953295       8.12714781      -0.03615706       0.02025049      -0.01234725
O        9.92221132       8.84277401       2.80712208       0.01157993      -0.00704050       0.01831955
C        9.40449999       8.39240475       1.57213321       0.00914347       0.00189322       0.01646054
C       10.14036406       7.14448606       1.11817981       0.00397071       0.00143248       0.00968845
H        8.33065947       8.19591395       1.64871883       0.00848502       0.00432482       0.01714943
H        9.52699593       9.18265545       0.81737092       0.01075296       0.00502765       0.01993120
H        9.75757818       6.78598824       0.16078842       0.00236777       0.00936579       0.00727898
H       11.20638536       7.35597288       1.00333091       0.00502340      -0.00324322       0.01103933
H       10.02482814       6.35136871       1.85967112      -0.00024553      -0.00272827       0.00461166
H        9.19653097       8.81649183       3.46028500       0.00375490       0.01318943       0.01180050
