136
Lattice="12.71206066647746 0.0 0.0 0.0 12.71206066647746 0.0 0.0 0.0 12.71206066647746" Properties=species:S:1:pos:R:3:forces:R:3 energy=-1044190.5 stress="0.0008247003424912691 0.00021765597921330482 0.0005744804511778057 0.00021765597921330482 0.0012164197396486998 0.00015180536138359457 0.0005744804511778057 0.00015180536138359457 0.0009331349283456802" pbc="T T T"
Tm      12.40430524      11.35022207       0.97151715      -0.01145709      -0.00796235      -0.00915211
I        5.26282381       7.08457201       9.53517499       0.00169155       0.00160648      -0.00802195
O        6.15450027       6.79155669       8.00868107       0.01577413       0.01012078      -0.00743020
O        6.14485364       6.26024475      10.86074613       0.00127971      -0.00241095      -0.00733662
O        5.20328826       8.83290887       9.89360768      -0.00567115      -0.00410509      -0.00345567
O        3.62508116       6.38786584       9.36731412       0.00988042      -0.00784320      -0.02226690
I        5.01029000      11.23681988       5.69083934      -0.02475086       0.01943979       0.02730436
O        5.44295994       9.52399589       5.94476730       0.00488982      -0.00690055      -0.01122825
O        6.30506249      12.03883910       4.76260152      -0.00055295       0.01802623      -0.00728947
O        3.47358227      11.31115891       4.76049057      -0.00434494       0.00530594       0.01258528
O        4.77156402      12.07386487       7.24770396       0.00805787      -0.01769567      -0.00966799
I        3.17521866      11.57440387       1.83214085      -0.00375581       0.02542585      -0.00027227
O        4.33633715      10.21776178       1.70424308       0.01226497       0.02941942       0.00330761
O        3.82975970      12.86178910       0.76584260      -0.03125900       0.00663543      -0.03169632
O        1.73243603      10.89232490       0.77846239      -0.01220948      -0.00662786       0.03837854
O       -0.38464944      12.62677202       2.25916591      -0.01532768       0.03835213      -0.02606428
O        3.12630972       2.19852759       3.39664830       0.00087398      -0.01049900      -0.00315213
C        3.79311253       2.99109540       2.42692121      -0.00029188      -0.00780913      -0.00222874
C        1.76363076       2.54959670       3.53228367      -0.00149882      -0.01030606      -0.00421864
C        5.26557181       2.67185266       2.47387425       0.00053614      -0.00574233      -0.00009037
C        1.12279301       1.63736334       4.54839662       0.00132337      -0.00245464       0.00455439
H        3.38515445       2.77048090       1.43131226       0.00162503      -0.00693992      -0.00292230
H        3.62662707       4.05676681       2.64363467      -0.00144199      -0.00781244      -0.00097489
H        1.69343856       3.60450339       3.84808100      -0.00158258      -0.00822616      -0.01164961
H        1.24593844       2.45516691       2.56656269      -0.00305793      -0.01917306      -0.00229168
H        5.79956122       3.29720365       1.75697116       0.00083092      -0.00476959       0.00091499
H        5.66250737       2.86620020       3.47036273      -0.00105976      -0.00622756       0.00060457
H        5.42986296       1.62521082       2.22100160       0.00305091      -0.00560406      -0.00065739
H        0.11462901       1.98589979       4.77388979      -0.00041899      -0.00366271      -0.00002846
H        1.03016555       0.62972251       4.14419384       0.00616778      -0.00718608       0.01504938
H        1.71222953       1.62037055       5.46636806       0.00037955       0.00737025       0.00473465
O        1.45816089       9.81192373       7.81479703      -0.00168464      -0.00336820       0.00536162
C        1.71644309      11.18909603       8.04052769       0.00014916      -0.00242406       0.00869924
C        0.94195151       9.55090426       6.52870713       0.00192210      -0.00063545       0.00462067
C        2.53841269      11.31637660       9.29753002      -0.00045139      -0.00549407       0.00945675
C        0.80522557       8.05375936       6.38405114       0.00172307      -0.00063062       0.00174802
H        2.25643413      11.61291923       7.18583139      -0.00003248      -0.00139344       0.01050091
H        0.75838004      11.73151883       8.12441073      -0.00062156      -0.00266898       0.01065864
H       -0.03443790      10.04879933       6.40180151       0.00089520      -0.00122643       0.00279810
H        1.61538355       9.96188878       5.76460496       0.00277442       0.00133473       0.00622153
H        2.77678801      12.36226323       9.49090833      -0.00214019      -0.00564730       0.01195127
H        2.01075281      10.91100680      10.16192078       0.00015016      -0.00857738       0.00860548
H        3.47181357      10.76796537       9.18237129       0.00062120      -0.00397694       0.00755542
H        0.41286078       7.79831794       5.39843120       0.00501344       0.00048501       0.00002944
H        1.77742508       7.58083943       6.51183225       0.00127456      -0.00147127       0.00491319
H        0.13661561       7.64978414       7.14456291      -0.00099100      -0.00118366      -0.00086150
O        9.11142875       9.56545991       8.40798742       0.00535780      -0.00042470      -0.00120474
C        9.95212570       8.47990103       8.74006698       0.00746253       0.00030649      -0.00248051
C        9.79536973      10.61476760       7.75920754       0.00313757      -0.00104970      -0.00506449
C        9.11721417       7.41843534       9.40929042       0.01017487       0.00117290       0.00299644
C        8.80529689      11.69683875       7.40798319       0.00042433      -0.00222090      -0.00398384
H       10.42581464       8.08783767       7.82795914       0.00345717      -0.00143659      -0.00366914
H       10.76865226       8.82779893       9.39586991       0.00997162       0.00187767      -0.00647864
H       10.59169050      11.00130622       8.41801397       0.00451183       0.00091282      -0.00792867
H       10.29361442      10.22959021       6.85655189       0.00059107      -0.00221244      -0.00580883
H        9.73604955       6.56342328       9.68472968       0.01171778       0.00183270       0.00212043
H        8.63632959       7.80377400      10.30925555       0.01344235       0.00283186       0.00396293
H        8.32344355       7.08005039       8.74257998       0.00786373      -0.00023375       0.00621478
H        9.32607892      12.56022704       6.99199037      -0.00109395      -0.00302531      -0.00884073
H        8.08793494      11.34865574       6.66627201      -0.00192504      -0.00487065      -0.00006346
H        8.25307224      12.01387477       8.29300606       0.00419958       0.00009072      -0.00308841
O        5.96267685       2.92727826       9.28608263       0.00056756       0.00055619       0.00291455
C        6.94099596       3.13153112      10.28582857      -0.00007051      -0.00165801       0.00297220
C        4.64854138       2.91765871       9.81873354      -0.00035763      -0.00151774       0.00258893
C        8.29593547       3.13308365       9.61733870       0.00004458       0.00425928       0.00278270
C        3.68238058       2.64298860       8.69205637       0.00034633      -0.00355563       0.00277817
H        6.75904563       4.08814039      10.79268016      -0.00162238      -0.00356323       0.00698012
H        6.88241829       2.32316242      11.03067330       0.00205314      -0.00454712       0.00027585
H        4.57515683       2.14166409      10.59586409       0.00089614      -0.00126910       0.00319225
H        4.43075438       3.88668958      10.28854418      -0.00132793      -0.00121117       0.00216222
H        9.08151300       3.26806429      10.36234985       0.00020269       0.00251367       0.00290279
H        8.46512572       2.18934333       9.09680087       0.00167280       0.00671075      -0.00157932
H        8.35773741       3.94934415       8.89698432      -0.00214697       0.00759244       0.00613602
H        2.66498310       2.58531155       9.08184765       0.00018585      -0.00352808       0.00235981
H        3.72058590       3.45049480       7.96276849       0.00018250      -0.00387841       0.00152324
H        3.92752676       1.70425713       8.19209659       0.00106469      -0.00399941       0.00371007
O        8.30268016      11.92063465      11.43885374       0.00406660      -0.00158089      -0.00402968
C        7.15866742      11.05839541      11.27704122       0.00568563      -0.00344630      -0.00899947
C        9.49740712      11.18529784      11.46830041       0.00552392       0.00112358      -0.00321329
C        5.92467606      11.89715071      11.09623248       0.00401670      -0.00563073      -0.00421378
C       10.66271916      12.15417087      11.59720667       0.00306356       0.00298291       0.00052577
H        7.31735709      10.40630104      10.41113657       0.00785168       0.00147697      -0.01219755
H        7.06544993      10.41776943      12.16412374       0.00777495      -0.00889450      -0.01211774
H        9.48134558      10.47461012      12.30961806       0.00533284      -0.00027469      -0.00343448
H        9.59550912      10.59767246      10.54563666       0.00841635       0.00186178      -0.00329596
H        5.07053866      11.22836786      10.99799936       0.00529051      -0.00726134      -0.00680136
H        5.74103486      12.53683295      11.95905428       0.00270287      -0.00942364      -0.00147486
H        5.99142972      12.50297654      10.19063545       0.00181586      -0.00151530      -0.00178367
H       11.61804620      11.63060680      11.43229221       0.00447703       0.00411159       0.00363397
H       10.59007431      12.92431912      10.82880441       0.00489245       0.00273590       0.00000462
H       10.65812232      12.67240031      12.56841812      -0.00035142       0.00389621      -0.00007625
O        9.06010877       5.45409236       5.22411042      -0.00045627       0.00405943      -0.00195031
C        8.71355479       4.08684643       5.29170615      -0.00491634       0.00439525       0.00427086
C        7.90031177       6.28228061       5.34078863      -0.00042264       0.00408965       0.00168292
C        9.97397137       3.25772744       5.23548517      -0.00762999       0.00800559       0.00752269
C        8.29041859       7.72541554       5.15208915      -0.00100063       0.00513524       0.00346629
H        8.15290562       3.88389472       6.21604124      -0.00103879       0.00610293       0.00210166
H        8.04357695       3.83280470       4.45650115      -0.00191706       0.00404631       0.00145364
H        7.15908869       5.98242268       4.58948118      -0.00202036       0.00556189       0.00232369
H        7.44272525       6.13948518       6.32795209       0.00166073       0.00270228       0.00223750
H        9.73285372       2.19462217       5.24928661       0.00020094       0.00391288      -0.00484827
H       10.53102871       3.46983798       4.32358407      -0.00988266       0.03514930       0.00308043
H       10.61804464       3.47733165       6.08774199      -0.00023562       0.00403157       0.00127092
H        7.41693791       8.36179686       5.30688386      -0.00069043       0.00444326       0.00759329
H        9.04748661       8.01566975       5.88209363       0.00125007       0.00325997       0.00198725
H        8.68262585       7.90032716       4.14828642      -0.00440940       0.00719257       0.00253187
O        9.46425825       9.53696304       1.77273783      -0.00193286      -0.00177695      -0.00088463
C       10.69509442       8.90235549       1.56588522       0.00144795       0.00034416       0.00294223
C        9.53454052      10.76022085       2.50998356      -0.00994641      -0.00657469       0.00680126
C       10.44083500       7.45538530       1.21277669       0.00586411      -0.00123459       0.00547813
C        8.20432374      11.45642411       2.43995610      -0.01094562      -0.00772366      -0.00423139
H       11.23988110       9.36865186       0.70696092       0.00171559       0.00132111       0.00412712
H       11.34416235       8.99713754       2.45434578      -0.00159214       0.00310478       0.00388861
H        9.82836967      10.54025792       3.54531564      -0.02299538      -0.01287529       0.00877309
H       10.32243031      11.42982550       2.11813293      -0.00751290      -0.00273448       0.01892059
H       11.37267973       6.95021487       0.96014352       0.00723316       0.00195945       0.00403306
H        9.97244428       6.93938711       2.04955464       0.01017022      -0.00236713       0.00714043
H        9.76727525       7.40014073       0.35708312       0.00388333      -0.00582670       0.00747117
H        8.24584731      12.37147902       3.02899650      -0.01976231      -0.01160179       0.00211878
H        7.95086797      11.71134731       1.41046893       0.00080178      -0.00208297      -0.00543594
H        7.40757234      10.84596375       2.85794849      -0.01425347      -0.01261753      -0.01780482
O        4.87015041       6.29781378       3.78182193      -0.00478578       0.00241637      -0.00644682
C        4.80850261       7.41227393       2.89634965      -0.00327313       0.00412916      -0.00354320
C        4.08748870       6.52334417       4.94598865      -0.00081129       0.00029507      -0.00282025
C        5.70664301       7.17166811       1.70926459      -0.00577903       0.00380237      -0.00523806
C        4.12824311       5.30749435       5.83682463       0.00275388      -0.00059694      -0.00402644
H        3.76961717       7.55913969       2.56857151      -0.00280744       0.00990470      -0.00087589
H        5.09630096       8.32548040       3.42933747       0.00205603       0.00284976      -0.00129887
H        4.45972544       7.40774483       5.48056414       0.00108424      -0.00015479      -0.00287345
H        3.05245055       6.73873503       4.63373838      -0.00180781       0.00071452       0.00137728
H        5.63510675       8.02135159       1.03109373      -0.00311912       0.00441200      -0.00433788
H        6.74637561       7.06590263       2.02496311      -0.00575338      -0.00176217      -0.00707018
H        5.41933323       6.27605299       1.15779062      -0.01028194       0.00488442      -0.00604635
H        3.51449384       5.48878309       6.72082997       0.00620420      -0.00178438      -0.00162908
H        3.76446238       4.41868267       5.31726316       0.00119916      -0.00066403      -0.00363392
H        5.14015912       5.12323166       6.19447999       0.00436109      -0.00133043      -0.00810450
