142
Lattice="12.721164344368935 0.0 0.0 0.0 12.721164344368935 0.0 0.0 0.0 12.721164344368935" Properties=species:S:1:pos:R:3:forces:R:3 energy=-515008.6875 stress="-0.001326760626398027 -6.0846625274280086e-05 0.00013892975402995944 -6.0846625274280086e-05 -0.00016201585822273046 -0.0009284061379730701 0.00013892975402995944 -0.0009284061379730701 -0.00032449254649691284" pbc="T T T"
Tm      11.16329200      10.64994400       2.22886296      -0.00183628       0.00221670       0.02986115
P       10.61753892      10.27431338       4.88816125      -0.00308105       0.00315553       0.02761045
O        9.30588635      10.12994545       5.75295496      -0.00655404      -0.01057371       0.01754940
O       11.80240668      10.26989788       5.88655931      -0.00770159       0.01834536       0.03112409
O       10.66542205       9.18458161       3.82306964       0.00783841       0.00089240       0.03078049
O       10.63761934      11.59738199       4.10963909      -0.01368999       0.00196251       0.02463385
H        9.41729602      10.25956412       6.70477739      -0.02680188       0.03169984       0.01417452
H       12.37876344       9.49299096       6.13253045      -0.00124805       0.02395391       0.03845819
P        2.18394489       8.35831390       7.89538787      -0.00970566       0.00745064       0.00126728
O        1.06369932       9.12520607       6.92892429       0.00652444       0.02336165      -0.00246644
O        3.55058233       8.99081354       7.22769886       0.00166893      -0.00948828       0.00657570
O        2.10686347       8.91886411       9.26856211      -0.00502691       0.00787705       0.00307751
O        2.05152306       6.92298590       7.57142390      -0.02812004       0.01163363      -0.00031912
H        1.15474950      10.07959301       7.08582443       0.02053055       0.02257210      -0.00576341
H        3.99795176       9.43533313       7.95716622       0.00933805      -0.02321315       0.01006499
P       11.16689844      11.19311974      12.08124860      -0.02069080      -0.00128627       0.02979168
O        9.84537172      10.79519695      13.03917846      -0.01318252       0.00270641       0.03973162
O       10.69559111      12.42875021      11.19020865      -0.02463694      -0.00022417       0.03305173
O       12.03781612      11.71652311      13.21814335      -0.00957306      -0.00252274       0.02188180
O       11.53036552      10.04714666      11.25497663      -0.03143541      -0.00189003       0.02663586
H        9.25941123      10.09540235      12.69409168      -0.01262417      -0.00205654       0.04617998
H       10.77358819      13.26228867      11.66452212      -0.01889846      -0.00045276       0.03220779
O        5.48759917       5.26572086       8.64932898      -0.01087907       0.00332344      -0.00434381
O        6.33129043       4.30659743       6.91336490       0.00041837       0.00101916       0.00259347
O        4.23138864       3.73105343       7.54720857      -0.00041485      -0.00463605      -0.00507528
C        4.36157097       5.54266042       9.54388857      -0.01394024      -0.00118065      -0.00723290
C        4.91278110       6.36128106      10.67433421      -0.02001926       0.00272754      -0.00718468
C        5.23480237       4.38429825       7.69637987      -0.00289941      -0.00054425      -0.00207849
C        6.21288186       3.37422993       5.84008693       0.00750585      -0.00104759       0.00388721
H        3.59466467       6.06035154       8.96610597      -0.01468498      -0.00517410      -0.00963366
H        3.96629225       4.58952622       9.88853262      -0.01051146      -0.00245225      -0.00648063
H        4.10932607       6.62376442      11.36089474      -0.02253802       0.00027795      -0.00923918
H        5.66522008       5.80361978      11.23421838      -0.01879480       0.00653827      -0.00532494
H        5.36010534       7.28698281      10.31357468      -0.02261467       0.00372109      -0.00760192
H        5.89299645       2.40043851       6.21139192       0.01823877      -0.00374499       0.00563891
H        7.20321578       3.31238006       5.39897377       0.00710350       0.00805037       0.00209687
H        5.48427712       3.72958949       5.11099641       0.00258499      -0.00939283       0.00478452
O        2.89897930      11.89307031       5.78115173       0.00545782       0.00518381       0.00924066
O        1.52660225      11.86771851       7.45565254       0.00727825       0.00909281       0.00841236
O        3.72338829      12.23520451       7.86553028       0.00632191       0.01612428       0.00738943
C        4.25610106      11.88644116       5.28689823       0.00298367       0.00601579       0.00440609
C        4.21680528      12.03033638       3.78711192      -0.00396112       0.00399328       0.00439936
C        2.81020623      12.01452232       7.11320088       0.00765544       0.01142739       0.00882250
C        1.25690485      11.92520580       8.88455524       0.00451155       0.00611278       0.00743283
H        4.79699256      12.70678999       5.75837991       0.00364973       0.00722197       0.00135896
H        4.70919933      10.93948712       5.58773757       0.00499944       0.00679922       0.00367081
H        5.23298336      12.16101500       3.41291140      -0.00639112       0.00783945      -0.00025209
H        3.80487976      11.14209032       3.31187695      -0.00254951       0.00196040       0.00722070
H        3.63303996      12.90320327       3.49477635      -0.00886635       0.00127485       0.00638995
H        1.59262184      10.99128763       9.34371337       0.00318691       0.00634426       0.00770688
H        0.17687702      12.01877336       8.95313598       0.00493932       0.00450287       0.00558631
H        1.75974392      12.79117430       9.30777234      -0.00067480       0.00682804       0.01048874
O        1.04945468       8.02487096       3.96051055       0.01325774      -0.01099712       0.00503498
O        0.99368175       5.98652927       4.73116374       0.00960973      -0.00010043       0.00484906
O        2.96537637       7.09440964       4.72344789      -0.01636517      -0.01368584      -0.00402480
C        1.86373147       9.16343359       3.62561900       0.00511444      -0.01233041      -0.00046110
C        1.02051462      10.13086442       2.81946074       0.00257323      -0.00620212       0.00665796
C        1.78620342       7.03597764       4.51952994       0.01089084      -0.00985679       0.00326565
C        1.68442672       4.88015153       5.35009003      -0.00515542      -0.00241889       0.00945843
H        2.22330748       9.61962489       4.54790812       0.01420280      -0.01258183      -0.00316763
H        2.72625682       8.82397641       3.05731317       0.00103724      -0.01073179      -0.00780979
H        1.65647771      10.86746130       2.32772286       0.00032303      -0.00724104       0.00140589
H        0.49180052       9.57449914       2.02591540      -0.00552409      -0.00437562       0.01168043
H        0.35430394      10.68409097       3.49798458       0.00961392      -0.00618032       0.01338330
H        2.45889091       4.50953519       4.67848369      -0.00147608      -0.00806815       0.01561090
H        0.92695368       4.11414898       5.48982771      -0.00623006      -0.00377278       0.01036195
H        2.11149567       5.20848222       6.29489155      -0.00771061      -0.00241432       0.01095247
O        8.81504843       9.10854249       9.07112671       0.00548360      -0.00952244      -0.01828887
O        7.82330779      10.92387534       8.46030030       0.00824025      -0.01017198      -0.02253292
O        6.70356140       9.48695664       9.80819013       0.01207960       0.00189447      -0.00748384
C        8.80730687       7.81402716       9.73993642       0.00832647      -0.00590845      -0.01160751
C       10.23028790       7.34536078       9.85084633       0.00985521      -0.00215776      -0.01335488
C        7.68438979       9.79800318       9.17963046       0.00888520      -0.00614071      -0.01422703
C        6.60810382      11.68954677       8.35238156       0.01135120      -0.00443395      -0.01375327
H        8.33321079       7.94687252      10.71156341       0.00806598      -0.00069903      -0.01236141
H        8.17956674       7.14220723       9.15055541       0.00889510      -0.01067793      -0.00670683
H       10.24673919       6.34866660      10.29289293       0.01327169       0.00013450      -0.00855540
H       10.69397403       7.26493490       8.87016418       0.00813928      -0.00689893      -0.01363191
H       10.82330417       8.03498475      10.44827097       0.01013592       0.00283396      -0.01984739
H        5.86978337      11.14182219       7.77580003       0.00156727      -0.00464386      -0.00038488
H        6.88223968      12.60369166       7.83557307       0.00966451      -0.00973755      -0.02352515
H        6.18964661      11.90513286       9.33306019       0.02417888       0.00495191      -0.01055297
O        5.09373621       1.33238695      11.76645538      -0.00001389      -0.00997275       0.00291058
O        2.92968765       1.33631750      11.62537284      -0.00037865      -0.01209512      -0.00063992
O        4.00182281       3.30959427      11.89659833      -0.00146945      -0.01155233      -0.00450142
C        6.33077431       2.06977401      11.88820159      -0.00063431      -0.00924462       0.00537554
C        7.45322633       1.06728811      11.92913817      -0.00062940      -0.00888497       0.00589031
C        4.00645140       2.11189388      11.77154278      -0.00078753      -0.01070189      -0.00136637
C        1.69732449       2.07070412      11.57625410      -0.00087070      -0.01266426      -0.00185926
H        6.40921893       2.75205682      11.03979141      -0.00024188      -0.00907692       0.00617084
H        6.28914993       2.67364969      12.79479908      -0.00047414      -0.00771704       0.00430244
H        8.40280168       1.59776525      12.01179177      -0.00155708      -0.00785892       0.00730649
H        7.35618382       0.40199263      12.78663410       0.00002676      -0.01068033       0.00455841
H        7.48005169       0.45852353      11.02595797       0.00180622      -0.00787561       0.00532989
H        1.58089922       2.67888072      12.47238114      -0.00200745      -0.01269753      -0.00212508
H        0.91959522       1.31494360      11.52156004      -0.00049861      -0.01290666      -0.00261988
H        1.67793609       2.71740469      10.69974775      -0.00046051      -0.01282206      -0.00193596
O        9.90266283       4.28276676       6.41269048      -0.00551839      -0.00755587      -0.00532445
O        8.92918915       2.81305975       7.65551405      -0.00138447      -0.00893456      -0.00397603
O       10.39544808       4.24525228       8.62276478      -0.01951879       0.00797421      -0.00239742
C       10.81172844       5.40480527       6.23136233      -0.01587832       0.00201975      -0.00269222
C       10.52257449       5.99856758       4.88258026      -0.00941007      -0.00715201      -0.00759619
C        9.81037159       3.82765506       7.65448717      -0.00956535      -0.00151217      -0.00362289
C        8.64249538       2.27667569       8.94768699      -0.00370298      -0.00580426      -0.00344215
H       10.65121656       6.11493512       7.04019300      -0.03227161       0.00241283      -0.00671113
H       11.83230403       5.03618436       6.31510604      -0.01280874       0.01382777       0.00880897
H       11.22919100       6.80053365       4.67980006      -0.01464275      -0.00223316      -0.00609557
H       10.63175818       5.24721709       4.09976812       0.00328325      -0.01005197      -0.00263191
H        9.51280831       6.40658676       4.84313008      -0.01224387      -0.01552743      -0.01839542
H        9.37238266       1.50824377       9.20630500      -0.00113329      -0.00149632       0.00173805
H        7.65045987       1.83922399       8.87418909      -0.00134367      -0.01062112      -0.00604377
H        8.65467632       3.06518905       9.69807672      -0.01006579      -0.00351524      -0.00583531
O        8.25304160       8.54130086       0.51996096       0.00545945       0.00520498      -0.01040173
O        6.60760110       9.93365551       0.30108280       0.00408101       0.00151627      -0.01641135
O        6.15216692       7.71274570       0.36430952       0.00971752       0.00142813      -0.01561017
C        8.72319928       7.17574670       0.71549485       0.01228017       0.00814658      -0.00654064
C       10.20387580       7.23492196       0.98128763       0.01134565       0.01858567      -0.00377715
C        6.90951724       8.64100954       0.38531929       0.00469267       0.00085366      -0.01440927
C        5.19006731      10.19475586       0.15803848       0.00478622      -0.00000879      -0.02654685
H        8.16926608       6.75141405       1.55156982       0.01306081       0.00842902      -0.00649843
H        8.48236504       6.60706515      -0.18309341       0.01542453       0.00290447      -0.00386944
H       10.59059837       6.21731505       1.04996630       0.01760186       0.02141093       0.00042094
H       10.73369161       7.73808651       0.16984024       0.01057707       0.02065542      -0.00293675
H       10.40675738       7.71828513       1.93925205       0.00659119       0.02118382      -0.00364506
H        4.82265361       9.75655414      -0.76596575       0.01166928      -0.00287308      -0.02772984
H        5.10156180      11.27681254       0.13266168       0.00452600      -0.00019133      -0.03068740
H        4.66389803       9.77317534       1.01295362      -0.00047116       0.00250281      -0.02878657
O        5.99051116       6.41835261       3.18262196       0.00576875       0.00492531      -0.00826747
O        7.11530796       8.22575314       3.49850503       0.00173648       0.00709535      -0.00786337
O        4.91412576       8.41495655       3.02630017       0.00450003       0.00133508      -0.01036814
C        4.77164799       5.69091355       2.89441244       0.00930580       0.00221562      -0.01406643
C        5.12856215       4.46796873       2.09573738       0.01837777       0.00252756      -0.01104304
C        5.89039073       7.73981815       3.22504604       0.00105482       0.00707579      -0.01022618
C        7.15643275       9.64833212       3.63217149      -0.00128272       0.00737649      -0.00575168
H        4.31657439       5.45485797       3.85363626       0.00489280       0.00035163      -0.01663846
H        4.09530486       6.35101644       2.35560089       0.01048249      -0.00077975      -0.01859412
H        4.23090241       3.86620140       1.94533048       0.02173187      -0.00028391      -0.01788701
H        5.50753447       4.74198171       1.11311471       0.02504611       0.00389674      -0.00807765
H        5.86928287       3.85853105       2.61633767       0.01657315       0.00530495      -0.00562119
H        6.48013591      10.11734972       2.92426254       0.00584108       0.00748761      -0.01213259
H        8.18396022       9.93075879       3.43276815       0.00056133       0.00891583       0.00596058
H        6.89491360       9.93190093       4.64999569      -0.01202672       0.00553747      -0.00814420
