142
Lattice="12.45008194070887 0.0 0.0 0.0 12.45008194070887 0.0 0.0 0.0 12.45008194070887" Properties=species:S:1:pos:R:3:forces:R:3 energy=-481136.8125 stress="0.000518679094966501 0.0002795634645735845 0.0007739603461232036 0.0002795634645735845 -0.0010637373197823763 4.3510840441740584e-07 0.0007739603461232036 4.3510840441740584e-07 -0.0008041827823035419" pbc="T T T"
Yb      12.90741980      13.12254895       0.85665491      -0.00767142       0.00664133       0.00142393
O        3.38001251      12.08213137       4.01896856      -0.00503826      -0.00464997      -0.00169891
N        1.32293797      12.30207385       2.83002867       0.01524508       0.00110225       0.02121669
C        2.35474776      12.16905838       3.41994495      -0.04295418       0.00464190      -0.01889132
O        2.99524940       9.97936717       0.45843044       0.00053120       0.00021303      -0.00576413
N        1.79557521      11.80476729      -0.51002823       0.00902349       0.00842273       0.00931114
C        2.40933392      10.88515073      -0.02916654      -0.00644866       0.02032396      -0.00611012
O        6.48997775      11.16273338      11.51006283       0.01211464       0.03633070       0.01709652
N        7.53200340      13.26115674      12.04780816       0.03003395       0.02585411       0.01934469
C        7.00482184      12.22181504      11.77005559       0.02206660       0.03292823       0.01908205
O       10.37910653       7.01817553       9.83553582      -0.00205427       0.00107312      -0.00355145
N       10.10451253       9.29276609       9.83735277      -0.00207927       0.00079045       0.00005428
C       11.50581873       9.60069074       9.65502936      -0.00175887      -0.00096422       0.00019636
C        9.18274567      10.40397887       9.98038787      -0.00173377       0.00090849       0.00095701
C        9.67363232       8.02241672       9.88930790      -0.00220624       0.00069976      -0.00203387
H       11.89806529      10.17194829      10.49999425      -0.00074878      -0.00240186       0.00065079
H       11.64081533      10.20103017       8.75153805      -0.00065459      -0.00047459       0.00079384
H       12.06090352       8.67149417       9.56099930      -0.00478368      -0.00271276      -0.00116488
H        9.45802775      11.01408713      10.84464571      -0.00211675      -0.00004126       0.00161499
H        8.16805585      10.04732503      10.12816560      -0.00167143       0.00069872      -0.00005133
H        9.18859573      11.02208276       9.08131569      -0.00132427       0.00163105       0.00142288
H        8.57838416       7.97066904       9.99901492      -0.00212175       0.00035229      -0.00253011
O        7.93089507       9.63523748       7.16017992       0.01930439       0.00353312      -0.00867343
N        9.15275741       7.73846655       6.76479885       0.00765426      -0.00431266      -0.00401806
C        8.10132703       6.82096060       7.13562947       0.00280423       0.00213008      -0.00167560
C       10.42981029       7.18156191       6.38613275       0.00350375      -0.01292984      -0.00507286
C        8.94617275       9.07285337       6.79834272       0.01638597      -0.00338310      -0.00711083
H        8.38386155       6.25081062       8.02520235       0.00122818       0.00138479      -0.00178409
H        7.91243960       6.12312136       6.31542091      -0.00191115       0.00240307      -0.00066471
H        7.19993691       7.39462171       7.33765610       0.00598496       0.00664499      -0.00090279
H       10.88008046       6.65610843       7.23281383       0.00173595      -0.01370671      -0.00473347
H       11.09039184       7.98445993       6.06679107       0.00771326      -0.01797786      -0.00848062
H       10.32566008       6.49944274       5.54049964      -0.00296911      -0.01433823      -0.00300029
H        9.83979562       9.62671329       6.45217702       0.02017367      -0.01015610      -0.00790714
O        5.07648052       9.60925005       5.12563966      -0.00791276       0.00350404      -0.00508296
N        2.94399683       8.79002493       5.26321173      -0.00818816       0.00521562      -0.00178832
C        2.64377147       8.93890951       3.85486509      -0.00769114      -0.00350413      -0.00279360
C        1.95580388       8.12701217       6.07564930      -0.00989141       0.01262348       0.00228826
C        4.14693209       9.16999488       5.76963041      -0.00933290       0.00818008      -0.00276005
H        1.71852625       9.50268919       3.72607423      -0.00700757      -0.00334296      -0.00651725
H        2.51063917       7.96309523       3.37848912      -0.00879070      -0.00637126       0.00356887
H        3.45604403       9.47603119       3.37688867      -0.00701141      -0.00746189      -0.00611707
H        1.02050782       8.69283019       6.09540586      -0.00820664       0.01524602      -0.00079980
H        2.32697016       8.02611103       7.09503899      -0.00973850       0.01760812       0.00260720
H        1.73235627       7.13120155       5.67807124      -0.01228895       0.01101658       0.00804099
H        4.20122748       9.01381556       6.86351106      -0.01052128       0.01637065      -0.00197703
O       11.38750812       7.41442917       3.20567445       0.00808489      -0.00255090      -0.00730395
N       10.08926728       7.65600779       1.33826433       0.00114540       0.00584359      -0.00127614
C       11.02201341       8.51737863       0.64791425       0.00297645       0.00085356      -0.00535071
C        8.83726451       7.37003915       0.67079425      -0.00157274       0.00967902       0.00261305
C       10.36857583       7.18527555       2.57227438       0.00423366       0.00286292      -0.00314969
H       10.48117811       9.39760654       0.29416028       0.00490493       0.00029409      -0.00879977
H       11.45042242       8.01097483      -0.22095431       0.00092451      -0.00369692      -0.00360414
H       11.81615736       8.80157070       1.33380003       0.00428075       0.00215163      -0.00749341
H        8.34883982       8.30126788       0.37070718      -0.00043879       0.01118568       0.00543891
H        8.17145382       6.85285205       1.35601723      -0.00036336       0.01004261       0.00405216
H        9.00273227       6.76049555      -0.22101249      -0.00619735       0.01029624       0.00140232
H        9.55688909       6.54983395       2.96045854       0.00274748       0.00655532      -0.00049075
O       11.00385205       1.37212645       1.99579179      -0.02497244      -0.00876153      -0.02065659
N        9.94479588       3.26355535       1.33546054      -0.01858982      -0.00408317      -0.01493981
C       11.09880966       4.11239283       1.57580635      -0.02066046      -0.00750287       0.00441889
C        8.71739250       3.87547354       0.85455853      -0.01424015       0.00110278      -0.01999919
C        9.98187946       1.96487033       1.58364401      -0.02123472      -0.00687039      -0.02538508
H       11.14828569       4.45458538       2.60965836      -0.02797917      -0.02101336       0.00909489
H       11.03853264       4.97950872       0.91932899      -0.01630487       0.00104588       0.01575540
H       12.02100218       3.56960746       1.37753440      -0.01885349      -0.00412810       0.00326845
H        8.33964915       4.57150867       1.59959559      -0.02257876      -0.00840212      -0.01550651
H        7.97913740       3.09802602       0.67205814      -0.01057747       0.00205496      -0.03810645
H        8.91802070       4.40684059      -0.07526886      -0.00510597       0.01229709      -0.01133242
H        9.04814450       1.44068516       1.35452936      -0.01875889      -0.00522545      -0.04362330
O        6.45520487       0.20737768       7.73670405      -0.00439870       0.00971437       0.02898693
N        7.72736844       1.72343251       6.60337289      -0.00480383      -0.00612700       0.00749457
C        6.83231270       2.82154235       6.88893359       0.00479023       0.00193291       0.00609033
C        8.87833471       2.00134237       5.77765407      -0.00625532      -0.01913299       0.00140848
C        7.41524374       0.47186257       7.04259056      -0.00789499      -0.00056306       0.01970875
H        6.51539416       3.28375030       5.95462653       0.01203590       0.00538643       0.00549799
H        7.31117942       3.57557823       7.51850723       0.00956830      -0.00282305       0.00805983
H        5.97403765       2.42175503       7.42255206      -0.00027797       0.00980425       0.00377291
H        8.57367669       2.37913506       4.79846049      -0.00708337      -0.01836263       0.00215638
H        9.46628848       1.09411199       5.64646143      -0.01611415      -0.02498472       0.00004872
H        9.51594824       2.75944224       6.24741059       0.00440519      -0.02529255      -0.00363292
H        8.13645168      -0.29447082       6.70647403      -0.01580751      -0.00754923       0.01971120
O        7.76771518       8.18307568       3.48147292      -0.00015485      -0.00365853       0.00862901
N        7.43160645      10.31845730       2.72164244      -0.00321913      -0.00229183       0.01440725
C        6.07360494      10.12135201       2.23898481       0.00176728      -0.00554871       0.00287798
C        7.97773674      11.65407649       2.59250360      -0.00853051       0.00085163       0.02563448
C        8.12859289       9.34662411       3.31136953      -0.00354627      -0.00190413       0.01600739
H        6.02022711      10.35234007       1.17368467       0.00919417       0.00050150       0.00393665
H        5.39848192      10.77285653       2.79588340      -0.00518489      -0.01118913       0.00071579
H        5.78893896       9.09045134       2.42190735       0.00427265      -0.00756571      -0.00500107
H        7.88367805      12.00042129       1.56063413      -0.00424149       0.00543097       0.02725387
H        9.02918740      11.65035299       2.87905846      -0.00990647       0.00439978       0.02972659
H        7.43428719      12.35528718       3.23234926      -0.01466760      -0.00566620       0.02723458
H        9.12948472       9.68797799       3.62932529      -0.00758791       0.00106645       0.02476987
O        6.10640475       3.67491691      10.19486194       0.00936031       0.01329732       0.00333320
N        3.90147106       3.10814332      10.09368571       0.01349783      -0.00148521      -0.00386632
C        3.48458495       4.43287429       9.69560979       0.00584894      -0.00534328      -0.00830687
C        2.88575462       2.08175816      10.15025758       0.02070869      -0.00889151      -0.00493932
C        5.21975219       2.83904408      10.29411755       0.01405478       0.00799507       0.00111914
H        2.71831882       4.81901497      10.37202075       0.00244887      -0.00794844      -0.01078671
H        3.06585819       4.41977167       8.68506565       0.00747074      -0.01131521      -0.00880933
H        4.35288035       5.08541878       9.72311470       0.00175250      -0.00005214      -0.00894245
H        2.10249820       2.35111775      10.86733430       0.01599090      -0.01321255      -0.00907081
H        3.30986205       1.12760075      10.45442127       0.02683786      -0.00448868      -0.00039670
H        2.40254515       1.95447182       9.17651658       0.02598630      -0.01545804      -0.00658089
H        5.41867445       1.78996187      10.55939510       0.01912609       0.00961727       0.00288065
O        1.22544721       3.78092134       3.39707333      -0.00316978      -0.00733173      -0.00893331
N        2.58086950       2.99985416       1.71808645       0.00184867      -0.00923517      -0.00381168
C        2.44943234       4.23183798       0.94909659      -0.00588283      -0.01523158      -0.01174584
C        3.76163193       2.17935185       1.42251719       0.00723603      -0.00331640       0.00215219
C        2.03704248       2.97617550       2.98296012       0.00246102      -0.00424176      -0.00358331
H        2.08356631       4.02806786      -0.05731634      -0.00258335      -0.02482729      -0.01093686
H        3.42320237       4.72169074       0.86577751      -0.00956365      -0.00849137      -0.01302108
H        1.75762526       4.89263704       1.46597405      -0.01098874      -0.01672967      -0.01684569
H        3.69700888       1.76891678       0.41388180       0.01184854      -0.00861647       0.00411013
H        3.82112072       1.35385131       2.12905896       0.00974054       0.00027400       0.00581574
H        4.67468387       2.77676089       1.49315682       0.00360841       0.00233200       0.00187765
H        2.39236733       2.12508446       3.57881903       0.00898844       0.00296623       0.00261351
O        7.02316411       3.61381278       3.44698514       0.00418609       0.00985777       0.00540584
N        5.59050242       5.17202160       4.30721911      -0.00139195       0.00419526       0.00664028
C        4.48074170       4.26599251       4.47442031       0.00310245      -0.00071855       0.00955575
C        5.36792161       6.55041297       4.68335861      -0.00679927       0.00350815       0.00506563
C        6.75867031       4.76176086       3.78554263      -0.00054795       0.00907218       0.00418633
H        3.60563323       4.67171970       3.96468191       0.00043091      -0.00600362       0.00987917
H        4.22716812       4.15487410       5.53213342       0.00511162      -0.00005734       0.00999525
H        4.74558324       3.29343269       4.06753700       0.00717375      -0.00005311       0.01076584
H        4.53976214       6.96541079       4.10749449      -0.00899914      -0.00043543       0.00549163
H        6.25156546       7.15088516       4.48687251      -0.00918186       0.00659114       0.00356887
H        5.11226776       6.60818785       5.74406868      -0.00583120       0.00408293       0.00532198
H        7.47564658       5.59647524       3.69389751      -0.00505012       0.01234627       0.00078007
O       11.96980102       1.86405653      11.49929315       0.01394339       0.01692694      -0.00272086
N       10.24039965       2.60847426      10.20346713       0.01167919       0.00508879      -0.00520645
C        9.78226688       1.28922090       9.80035666       0.01841131       0.00177866      -0.00146115
C        9.45529990       3.73384238       9.72247578       0.00576285      -0.00051504      -0.00778196
C       11.26930553       2.77743506      11.00735432       0.00993359       0.01186653      -0.00383902
H        9.56470750       1.31431424       8.73223150       0.02054835      -0.00375081      -0.00171024
H        8.87186975       1.04077052      10.36103059       0.01851228       0.00154934      -0.00198990
H       10.56536895       0.56706140      10.00731996       0.02043918       0.00542602       0.00368979
H        9.49120564       3.74719378       8.63081314       0.00507183      -0.00341500      -0.00776336
H        9.86779547       4.67108772      10.09057891       0.00122318       0.00252660      -0.01053369
H        8.41546729       3.61422728      10.03754835       0.00665262      -0.00411313      -0.00635323
H       11.49141876       3.83005867      11.21817358       0.00308867       0.01377752      -0.00484708
