148
Lattice="13.166981017539177 0.0 0.0 0.0 13.166981017539177 0.0 0.0 0.0 13.166981017539177" Properties=species:S:1:pos:R:3:forces:R:3 energy=-582033.5 stress="-0.0005098574911244214 0.0008811609586700797 -0.000807866599643603 0.0008811609586700797 -0.0005790856666862965 -0.0001343020485364832 -0.000807866599643603 -0.0001343020485364832 -0.0012799734249711037" pbc="T T T"
Yb      11.21115849      13.22964805       1.01095478      -0.00865196      -0.01726072       0.01368453
O        3.93720779       7.39668255       6.81567208      -0.00116825      -0.00880110       0.01821044
O        5.98668910       8.63399670       5.78855313      -0.01050961      -0.00196159       0.00742841
O        6.36066166       6.56742978       7.30999181       0.00256348       0.00279045       0.01299816
O        5.49163664       8.81402889       8.33667951      -0.00288254       0.00337899       0.00808191
Mn       5.43814696       7.85338328       7.05862238      -0.00348926      -0.00132172       0.01090974
O        1.95216690       5.68052419       2.41949704      -0.01090592      -0.01388335       0.00976416
O        3.24161833       3.65942866       1.42506838      -0.02099466      -0.01387882      -0.01850176
O        0.80774726       3.33536136       2.40514872      -0.02234769       0.00260758      -0.02494797
O        2.83490866       3.82653666       4.00193610      -0.01216376      -0.03728348      -0.01894379
Mn       2.20663829       4.11539955       2.57013160      -0.01411991      -0.01635693      -0.01307480
O        1.62831033      11.21592475       1.66942186      -0.01364803      -0.03149444      -0.00266284
O        0.23366650      13.47461620       1.57930026       0.00561275      -0.01867163      -0.03623632
O        0.39192544      12.06678494       3.81753626       0.02787545       0.03992453      -0.00837183
O       -1.04907356      11.28098030       1.74926792      -0.00747758      -0.00643364       0.03520675
Mn       0.37289619      11.97281082       2.23943833       0.00366408      -0.00376645      -0.00449476
C       12.57277509      10.90699079      11.19942914       0.00870320       0.01554714       0.01852015
C       11.76973552      10.00359234      11.88602976       0.00854168       0.01025558       0.01172393
C       12.14087750      12.21661686      11.01339181       0.00570948       0.01435928       0.02069751
C       10.53665606      10.39776017      12.39193066       0.00253952       0.00406131       0.00306182
C       10.89155916      12.61299707      11.49328796      -0.00185503       0.00645598       0.00797463
C       10.08471321      11.69924303      12.19270240      -0.00397231       0.00016517      -0.00320049
H       13.52397705      10.58516113      10.79419503       0.01289584       0.01991068       0.02592663
H       12.11075927       8.98719287      12.02486019       0.01386112       0.01291713       0.01534333
H       12.76013832      12.91411823      10.46474505       0.01033885       0.01978800       0.03161571
H        9.91870818       9.69147100      12.92912372       0.00457598       0.00070503       0.00118329
H       10.51712119      13.60668602      11.26592137      -0.00266756       0.00675371       0.01168836
H        9.09071103      11.97748904      12.53300811      -0.00990403      -0.00684709      -0.01384261
C        8.95465977       8.37403146       6.88607570      -0.00163299       0.00013024       0.00763292
C        9.79239595       8.04730934       7.94434317      -0.00634740       0.00522485       0.00623745
C        8.84383686       9.69408877       6.46531958      -0.00683472       0.00298857       0.00532992
C       10.51989372       9.04088554       8.58581386      -0.00975791       0.00409110       0.01193604
C        9.57914072      10.68772635       7.10242926      -0.01008727       0.00225864       0.01068109
C       10.41432086      10.36191620       8.16416161      -0.01474720       0.00724737       0.00938644
H        8.36270105       7.60108533       6.41792451       0.00093842       0.00021315       0.00319850
H        9.86392952       7.01666156       8.27056334      -0.00261583       0.00320137       0.00773104
H        8.15748171       9.93772540       5.66466979      -0.00402236      -0.00050423       0.00476624
H       11.18699179       8.79006874       9.39998343      -0.01274942       0.00752461       0.01226704
H        9.49658227      11.71959563       6.78053599      -0.01366210       0.00381507       0.00852385
H       11.00170497      11.12922460       8.65121010      -0.01687670       0.00699998       0.01377715
C        3.09702117      10.88935561       4.40459993       0.01105452      -0.00376368      -0.00243519
C        2.34649593       9.71908032       4.37184238       0.00787139      -0.00188091      -0.00351481
C        4.38302245      10.90341329       3.87997683       0.00968637      -0.00611152      -0.00432903
C        2.87499512       8.56338623       3.81159578       0.00462000      -0.00239947      -0.00706977
C        4.91279701       9.74839568       3.32008342       0.00657475      -0.00685700      -0.00660771
C        4.15714446       8.58265400       3.28053743       0.00346360      -0.00425184      -0.00780009
H        2.67667960      11.78697925       4.83679864       0.01363942      -0.00320794      -0.00029088
H        1.34687990       9.71269694       4.78358537       0.00873485       0.00001193      -0.00170075
H        4.96971469      11.81427046       3.92075353       0.01302537      -0.00837535      -0.00404439
H        2.29548694       7.64975788       3.76999012       0.00576085      -0.00274390      -0.01191584
H        5.92219473       9.74466878       2.92827575       0.00558844      -0.00921810      -0.00708691
H        4.56526804       7.68337531       2.84283056       0.00097027      -0.00473480      -0.00957488
C        9.94257152       2.30494527       1.96734416       0.02390957       0.01162326      -0.00485417
C       11.01385284       2.07807794       2.84337549       0.02304076       0.01370171      -0.00466853
C        8.88404794       1.38825915       1.88766461       0.02689776       0.00564588      -0.01158460
C       11.01386579       0.92510206       3.63942644       0.02538532       0.01245555      -0.00682807
C        8.90247924       0.23066411       2.67309344       0.03254309       0.00035080      -0.01936583
C        9.96945864      -0.00055114       3.54933443       0.02947184       0.00466963      -0.01493491
H        9.90924764       3.20791601       1.37092459       0.02451892       0.01311550      -0.00057148
H       11.85862243       2.76306246       2.89674819       0.01906151       0.01709406      -0.00677717
H        8.03928773       1.59454071       1.24410769       0.02736865       0.00511100      -0.00889139
H       11.84141048       0.73789905       4.30938337       0.02132460       0.01679489      -0.00323303
H        8.06906578      -0.46025035       2.63799333       0.03572503      -0.00608785      -0.02405347
H        9.98233570      -0.88924491       4.16754576       0.03298399       0.00542706      -0.01701109
C        8.11354225       7.22774441       3.45244152      -0.00179375      -0.00410236      -0.00190686
C        8.31346364       7.18488117       2.07802016      -0.00437622      -0.00320481       0.00477259
C        7.10117075       6.47010891       4.03077736      -0.00071292      -0.00218549       0.00640184
C        7.49326561       6.39198081       1.28304190      -0.00691752      -0.00410957       0.00050756
C        6.26956870       5.69255081       3.23418552      -0.00223063      -0.00399049       0.00182316
C        6.46320716       5.65452965       1.85890220      -0.00505678      -0.00322948       0.00849430
H        8.74913890       7.84489615       4.07517398      -0.00008849      -0.00304053       0.00053054
H        9.11173788       7.76418208       1.62785324      -0.00521601      -0.00422047      -0.00081208
H        6.95588400       6.47362880       5.10247481      -0.00007765      -0.00077538       0.00286156
H        7.65625272       6.35777609       0.21384815      -0.00938150      -0.00320969       0.00334255
H        5.45866611       5.12826199       3.68020952      -0.00151886      -0.00307155       0.00766598
H        5.79609429       5.05621298       1.25292646      -0.00634223      -0.00390179       0.00558037
C        6.33520247       1.70854776      12.31487345      -0.00515790      -0.00075227      -0.00099714
C        7.60036044       1.44776331      11.79849067      -0.00769066       0.00147747      -0.00951031
C        5.89046720       3.01622950      12.45422722      -0.00658165      -0.00157902       0.00029014
C        8.43972379       2.50166250      11.45288251      -0.01308310       0.00272405      -0.01693596
C        6.71562444       4.06458787      12.06443387      -0.01186252      -0.00059292      -0.00568776
C        7.99595254       3.81283525      11.58717758      -0.01437576       0.00169620      -0.01488233
H        5.68702604       0.89045591      12.59607402      -0.00101949      -0.00176485       0.00412026
H        7.91718475       0.42067377      11.65907625      -0.00678978       0.00210828      -0.01071676
H        4.90891706       3.21072659      12.87352510      -0.00486779      -0.00339341       0.00635003
H        9.43171327       2.31374363      11.05823823      -0.01552194       0.00444854      -0.02437467
H        6.35371918       5.08195456      12.13150318      -0.01280859      -0.00113305      -0.00374853
H        8.64394508       4.63370695      11.30486450      -0.01869125       0.00265433      -0.02067339
C        8.01997016       2.45351361       5.88186574       0.01170406      -0.01075586       0.01084704
C        8.28156634       3.31670270       4.82749501       0.00520945      -0.00821060       0.00775972
C        8.80685717       2.50092639       7.02768120       0.01288380      -0.01277693       0.00401993
C        9.32757381       4.22804848       4.91621833       0.00773257      -0.00818190       0.00955914
C        9.84150360       3.42252713       7.12340938       0.01564598      -0.01275525       0.00538807
C       10.10234356       4.28807700       6.06648940       0.00921142      -0.01070495       0.00219116
H        7.18825626       1.76269564       5.82469044       0.01067531      -0.01098743       0.00996855
H        7.66210199       3.29764506       3.94079393       0.00374934      -0.00745107       0.01204053
H        8.59329272       1.83608505       7.85525845       0.01780231      -0.01530660       0.00514001
H        9.52046207       4.90403161       4.09436143       0.00288549      -0.00634807       0.00758128
H       10.43636355       3.47741078       8.02697261       0.01844063      -0.01468992       0.00052135
H       10.89988890       5.01618227       6.14358784       0.01196804      -0.01174279       0.00242829
C        3.06450576       8.32364818       0.07261620      -0.01346670       0.00041386      -0.00224825
C        3.74675847       7.16034732      -0.26287342      -0.00977848      -0.00565450      -0.01478658
C        1.67538890       8.34492001       0.05000521      -0.01428019      -0.01951113       0.00298548
C        3.04439606       6.01635456      -0.61883656      -0.00195070       0.00574014      -0.01174192
C        0.97428890       7.19705494      -0.29848572      -0.00654551      -0.00835153       0.00584456
C        1.65517983       6.03378546      -0.63160740      -0.00290862      -0.01431271      -0.00713561
H        3.61060646       9.20394236       0.38327338      -0.01733621      -0.00316423      -0.00366054
H        4.82870506       7.14503121      -0.21396522      -0.00678049       0.00795639      -0.01946713
H        1.15517377       9.24779484       0.34336328      -0.01737431      -0.01667547       0.01431092
H        3.56707143       5.09689560      -0.84286285       0.00162818       0.00144711      -0.02251560
H       -0.10829860       7.18868736      -0.26576278      -0.00888309      -0.02189052       0.00931057
H        1.10727581       5.12762909      -0.85419738       0.00149171      -0.01023403      -0.00731711
C        5.95017319       9.42884031      11.22307907       0.01843726       0.01065977       0.00151098
C        6.92731406       9.33039807      12.20306253       0.01606664       0.01340288       0.01739866
C        5.01808832      10.45762869      11.28333275       0.01790686       0.01020479       0.01044980
C        6.97713363      10.25674348      13.23935368       0.00074860       0.00178789       0.01382250
C        5.06856727      11.39056039      12.31032656       0.00063664      -0.00316668       0.00789242
C        6.05191019      11.29322955      13.28911755      -0.00205309      -0.00117242       0.02319396
H        5.90203423       8.71878293      10.40809437       0.02901380       0.01758491       0.00233585
H        7.64309683       8.51875051      12.16232069       0.01866652       0.01423154       0.01122471
H        4.23518161      10.51122054      10.54089178       0.02210195       0.00999917      -0.00329006
H        7.72210148      10.15649417      14.02032909      -0.00112480       0.00336568       0.02334249
H        4.32430546      12.17526846      12.36392983      -0.00219639      -0.00455815       0.01425862
H        6.07453042      12.00636386      14.10392840      -0.01511394      -0.00968871       0.02501222
C        2.54628558       9.33868203       8.53340677       0.00161485      -0.00229034       0.00606871
C        1.35116667       8.78885961       8.08893049      -0.02500078       0.02273759      -0.01216715
C        2.82271237      10.67877495       8.29145128      -0.02594779       0.01780593      -0.01123665
C        0.42963523       9.58023189       7.41643592       0.00939564      -0.00503349       0.01405079
C        1.88658472      11.48064290       7.64817404       0.00833707      -0.01013072       0.01040249
C        0.68684839      10.93173351       7.21220605      -0.01637909       0.01298535      -0.00688422
H        3.28419303       8.72089960       9.02579100      -0.01074967       0.00726631      -0.00398157
H        1.16419411       7.73184079       8.22848618      -0.01018447       0.00108974       0.00279003
H        3.79111358      11.07680224       8.56327217      -0.00224145       0.00616467       0.00140077
H       -0.48051934       9.14309244       7.03136237      -0.01826556       0.00776719       0.00423744
H        2.11199929      12.52131745       7.44743957      -0.00547542       0.00989203      -0.00442255
H       -0.02455367      11.53949759       6.66679014      -0.00512341       0.00512646       0.00277783
C        5.60871931       1.69490202       8.91787386      -0.01136123       0.00436534      -0.00950671
C        4.29538553       1.24599090       8.84171578      -0.01280547       0.00477768      -0.00409577
C        5.89004884       3.04666188       8.76142370      -0.01252158       0.00386312      -0.01860434
C        3.26764095       2.15128831       8.60267716      -0.01206189       0.00270769      -0.00625971
C        4.86456674       3.95188732       8.51685257      -0.01180550       0.00189006      -0.02029871
C        3.55243875       3.50218072       8.43589302      -0.01330316       0.00233603      -0.01451910
H        6.40718015       0.98883487       9.11121750      -0.01204904       0.00552316      -0.00733408
H        4.07434067       0.19412475       8.97213683      -0.01195340       0.00538804       0.00279113
H        6.90845996       3.40344762       8.82782626      -0.01159576       0.00372680      -0.02403081
H        2.24414913       1.80219667       8.54066455      -0.01284592       0.00284094      -0.00192919
H        5.10150160       4.99787486       8.36826382      -0.01264551       0.00137761      -0.02638164
H        2.75607517       4.20714479       8.23632497      -0.01262975       0.00124992      -0.01560354
