145
Lattice="10.825771656275826 0.0 0.0 0.0 10.825771656275826 0.0 0.0 0.0 10.825771656275826" Properties=species:S:1:pos:R:3:forces:R:3 energy=-189782.765625 stress="-0.0053388811647892 -0.0007448699325323105 -0.00032074653427116573 -0.0007448699325323105 -0.004774743691086769 -0.0009288032306358218 -0.00032074653427116573 -0.0009288032306358218 -0.007002053316682577" pbc="T T T"
N        1.22900578       6.05684634       7.44840412      -0.00385329      -0.01164448      -0.00290652
N        1.75491830       4.06852685       6.77445265      -0.00107455      -0.01157957       0.00172022
C        1.30687289       7.50061435       7.69687639      -0.00451685      -0.01175630      -0.00632621
C        2.21776806       7.82417665       8.86936115      -0.00627522      -0.00902218      -0.00621980
C        3.69899418       7.56296254       8.61644454      -0.00664759      -0.01262213      -0.00187871
C        2.06436942       5.35844474       6.68110309      -0.00221413      -0.01176822      -0.00040787
C        0.36810642       5.17999264       8.07029311      -0.00381690      -0.01100940      -0.00290835
C        0.70592782       3.93147769       7.65054650      -0.00204754      -0.01097620      -0.00003672
C        4.52854685       7.90738764       9.84176576      -0.00867902      -0.01032980      -0.00155815
C        2.51718099       2.98046888       6.18791878       0.00060993      -0.01086366       0.00369462
H        1.66134026       7.97019375       6.77676733      -0.00371334      -0.01441501      -0.00688499
H        0.28838627       7.83814124       7.89016208      -0.00425977      -0.01106232      -0.00809493
H        1.89059814       7.24202753       9.73423509      -0.00902012      -0.00529233      -0.00520405
H        2.06515970       8.87299272       9.13849082      -0.00521874      -0.00810778      -0.01052240
H        3.85120047       6.51445043       8.33746081      -0.00764178      -0.01333442       0.00216801
H        4.02813782       8.18335416       7.77550520      -0.00403699      -0.01654729      -0.00337905
H        2.81822168       5.76879952       6.03659826      -0.00482200      -0.01183094      -0.00304718
H       -0.40953333       5.50689934       8.73484511      -0.00535723      -0.01184025      -0.00477822
H        0.28966463       2.97276854       7.89718731      -0.00206085      -0.01037281       0.00045228
H        4.15014208       7.39180779      10.72617330      -0.01245736      -0.00545722      -0.00090139
H        4.47673908       8.97126476      10.04835230      -0.00502840      -0.00972661      -0.00573453
H        5.58784800       7.65958604       9.73282798      -0.00977124      -0.01524578       0.00216849
H        3.15784045       3.38409720       5.40937841      -0.00448272      -0.01185177      -0.00057237
H        3.12497012       2.52006477       6.96261291       0.00564544      -0.00457685       0.00294563
H        1.83522028       2.25607432       5.75053322       0.00212575      -0.01560403       0.00997577
N        8.14185116       8.18498374       3.35441680       0.01418072       0.00770423      -0.01433441
N        9.35478051       9.34853170       4.71126999       0.01920664       0.01124945      -0.00795019
C        7.10296741       7.30728880       2.80684683       0.00771654       0.00616316       0.00289655
C        7.39398621       5.82522855       2.94996787       0.00678763       0.00679946       0.00051585
C        7.51804612       5.38279674       4.39757549       0.00752664       0.00764912       0.00072512
C        8.29863481       8.53190643       4.63598992       0.00436473       0.00152758       0.00616568
C        9.10344004       8.80623343       2.60232547       0.02382851       0.02544504       0.03458017
C        9.86641568       9.53862941       3.45242590      -0.02125740      -0.01921743      -0.01706845
C        7.47820668       3.87620155       4.56331934      -0.00857924       0.00850171       0.00251454
C        9.89213212       9.94732206       5.91911136       0.00518060       0.00195748       0.00090992
H        6.17580609       7.56461491       3.31893733       0.00890625       0.00711077      -0.00237504
H        7.00556056       7.58235475       1.75847979       0.01034850       0.00562328      -0.00118846
H        8.28330021       5.55487057       2.38406111       0.00511563       0.00441121       0.00046928
H        6.57486497       5.29047228       2.46008338       0.00541413       0.00768986       0.00284116
H        8.46118522       5.76320940       4.79970430       0.01271689      -0.00271783      -0.00231509
H        6.72126749       5.84684890       4.98930729       0.01448244       0.01550362       0.00304903
H        7.69193290       8.20869371       5.46838620       0.01176124       0.00398770      -0.00309008
H        9.16983436       8.64999138       1.54310265       0.00538529       0.00721028      -0.00661973
H       10.70120567      10.18884732       3.26627265       0.01237615       0.00915090       0.00150230
H        8.21712246       3.41191015       3.91738626      -0.01782520      -0.00071917      -0.00087249
H        6.50774730       3.45621177       4.29274898      -0.01456331       0.01992245       0.00784726
H        7.69025397       3.58587830       5.59315808      -0.00693473       0.00705493       0.00149879
H        9.46500834       9.45502479       6.78879943       0.01074326       0.00260985      -0.00119798
H       10.97327651       9.81802881       5.92181289       0.00826001       0.00670831      -0.00185338
H        9.65702611      11.00995527       5.94085108       0.00543094       0.00310382       0.00100297
O        6.81022176       0.87801858       0.03051125      -0.00034809      -0.00023240      -0.00051719
O        7.34691768       0.71905360       2.88719443       0.00238380       0.00866616      -0.00147581
O        8.25621205       3.04229698       1.29920206      -0.00139517       0.00443852      -0.00922351
O        9.46643582       0.47679226       0.96412075       0.00066209       0.00630546      -0.00174788
Mo       7.95821662       1.27540112       1.30432281      -0.00039975       0.00527546      -0.00282148
O        3.82855803      10.24279723       5.49876571       0.00790227       0.00596440      -0.00457421
C        4.20650172       8.91524916       5.17030308       0.01327953       0.00624654       0.00257950
H        3.35263175       8.25845740       5.34086921       0.01919556       0.00252080       0.01455729
H        5.04202842       8.57662618       5.79115226       0.01974356       0.01638726      -0.00146168
H        4.48253194       8.82252438       4.11725655       0.00600798      -0.00024480       0.00161523
H        4.62779459      10.82236784       5.29635444       0.00606190       0.00796688      -0.00548328
O        5.97261017      -0.30748648       8.71647632      -0.00373089      -0.00747663       0.00476545
C        4.76257077       0.40799169       8.58975979      -0.00324905      -0.00743398       0.00389740
H        4.83455024       1.19996966       7.83280571      -0.00015977      -0.00166908       0.01093301
H        4.48969790       0.87746736       9.53928594      -0.00891522      -0.01510717       0.00564834
H        3.96068871      -0.26538155       8.27677211      -0.00019550      -0.00584549      -0.00556043
H        6.41421100       0.08166867       9.51701689      -0.00223148      -0.00440196       0.00202152
O        9.29032240       6.76217247       0.31482148       0.00389910       0.00360706      -0.00122261
C       10.23275256       5.70655567       0.48717245       0.00421834       0.00505707       0.00076860
H       10.34243917       5.52760379       1.55473008       0.00665581       0.00918368       0.00097236
H       11.21807419       5.96861245       0.09281802       0.00301313       0.00373909      -0.00227836
H        9.89003073       4.78153171       0.02215123       0.00430891       0.00327560       0.00514469
H        9.26750001       7.04974303      -0.61174145       0.00603189       0.00381689      -0.00096329
O       10.43453130       3.45760754       2.83749181      -0.00852390       0.00697184       0.00458515
C       10.48349267       2.20521299       3.48355810      -0.00639725       0.00836664       0.00636661
H       10.98054362       1.45046151       2.86929171      -0.00691420       0.00808206       0.00710428
H        9.48518164       1.82181081       3.72962396      -0.00524181       0.00778712       0.00846311
H       11.03722394       2.32312127       4.41820256      -0.00480129       0.01077788       0.00478509
H        9.70366363       3.39523215       2.17803343      -0.00544463       0.00459860       0.00206374
O        5.84672227       0.88063376       4.88041158       0.00517786       0.00768459      -0.00028512
C        6.83940389       0.90785853       5.89448616       0.00063822       0.00579084       0.00325671
H        6.61223718       1.69095162       6.61822460      -0.00341792       0.00296775       0.00443867
H        7.80772443       1.12587621       5.44118172       0.00220054       0.00854770       0.00860344
H        6.88513711      -0.03768988       6.44308361       0.00016209       0.00434446       0.00029591
H        6.35923644       0.81086313       3.99653837       0.00686714       0.00836848       0.00070042
O        4.06002465      10.39272385       1.22766058      -0.00888509      -0.00847626      -0.00520533
C        5.14598196       9.57226036       1.62101975      -0.00184768       0.00124033      -0.00560106
H        4.80528221       8.54769503       1.79446388       0.00619026      -0.00015974      -0.00070611
H        5.64212695       9.96268046       2.51346946      -0.00225930       0.00813492      -0.00883108
H        5.87343334       9.58765425       0.81393512      -0.00503929       0.00331957      -0.00791916
H        3.44018332      10.42156499       1.97114795      -0.00749441      -0.01195990      -0.00468408
O        1.79990938      -0.09981770      10.59475393      -0.00711498      -0.00676531      -0.00613642
C        1.46585079       0.91460675       9.67057292      -0.00815561      -0.00245491      -0.00024211
H        2.23930565       1.68452245       9.59609250      -0.01248792       0.00217333       0.00985173
H        0.53042614       1.37045596      10.00277240      -0.01205501      -0.01080622      -0.00134698
H        1.31530474       0.49928805       8.66183136      -0.00059749       0.00420548      -0.00359076
H        2.75578801      -0.12905928      10.75717009      -0.00741463      -0.00641467      -0.00665349
O        2.38950142       0.20041692       3.45641916      -0.00715164      -0.00542551       0.00620702
C        2.76669972       1.49767555       2.98020451      -0.00760242      -0.00918473      -0.00219195
H        2.44558518       1.56224940       1.94375908      -0.01695871      -0.01185676       0.00090894
H        3.85016406       1.63435677       3.03004249      -0.00713083      -0.01260125      -0.01276663
H        2.26765632       2.28891795       3.53676703       0.00039244      -0.00590321      -0.00024346
H        2.90192108      -0.01067991       4.28366653       0.00011776      -0.00344270       0.00225739
O        2.62434313       5.74605925       3.80066317       0.01237273       0.02169767       0.00830912
C        4.00062657       5.65846735       3.50822311       0.00820467       0.00515600      -0.00250582
H        4.62053560       6.13684604       4.27807743       0.02075751      -0.00808135      -0.00502834
H        4.24671364       6.13347588       2.54989318       0.00698973       0.00668402      -0.00154123
H        4.28071051       4.60532901       3.45550118      -0.00690369       0.00204125      -0.01060274
H        2.35899233       6.66975460       3.62573707       0.01729044       0.02173415      -0.00052185
O        8.23131027       3.88119462       9.61031896       0.02213380      -0.00835341      -0.01778141
C        8.47079263       2.72563821       8.84011850       0.00509736      -0.01510155      -0.01227570
H        7.60403349       2.05812457       8.80513419       0.00192088      -0.01082593       0.00577211
H        9.31274766       2.14034231       9.23472863       0.00752562      -0.01646936      -0.02084845
H        8.70985875       3.04460140       7.82147230      -0.00861611      -0.02331373      -0.01732111
H        8.17372091       3.60863350      10.56447154       0.01534019      -0.00315215      -0.01734020
O        6.97467008       7.32054517       7.29931810       0.00323051       0.01603862       0.00064912
C        7.59074451       6.04421424       7.55254053      -0.01557099       0.00908754       0.00790496
H        7.00962547       5.23180965       7.11962650      -0.02646744       0.01530324       0.01186068
H        7.72880139       5.85576340       8.61515682      -0.01780390       0.01341771       0.00844407
H        8.56313961       6.07414470       7.06509988      -0.01514833      -0.00739021       0.00864007
H        6.12492591       7.35054270       7.75298379       0.00438488       0.03222366       0.00144020
O        2.96130303       5.11416165       0.08106283      -0.01109749      -0.00742519       0.00240529
C        2.67328856       3.94695172       0.87007401      -0.02021251      -0.00017625       0.00838447
H        3.57634482       3.34634316       1.00318381      -0.02826107      -0.01291382       0.00109939
H        1.94390877       3.36785317       0.30983956      -0.03443544       0.00960302       0.01796390
H        2.24015692       4.22016468       1.83247445      -0.00642416       0.00813590       0.01163286
H        3.72308539       5.55369544       0.47076055      -0.01157025      -0.00851940       0.00361216
O        9.07312061       8.29056751       8.76705173       0.00623301       0.00431815      -0.00008011
C        9.06200735       9.48286119       9.56516132       0.00495816       0.00301297       0.00082834
H        8.28545684       9.44113849      10.32900688       0.00381830       0.00249035      -0.00084403
H        8.87811218      10.37197991       8.95658385       0.00613548       0.00334445       0.00153172
H       10.02864724       9.57368858      10.05298577       0.00386703       0.00252165       0.00221230
H        8.19951202       8.18385935       8.34909589       0.00748175       0.00587089      -0.00249033
O        2.19453380       8.26064057       2.88288802       0.00197777       0.00599915       0.00026473
C        1.43099250       7.91609484       1.72126713       0.01127903       0.01494610      -0.00778645
H        1.28111906       8.77916082       1.07150219       0.02310365       0.01865920      -0.00486936
H        0.46680181       7.50624016       2.01428491       0.00625816       0.02010146      -0.01913951
H        1.97897623       7.14528397       1.18152050       0.01183133       0.01450869      -0.00544246
H        2.09206017       9.20884712       3.05776072       0.00077695       0.00477044       0.00572227
O        3.92523517       4.00482853       8.62372267       0.00356078      -0.01327807       0.00918595
C        5.28227444       3.90879363       9.03606464       0.00292408      -0.01225433       0.01047970
H        5.42637618       3.19680520       9.85454299       0.00334641      -0.01521689       0.00745434
H        5.68356199       4.88002390       9.34339901       0.00060634      -0.01289028       0.01415542
H        5.86412152       3.56063484       8.18514946       0.00425819      -0.00736752       0.00992760
H        3.45359053       4.42718221       9.36507826       0.00133882      -0.01448005       0.00806392
