149
Lattice="10.717752466811788 0.0 0.0 0.0 10.717752466811788 0.0 0.0 0.0 10.717752466811788" Properties=species:S:1:pos:R:3:forces:R:3 energy=-105158.828125 stress="-0.0007801784668117762 -0.0001592299886397086 0.0003172956785419956 -0.0001592299886397086 0.0005415772320702672 0.00021851560450159013 0.0003172956785419956 0.00021851560450159013 -0.0032024288084357977" pbc="T T T"
N        5.27437445       3.17285823       5.29992755       0.00732458      -0.00775522       0.00558156
N        6.49001539       1.59573006       6.14970467      -0.00340644       0.00095642       0.00285344
C        4.81136532       4.21382138       4.37039526       0.00338817      -0.00316272       0.00373235
C        5.28426608       5.62614524       4.69220264       0.00454906      -0.00293988       0.00187160
C        6.78798119       5.81108916       4.85281696       0.00435215      -0.00153184       0.00284996
C        6.43518506       2.52156701       5.19256945      -0.01436961      -0.01007657       0.02427757
C        4.56570041       2.63714036       6.34957837       0.01311225      -0.01266280       0.00440699
C        5.33407668       1.65295529       6.88716338      -0.00776708       0.00850269      -0.00383967
C        7.15357375       7.25497818       5.17691833       0.00178216       0.00052810      -0.00165768
C        7.56105050       0.62552955       6.33517355      -0.00561827      -0.01078641       0.00987350
H        5.16053711       3.89108878       3.39327057       0.00582346      -0.00441745       0.00360093
H        3.72646836       4.16325066       4.38111435       0.00521004      -0.00218019       0.00212706
H        4.76502270       6.00476079       5.57299972       0.00331910      -0.00106777       0.00090188
H        4.90804571       6.26158694       3.88156479       0.00558411      -0.00540005      -0.00086823
H        7.16374103       5.15710554       5.64786969       0.00471069       0.00156006       0.00513074
H        7.30320758       5.49488958       3.93840964       0.00515057      -0.00353492       0.00363916
H        7.18374079       2.69221570       4.44204758       0.00892598      -0.00533113       0.00256453
H        3.55353281       2.93281999       6.55637249      -0.01039659      -0.00132368      -0.00005621
H        5.14817767       0.97043738       7.69690478      -0.00697712      -0.00591671       0.01031488
H        6.69751129       7.57039789       6.11954362      -0.00044647       0.00307771      -0.00357051
H        6.80558476       7.93280482       4.39565337       0.00321761      -0.00269888      -0.00457141
H        8.23354167       7.37270420       5.27289233       0.00152072       0.00196393      -0.00000368
H        7.87354985       0.24987065       5.36556678      -0.01110103      -0.01449826       0.00861299
H        8.40492220       1.09958147       6.82979804      -0.00161138      -0.01183559       0.00309382
H        7.17746135      -0.18945318       6.94265116      -0.00768252      -0.00472917       0.01199272
N        3.28956199       4.92251818       8.29310027       0.00498059       0.00223666       0.00828138
N        5.19874202       4.27619623       9.08862168       0.01891226       0.00016923       0.00947748
C        2.27060114       5.53344398       7.42450943       0.01076677      -0.00025954       0.00621101
C        2.16876345       7.03570103       7.60153333       0.00772709       0.00031230       0.00087604
C        3.34504501       7.81288369       7.02164828       0.00488377       0.00319979      -0.00090200
C        4.61230092       5.00110497       8.14317208       0.02156851       0.01725286      -0.01610982
C        3.02968625       4.12664576       9.38109249      -0.01984432       0.00563523       0.00841993
C        4.22830390       3.71659168       9.87838052       0.02991766      -0.01137742       0.03030658
C        3.44832786       9.24425378       7.51674810      -0.00912012       0.00672615      -0.00722134
C        6.62489660       3.99882452       9.14299114       0.00912791       0.00451048       0.00356521
H        2.50145360       5.25970757       6.39309306       0.00816520      -0.00392659       0.00713748
H        1.33402299       5.04272590       7.68262297       0.00905618       0.00013350       0.00962327
H        2.05133336       7.22877262       8.66510148       0.00697361       0.00425510       0.00029829
H        1.24358590       7.35107928       7.11520840       0.00675353      -0.00448877      -0.00070865
H        4.28648776       7.32736784       7.28284562       0.00772363       0.01078917       0.00389768
H        3.27936174       7.79819072       5.92878798       0.00690623      -0.00341155      -0.00115785
H        5.14200837       5.53602107       7.38071483       0.00089207      -0.00395818       0.01260545
H        2.02299908       3.92789578       9.70166627       0.02255095       0.00516685       0.00922447
H        4.48511575       3.10671648      10.72463275       0.01108172       0.01640001       0.00120707
H        3.72295821       9.27271168       8.57050549      -0.00646740       0.01479032      -0.00785580
H        2.51493872       9.78952581       7.38290030      -0.01603957      -0.00498644      -0.00698601
H        4.21720267       9.77108132       6.95302010      -0.01696110       0.01214796      -0.01234034
H        7.16973343       4.81971966       8.68593485       0.00905479       0.00586236       0.00554048
H        6.93016735       3.87918813      10.17464284       0.01050838       0.00231330       0.00502050
H        6.83770383       3.07636477       8.60556628       0.01239090       0.00518891       0.00229537
P        7.22314011       1.74741490       1.81325576      -0.01022251       0.00530829      -0.00898182
O        7.28645687       1.36261279       0.23070923      -0.01040223       0.00840545      -0.00927448
O        7.13168317       0.42953669       2.58847407      -0.01214128       0.00034541      -0.01339155
O        5.98189472       2.61939215       1.96524612      -0.00614494       0.00378901      -0.00256145
O        8.53127016       2.47620910       2.11442399      -0.00892562       0.00487834      -0.00724403
H        6.37230191       1.08367672      -0.05933056      -0.01038370      -0.00111128      -0.00635503
O        4.93753627      -0.09051008       4.12661421       0.00727028      -0.01027400      -0.00323611
H        5.75675013       0.20186112       3.67317757      -0.00040020      -0.00134110      -0.01627726
H        4.43172462      -0.48048136       3.39035309       0.00533545      -0.01632316       0.00263602
O        0.32475050       6.59589947       4.49568826      -0.00671802      -0.01793417       0.00317232
H        0.52567324       7.53991889       4.39822975       0.00149807      -0.01962342      -0.00174803
H       -0.16166040       6.30699964       3.70753270      -0.00403173      -0.01912718       0.00248236
O        4.04274983      -1.14695640       1.70017101       0.00424019      -0.00100431      -0.00469097
H        4.88549544      -1.66697563       1.71300070       0.00167396      -0.00907180      -0.01271458
H        3.36511159      -1.81012192       1.52638797       0.00095262       0.01378396      -0.02193432
O        8.28813818       9.90738393       9.71582218      -0.00468498       0.00480363       0.01406366
H        8.02101526      10.69763879      10.23132115      -0.01568194       0.00293270       0.01489186
H        8.78714750       9.32756687      10.34863657       0.00045768       0.01148167       0.01474228
O        9.53617470       8.23829440       0.63256742       0.00621644       0.00681615       0.01324813
H       10.41983132       7.88005458       0.43653090       0.00533617       0.02070338       0.01465567
H        9.59741855       8.79378202       1.46069462       0.00011097       0.01995913       0.00937599
O        3.22192988       2.17093155       1.86346268      -0.00206953      -0.00211991      -0.00406685
H        4.19789843       2.15135277       1.97737945       0.00271764       0.00521741      -0.00700898
H        3.02112512       1.73852954       1.01106058      -0.00130413       0.00522032      -0.00341776
O        9.53346900      -0.84533969       2.67477318       0.00011311       0.02212462       0.00587517
H       10.18046925      -0.14254668       2.49662390       0.00786678       0.01358652       0.00386574
H        8.66161066      -0.38544545       2.71384389       0.00334316       0.02979844      -0.00557344
O        9.02009355       6.32948284       8.29849163      -0.01025879       0.00939382       0.00309943
H        9.15619601       6.05336813       9.22032623      -0.02736426       0.00957884       0.01536165
H        9.53425275       7.15296645       8.18886940      -0.00673854      -0.00258918       0.01205751
O        2.76867632       6.92432786       2.33267270      -0.02350628      -0.00725721      -0.01669084
H        2.42167351       7.53011340       3.00720263      -0.00126175       0.00795709      -0.00444338
H        2.47736983       6.03010426       2.60789780      -0.02195626       0.00381803      -0.00523133
O        8.52632448       5.81008920      11.12512581       0.00702894       0.01915351      -0.01810554
H        7.59220638       5.66047959      11.38885918       0.00853845       0.01512776      -0.01609621
H        8.71361735       6.76256235      11.29415196       0.00892129       0.01772469      -0.01146073
O        1.59302171       9.11005161      -0.37368045       0.00217499       0.01034138       0.00274289
H        2.36693016       8.53030272      -0.49336981      -0.00573519       0.01173772      -0.00238165
H        1.02672079       8.97738863      -1.15652737      -0.00368758       0.01371325       0.00043035
O       -0.01666203       2.88460003      11.13219915      -0.01250671       0.00686225      -0.01780942
H       -0.75417680       2.69816474      11.75573676      -0.00966438       0.00844770      -0.01797622
H        0.59296769       2.13877443      11.23550165      -0.00432957       0.00957276      -0.01145591
O        9.84275915       4.92376029       2.55149110      -0.00333780       0.00409359      -0.01021554
H        9.39564473       5.28553700       1.74344844       0.01246194       0.00857029      -0.01222115
H        9.36423273       4.08182907       2.65224839      -0.02007876       0.00599544      -0.02024943
O        2.24962924       1.02021695      10.25774339      -0.00455273       0.00444478      -0.00490730
H        2.00069917       0.06626853      10.33172598       0.00288437       0.00230403      -0.00560788
H        1.95636925       1.29583723       9.35301597      -0.00136713      -0.00001475      -0.00943602
O        1.56036052       9.15946301       4.04367288      -0.00659896      -0.01790415       0.00085780
H        1.20024888       9.70102931       3.32578822      -0.01719496      -0.02172338      -0.00491564
H        2.05427776       9.85210396       4.55969319      -0.00428511      -0.01497815      -0.01205904
O        3.93807314       7.36071137      10.29894892      -0.00359656       0.00991408       0.00472406
H        4.04615727       6.84366375      11.10552255      -0.01236838       0.01381578       0.00938024
H        4.84094711       7.51539604       9.96603965      -0.00072523       0.00129354       0.00705831
O        1.38802088       1.80641839       7.82979192      -0.01064759      -0.00538310      -0.00740224
H        1.43839313       1.14917769       7.11995987      -0.00265199      -0.00592814       0.00036585
H        0.43068663       1.92930934       8.01057701      -0.01418189      -0.00896752      -0.00724825
O        4.94560216      11.05103256      -0.48325220       0.00155556       0.00034917       0.01442722
H        4.07990304      11.44757161      -0.70037242       0.00560347       0.01846182       0.01600728
H        4.68823696      10.45856991       0.25726426       0.00731443      -0.00717807       0.00940343
O        9.67138552       2.14604256       4.52334135      -0.00525007      -0.00832452      -0.00695587
H        9.20254790       2.23964283       3.65679558      -0.00326107      -0.00507083      -0.00777646
H        9.70707311       3.01877981       4.95547437      -0.00295196      -0.00823566      -0.00766342
O        1.80626764       4.38787023       2.69959642      -0.00499327      -0.00522603      -0.00286734
H        0.85581570       4.45076528       2.45846141      -0.00610422      -0.01425231      -0.00413512
H        2.22123421       3.65248398       2.20524283      -0.00023695      -0.00755054       0.00394282
O        1.75783190       3.17560323       5.12128247       0.00291926       0.00410017      -0.00253481
H        1.00511442       3.45765044       5.66247795      -0.00517585      -0.00495212       0.00185907
H        1.67385677       3.66584954       4.27430128      -0.00075038       0.00654657       0.00550681
O        0.83502719       6.23713582      10.84623443       0.00407264       0.01354742      -0.00407729
H        0.45730706       5.40036993      11.14504162       0.00138973       0.01514227      -0.00590133
H        1.51430713       6.46008853      11.50423804      -0.00270946       0.01547705       0.00217686
O       10.06381119       4.55528920       6.02056929      -0.00220847      -0.01132077       0.01127677
H       10.35270417       5.37232967       5.56176842       0.00152315      -0.00820303       0.00681999
H        9.65159522       4.87076656       6.83938920       0.00685653      -0.01617085       0.00385626
O       -0.41964397       8.96014587       8.16466520       0.01232621       0.00410392       0.01814311
H       -0.29403578       9.47717235       7.34440460       0.01445286      -0.00110948       0.00571498
H       -1.13740304       9.44571530       8.61428642       0.01748856       0.00036080       0.01596239
O        5.96239905       5.26860799       1.24795276       0.01888654      -0.00259452       0.00292087
H        5.98815971       4.33325487       1.57219976       0.01256761      -0.00202534       0.00398283
H        5.82306058       5.83126092       2.01558005       0.03160933       0.00104065       0.00647070
O        0.87591873       0.99600560       2.72488749      -0.00703982       0.00401865       0.00169934
H        0.51072498       1.53612211       3.44648786      -0.01133968       0.00023771       0.00442159
H        1.79904850       1.28724784       2.60534708      -0.00405526      -0.00348023       0.00703179
O        9.57012133       2.34468482       8.74474464      -0.00998715      -0.02273758      -0.01399417
H        9.94563649       2.64530816       9.60977295      -0.00380667      -0.01011457      -0.01846971
H        9.05088776       1.57573968       9.00311833      -0.00830437      -0.01293799      -0.00030897
O        6.51127829       8.59029376       1.65254912      -0.00186616      -0.01929244       0.00193360
H        6.84768845       9.48520597       1.87872054      -0.00446622      -0.01708884       0.00061645
H        6.73756075       8.42328641       0.72712831       0.00784181      -0.02382660       0.00565441
O        2.63529133       0.53910675       5.30416432       0.00592354      -0.00838810      -0.01929145
H        3.55972533       0.52601981       4.97599030       0.00038612      -0.00201949      -0.01665363
H        2.27505630       1.41995090       5.09000829       0.00199947       0.00023295      -0.00808254
O        6.56743709       7.80617438       9.34662012       0.00064982       0.00640273      -0.00155325
H        7.00482857       8.68079872       9.32009074      -0.00264984       0.00509448       0.00943196
H        7.26085948       7.20118160       9.03631389       0.00693655       0.00793457      -0.00857384
O       10.54373088      10.59016066       5.92953928      -0.00049321      -0.01929197      -0.00094208
H       10.17230261      11.36533719       5.46919248      -0.00332816      -0.02316239      -0.00262272
H       10.95117807      10.06184757       5.22627456       0.00113668      -0.01825678      -0.00111722
