148
Lattice="12.217694455854593 0.0 0.0 0.0 12.217694455854593 0.0 0.0 0.0 12.217694455854593" Properties=species:S:1:pos:R:3:forces:R:3 energy=-98437.2890625 stress="-0.0027765424456447363 0.0008052275225054473 0.0008605718030594289 0.0008052275225054473 -0.0020263029728084803 0.0008714316063560545 0.0008605718030594289 0.0008714316063560545 -0.005228325724601746" pbc="T T T"
N        5.53273648       9.46348068      10.62837806       0.00510085      -0.00323939       0.00996938
N        7.32207927      10.62416896      11.00133335       0.00469679       0.00191325       0.01273673
C        4.64150334       8.38881342      10.18807343       0.01259083      -0.00861791       0.01020998
C        6.85680331       9.49128203      10.46464791       0.01059055      -0.00787032       0.01697868
C        5.14901119      10.60056876      11.28963505       0.01053533       0.00329381      -0.00397420
C        6.27371999      11.33149101      11.53356622      -0.00330210      -0.00222683      -0.00613537
C        4.47777426       7.28603938      11.21068464       0.00589149      -0.00028697       0.01799995
C        8.72127129      11.03038241      11.03566352       0.00511742      -0.00156018       0.01843484
H        3.68710077       8.85948029       9.94754096       0.01311287      -0.01140654      -0.00000234
H        5.05371460       8.00763698       9.25719161       0.01888682      -0.01479164       0.01650879
H        7.44722585       8.71608723      10.00493765       0.01140966      -0.00907095       0.02713481
H        4.11649682      10.79756212      11.50531281      -0.00043503       0.00336972      -0.01137329
H        6.42553242      12.28106471      12.01857655      -0.00127032       0.00943393      -0.01055083
H        5.42962336       6.80159419      11.43139364       0.00481145       0.00375655       0.03099440
H        3.80690124       6.53182068      10.80178623       0.01182979      -0.00538644       0.01811722
H        4.04105969       7.65717108      12.13792960      -0.00364240       0.00704549       0.01005419
H        9.20081126      10.70816589      10.11451579       0.00232939       0.02704117       0.00815976
H        8.76936510      12.11343122      11.12999239       0.00469190      -0.00357279       0.04880846
H        9.22145381      10.56493667      11.88444983       0.00678828      -0.02745277       0.00293505
N        6.22476782       9.20004710       2.33148429       0.01440057       0.00141001       0.00084862
N        4.90498656      10.90157360       2.11069567       0.01828697      -0.00479376       0.00629913
C        6.74128193       7.82334692       2.31742503       0.02034192       0.00463414       0.00994191
C        4.98852456       9.57363790       2.01272637       0.02061605       0.00446844       0.01276645
C        6.94973820      10.33096332       2.63045089       0.03660166      -0.00561953      -0.00313205
C        6.12517846      11.40395735       2.49445505       0.01870787       0.01692969      -0.00435281
C        7.80328205       7.64686272       1.25159427       0.02815548       0.00004087       0.01763743
C        3.73878812      11.69274685       1.77202423       0.02247280       0.00608382       0.01330546
H        7.13259544       7.60781253       3.31312475       0.01213807       0.00370814       0.01245528
H        5.90335424       7.14650427       2.14902678       0.02092728       0.00402868       0.00293528
H        4.17838203       8.91737872       1.75377372       0.01309426      -0.00020863       0.02171964
H        7.97982803      10.28071607       2.92370312       0.02204382       0.00223628      -0.00993031
H        6.33742223      12.46448364       2.58248260       0.02571156       0.00206849      -0.01069924
H        7.37609199       7.76964120       0.25595695       0.03691606       0.00385188       0.01410818
H        8.19070755       6.63153043       1.30947250       0.02366881      -0.00192979       0.01949427
H        8.61797431       8.36424883       1.37315147       0.03020729      -0.00312600       0.02584974
H        2.94917589      11.03229644       1.41933877       0.01732078       0.00692233       0.01855908
H        3.38610757      12.21095381       2.65540636       0.02789155       0.00886393       0.01396677
H        3.99568006      12.42310656       1.00392633       0.01920526       0.00268583       0.00900340
S        8.06087159       3.09010042       1.81092075       0.00700730      -0.01515746      -0.01304087
S        6.56930992       4.39205917       1.23254329       0.01964498       0.00152147      -0.00337034
O        8.77966977       2.71921737       0.58600489      -0.00643027      -0.02940917      -0.01577115
O        7.38714947       1.91522873       2.41204543      -0.00579309      -0.00511765      -0.00689673
O        8.88332687       3.81062048       2.78332766       0.02406657      -0.02665949      -0.01950777
C        2.10704142       3.24360837       3.89270572      -0.01600540      -0.00009916      -0.00858632
C        2.67800335       4.19767912       4.73293777      -0.01791091       0.00197634      -0.00999388
C        2.95920643       2.50570258       3.07066797      -0.01479434       0.00202578      -0.00883414
C        0.62688123       3.00292591       3.83609879      -0.01536185      -0.00353507      -0.00587167
C        4.05681536       4.38314811       4.76141929      -0.01889480       0.00647906      -0.01141053
C        4.33499884       2.66646650       3.11786960      -0.01551367       0.00738341      -0.01119471
C        4.89554563       3.60146376       3.98065668      -0.01795846       0.00937221      -0.01291652
H        2.04905139       4.79499747       5.38385476      -0.01884516       0.00009646      -0.00958211
H        2.51241576       1.81647965       2.36559455      -0.01330045      -0.00135495      -0.00622047
H        0.40908235       2.02445989       3.40680422      -0.01475027      -0.00096509      -0.01133944
H        0.17390196       3.04541480       4.82674790      -0.01174962      -0.01110337      -0.00412863
H        0.10770730       3.73978564       3.21749282      -0.01943222      -0.00062752       0.00150408
H        4.47775171       5.12936726       5.42171505      -0.02043644       0.00739531      -0.01177008
H        4.99876471       2.11383117       2.46753353      -0.01451185       0.00882623      -0.01115691
H        5.96981440       3.71808402       4.01089571      -0.01877427       0.01263782      -0.01557922
C       10.91468122       7.02621508       5.45527653       0.00205908      -0.00186662      -0.00363671
C       10.12463692       7.79838565       4.60457379       0.00089256       0.00008266      -0.00032081
C       11.75441659       7.68607685       6.35766959       0.00643805      -0.00407209      -0.00658935
C       10.88417743       5.53134272       5.39984053      -0.00221089      -0.00142986      -0.00226533
C       10.15455981       9.18719179       4.67849955       0.00440302      -0.00052106       0.00019921
C       11.79070312       9.07103343       6.42429374       0.00964592      -0.00460776      -0.00589496
C       10.97658120       9.83010116       5.59244207       0.00850714      -0.00262052      -0.00274195
H        9.49099623       7.29290916       3.88338502      -0.00213572       0.00194964       0.00152826
H       12.37661121       7.09509411       7.02140690       0.00824209      -0.00570631      -0.01021592
H       10.71541897       5.10777045       6.39262605      -0.03049109       0.00101395      -0.00638938
H       10.11996496       5.15237334       4.72202101       0.01357961       0.00095181      -0.02055998
H       11.84733012       5.15460487       5.05565511       0.00478879      -0.00600421       0.02410600
H        9.54995421       9.78044491       4.00485864       0.00335251       0.00121249       0.00280685
H       12.44619223       9.56331652       7.13349556       0.01401729      -0.00633295      -0.00897069
H       10.99611652      10.91138781       5.64460630       0.01129778      -0.00304122      -0.00273141
C        2.34464650       3.14651170       8.03561472      -0.00822800       0.00236778      -0.00692496
C        3.71911412       3.05332627       7.83454649      -0.00908336       0.00285287      -0.01101870
C        1.79756726       4.40271875       8.30576006      -0.00690794       0.00073647       0.00104147
C        1.47394687       1.92827351       7.96454442      -0.00875744       0.00341776      -0.01101365
C        4.52999836       4.17683668       7.89012546      -0.00884015       0.00212963      -0.00708705
C        2.60450589       5.53187869       8.35685788      -0.00673382      -0.00002332       0.00502475
C        3.97518154       5.42104660       8.14729081      -0.00760298       0.00059855       0.00083195
H        4.15563001       2.08760736       7.60827691      -0.01030191       0.00426457      -0.01768716
H        0.72903807       4.49404201       8.46664787      -0.00619502       0.00020318       0.00436327
H        0.54218597       2.13322498       7.43613988      -0.00671798       0.00484455      -0.01363265
H        1.98567586       1.11125677       7.45505023      -0.00809406       0.00384425      -0.01033123
H        1.21274331       1.58611528       8.96829328      -0.01228429       0.00265721      -0.01255053
H        5.59294432       4.08801277       7.70037001      -0.00954418       0.00251636      -0.00992959
H        2.15845664       6.50051764       8.55457295      -0.00575065      -0.00129406       0.01166681
H        4.61021458       6.29714174       8.16214761      -0.00776155       0.00030502       0.00385376
C        6.28563714      10.76040933       6.33410496       0.00113986       0.00723253       0.00837271
C        6.31846624       9.42909225       5.91272575       0.00002638       0.00902168       0.00462291
C        5.20400063      11.17273779       7.11606129       0.00249093       0.00558592       0.01054835
C        7.38477897      11.71341250       5.97185814       0.00033227       0.00805908       0.00910601
C        5.30945738       8.53776935       6.25902847      -0.00009628       0.00860836       0.00271756
C        4.18328416      10.29090716       7.45132487       0.00264186       0.00516905       0.00911614
C        4.23055626       8.96900631       7.02218171       0.00142673       0.00675027       0.00545032
H        7.17102838       9.08014263       5.34041958      -0.00102506       0.01057003       0.00267652
H        5.16271587      12.20174402       7.45502931       0.00358420       0.00407907       0.01406622
H        7.53184540      12.45919679       6.75380539       0.00429460       0.00344077       0.01242293
H        8.32487443      11.18103382       5.82211753      -0.00102422       0.00817136       0.00230978
H        7.16106690      12.25801033       5.05055956      -0.00344665       0.01240000       0.01290026
H        5.36271758       7.50660378       5.92705101      -0.00088442       0.00974551       0.00017487
H        3.33698451      10.64427770       8.02959104       0.00430746       0.00382655       0.01192969
H        3.42099112       8.28694167       7.25217276       0.00208812       0.00632519       0.00543564
C        1.66936815       8.18402377       3.08270424      -0.01299439       0.00527081      -0.01775030
C        0.66527654       9.08843929       2.72721019      -0.00543731       0.00773972      -0.03126383
C        2.69227263       8.63661328       3.91505862      -0.02291213       0.00197239      -0.00376567
C        1.63236204       6.76636774       2.59597959      -0.01234017       0.00505704      -0.01633397
C        0.66790389      10.38993273       3.20910397      -0.00797813       0.00777980      -0.03167029
C        2.71537336       9.95010395       4.37325541      -0.02589503       0.00141519      -0.00275388
C        1.69167206      10.82480062       4.04216373      -0.01813068       0.00427926      -0.01786855
H       -0.14814824       8.74813491       2.09671616       0.00241120       0.01025829      -0.04261500
H        3.48603121       7.95323856       4.19947686      -0.02909760      -0.00030091       0.00745872
H        2.55721549       6.23491264       2.81740534      -0.00957364       0.00753848      -0.02280805
H        0.82088145       6.21512206       3.07758542      -0.00670183       0.00343667      -0.00914311
H        1.44964969       6.72158987       1.52025065      -0.02096684       0.00394186      -0.01443410
H       -0.14264657      11.06137498       2.95477010      -0.00210395       0.01025245      -0.04269231
H        3.54077145      10.29057185       4.98203949      -0.03474395      -0.00206808       0.01102036
H        1.70156836      11.84019345       4.42193976      -0.02052867       0.00399791      -0.01812117
C        8.91979627       7.50543858       8.90188205       0.00786289      -0.00211391       0.00663751
C        9.89242551       7.40443777       9.89629981       0.01059379      -0.00686349       0.00319818
C        7.92413857       6.52451796       8.85058624       0.00574781       0.00049633       0.00766440
C        8.89995106       8.65059229       7.93870879       0.00786234      -0.00001362       0.00942290
C        9.87968659       6.34963479      10.80580255       0.01102126      -0.00900730       0.00027049
C        7.89930224       5.48814361       9.77411445       0.00612891      -0.00134433       0.00499928
C        8.88102842       5.38560768      10.75691915       0.00898558      -0.00624250       0.00118333
H       10.67049165       8.15973726       9.94765623       0.01219106      -0.00904655       0.00263439
H        7.16568387       6.58589627       8.07462272       0.00347351       0.00413048       0.01045337
H        7.93704650       9.16616925       7.93863774       0.00972688       0.00308829       0.01480389
H        9.68250239       9.37446141       8.15769662       0.01108342      -0.00356205       0.00827470
H        9.05745465       8.30740654       6.91747889       0.00285171       0.00184362       0.00820315
H       10.64688528       6.28592425      11.56856978       0.01342590      -0.01277667      -0.00280200
H        7.10651271       4.75382910       9.73800108       0.00414874       0.00107315       0.00633361
H        8.85543173       4.57281763      11.47328923       0.00911811      -0.00815335      -0.00150433
C        4.66022788       2.48303801      10.87248938      -0.01317890      -0.00700684      -0.00385236
C        3.71329366       1.46395048      10.87088151      -0.01557937      -0.00465442      -0.00840816
C        4.26987609       3.73593588      11.35078489      -0.00882024      -0.00964940       0.00554016
C        6.05650476       2.27293457      10.37504964      -0.01482213      -0.00731511      -0.00786518
C        2.42758656       1.66592843      11.36945342      -0.01377617      -0.00456258      -0.00475520
C        2.98503391       3.95176464      11.82718855      -0.00674130      -0.00961250       0.01007912
C        2.05957181       2.91383151      11.85267687      -0.00934675      -0.00714394       0.00432925
H        3.98469822       0.50704859      10.44312787      -0.01923506      -0.00246292      -0.01528268
H        4.99125660       4.53781685      11.33645560      -0.00618573      -0.01213945       0.01213312
H        6.78798222       2.54684481      11.14385467      -0.01299636      -0.03350723      -0.00065809
H        6.22278460       1.24070890      10.06908012      -0.02513033      -0.00085340      -0.03463226
H        6.25581736       2.89719141       9.50322745      -0.00884798       0.01464157       0.00997972
H        1.71121359       0.85159834      11.37104027      -0.01604501      -0.00235181      -0.00909932
H        2.70330428       4.93002146      12.19802976      -0.00289303      -0.01195483       0.01876107
H        1.06230899       3.08078579      12.23991090      -0.00776681      -0.00723160       0.00780354
