144
Lattice="11.45573343949139 0.0 0.0 0.0 11.45573343949139 0.0 0.0 0.0 11.45573343949139" Properties=species:S:1:pos:R:3:forces:R:3 energy=-91172.96875 stress="-0.0027252058498561382 -0.0006294675404205918 -0.00044626888120546937 -0.0006294675404205918 -0.004294355865567923 -0.0006592760619241744 -0.00044626888120546937 -0.0006592760619241744 -0.005061970092356205" pbc="T T T"
N        4.29540182       3.69876927       4.48473793      -0.00894326      -0.01877341       0.00929753
N        2.22895079       4.22945271       4.89529315      -0.00568515      -0.01422133       0.00538430
C        5.70938336       3.80157606       4.11837569      -0.00932276      -0.00708314      -0.00003397
C        3.41025644       4.69757126       4.47505543      -0.00384668      -0.00107718      -0.00370303
C        3.66514554       2.56414234       4.92430927      -0.03235984       0.00699347       0.01737967
C        2.36636489       2.89108190       5.18133042       0.02102270      -0.00446671       0.00484440
C        6.58080936       3.86079610       5.35704214       0.00132135      -0.02429122      -0.00707710
C        0.97838010       4.97292413       4.91085997      -0.00046253      -0.00128993      -0.00908082
H        5.93671531       2.94602046       3.48259676      -0.01338878      -0.00288916      -0.01016705
H        5.81087518       4.69319134       3.49758532      -0.00461162      -0.00271386       0.00777486
H        3.60782264       5.70540269       4.15762999      -0.00463447      -0.00884296      -0.01099715
H        4.19733141       1.63587710       5.02998301      -0.01266389       0.01096479       0.01634926
H        1.53696172       2.30523960       5.53861864       0.00319813       0.01287778       0.00882079
H        6.31070777       4.71646976       5.97662941       0.00909459      -0.03073596       0.00448938
H        7.63172182       3.95373991       5.08544223      -0.00052914      -0.02418121      -0.01430028
H        6.46500793       2.95758340       5.95514012       0.00503631      -0.03046219      -0.01805658
H        1.19924850       6.03440839       4.82794369      -0.00558066       0.00162162       0.01718737
H        0.34573025       4.65935311       4.07908099       0.01150130       0.01650076      -0.02645758
H        0.45894075       4.76738086       5.84113556      -0.02227252      -0.01959250      -0.02289006
N        6.43580299       7.22746953       6.92308076       0.00834501      -0.00200716       0.00365752
N        6.00388984       6.20382353       8.79156018       0.00894326       0.00558993       0.00626296
C        7.17363609       7.94373139       5.87212533       0.00743753      -0.00623000       0.00093552
C        6.97766797       6.73862144       8.04339541       0.00692689      -0.00481968       0.00034031
C        5.08530547       6.99257738       6.95232182       0.00781864       0.00779847       0.01384747
C        4.80989760       6.34835565       8.12264442       0.01005018       0.01603549       0.00919646
C        7.83246043       7.01492777       4.87664648      -0.00068930      -0.00863266      -0.00142965
C        6.17741908       5.61140115      10.11058463       0.01030586       0.00470024       0.00507408
H        6.45462689       8.61152810       5.40143615       0.00887245      -0.00333302       0.00277589
H        7.91268540       8.56724780       6.37418961       0.01179746      -0.00932531      -0.00253472
H        8.01511853       6.81515112       8.31959716       0.01038666      -0.01317004      -0.00379250
H        4.43768293       7.36333752       6.17816120       0.00579492       0.01617572       0.01305057
H        3.88297788       5.98948913       8.53351242       0.00588919       0.02274082       0.01780413
H        8.53719302       6.33818655       5.36357057      -0.00070684      -0.01014196      -0.00450607
H        8.36160107       7.62236718       4.14654772      -0.00261070      -0.01142739      -0.00488080
H        7.09440671       6.42608202       4.33247118      -0.00566281      -0.00673053       0.00397975
H        7.16241149       5.87165718      10.48701924       0.00147375       0.02235185       0.01447000
H        5.41988191       6.01467965      10.77904972      -0.00208312      -0.01131548       0.00018515
H        6.09059604       4.52657447      10.06333949       0.03059579       0.00333062       0.00299789
S        9.83416414       1.90741697       0.72967462      -0.00350873       0.00671932      -0.02836083
S       10.95235794       1.35334404      -0.77750505      -0.00014671      -0.01882909      -0.01558269
O        8.32460792       8.94319819       2.25339115      -0.00167227       0.00247241      -0.00571859
C       10.50413649       9.86241016       2.46667289      -0.00085938      -0.00206995       0.00135317
C       10.60523488       8.34033157       2.38206457      -0.00273085      -0.00143731       0.00157550
C        9.04182016      10.05175623       2.84390695      -0.00183296       0.00247167      -0.00541193
C        9.27145182       7.98712795       1.74520308      -0.00020245       0.00455963      -0.00627814
H       11.17919744      10.30348676       3.19958707      -0.00202833      -0.00074728       0.00123043
H       10.71411944      10.32321978       1.49783665       0.00191768      -0.00668845       0.00016019
H       11.45770458       7.99879439       1.79984482      -0.00183122      -0.00132024       0.00295779
H       10.67911324       7.91053303       3.38697078      -0.00590242      -0.00392590       0.00034407
H        8.91284875      10.01045726       3.93490151      -0.00869274       0.00715181      -0.00649595
H        8.61531470      10.98689323       2.47607519       0.00454982       0.00305337      -0.01015182
H        9.32965128       8.07997524       0.65172852       0.00810731       0.01070915      -0.00502759
H        8.91643508       6.98202537       1.98927535      -0.00416198       0.00447264      -0.01566868
O        0.53425779       8.64989477       8.06872252      -0.01293093       0.00054561       0.00546633
C        1.44381214       8.12656297      10.21105492      -0.00005817       0.00629981       0.00175798
C        1.02253584       6.85922612       9.46591950      -0.00067928       0.00493109       0.00522694
C        0.84122622       9.24400628       9.35418451      -0.00432278       0.00350419       0.00135893
C        1.10933098       7.35563940       8.03287760      -0.01058922       0.00237930       0.00435624
H        1.09787461       8.17382945      11.24109949       0.00252311       0.00701313       0.00244281
H        2.53584402       8.19573113      10.22433158      -0.00052020       0.00830532      -0.00042192
H        1.65126495       5.99093618       9.67708696       0.00127257       0.00615197       0.00287780
H       -0.01058904       6.59315387       9.70537688       0.00099611       0.00505600       0.01078506
H       -0.09079978       9.63738868       9.75674284      -0.00087714       0.00592060       0.00530702
H        1.53717065      10.07872435       9.21452057      -0.00496367       0.00184074      -0.00656004
H        2.16572435       7.40410127       7.71635323      -0.01344383       0.00434402      -0.00359070
H        0.56162378       6.76651509       7.29946516      -0.01472431      -0.00024624       0.01028439
O       10.10972997       3.67288528       6.85836886      -0.01726022      -0.00563623       0.00298440
C        8.42634192       3.48776526       8.46955532       0.00793922      -0.02643172       0.02193642
C        9.52605303       4.36420729       9.06821406      -0.00054670      -0.00802082       0.00937718
C        9.22714482       2.70046416       7.44715655       0.00518209      -0.01653294       0.01394303
C       10.41332432       4.65934418       7.85986892      -0.00585449      -0.01136941       0.00373435
H        7.94262679       2.85649887       9.21530027       0.02581061      -0.03170565       0.02794735
H        7.67049869       4.09176352       7.95631102      -0.00479703      -0.03848206       0.02798408
H        9.16858586       5.27482258       9.55228613      -0.01333400      -0.00858617       0.00056484
H       10.06678715       3.78547470       9.81550640       0.00582571       0.00816402       0.01629332
H        9.80306570       1.91353013       7.94761779       0.02268645      -0.00757691       0.00551045
H        8.64000402       2.26695086       6.63769920       0.00349247      -0.02653455       0.02131557
H       10.20743716       5.64715430       7.42798656      -0.00287755      -0.01225117       0.00312328
H       11.47681302       4.60966537       8.11799139      -0.00440553      -0.01923416      -0.00453460
O        5.15056583       0.84716888       9.26085884      -0.02092378      -0.01207310      -0.01542231
C        3.19751607       2.15122885       9.00338216      -0.00761062       0.00736515      -0.00290257
C        4.34063171       2.78076258       8.21098065      -0.00011890       0.01052004       0.01238692
C        3.98903955       1.29474023       9.97773096      -0.01625073      -0.00842705      -0.01158261
C        5.26891479       1.58825531       8.04226456      -0.00624403       0.00855061      -0.00044935
H        2.54140578       2.86455057       9.50236015      -0.00554837       0.00419138       0.00320558
H        2.57652416       1.52880415       8.35225630      -0.00799336       0.01949565      -0.01313305
H        4.03678758       3.23449013       7.27214312       0.00856189       0.02630073       0.01791427
H        4.83239906       3.54292116       8.81841699       0.00041786      -0.00304674       0.02783252
H        4.31642270       1.89214803      10.83469793      -0.01168659      -0.01800090      -0.00734627
H        3.44892359       0.41743359      10.33790385      -0.02349384      -0.00632066      -0.01949272
H        4.95934039       0.95040158       7.20262178      -0.00338297       0.02438480      -0.01260325
H        6.31784730       1.85666857       7.90161495      -0.00429305       0.00489023       0.01090401
O        4.54782228       9.97997333       6.15896534      -0.00683740       0.00548825      -0.00873242
C        2.79569642      10.46994154       4.64487354      -0.01110074       0.00005946      -0.00653118
C        2.19891555       9.82074026       5.88796253      -0.00472885      -0.00334427      -0.00578213
C        4.24882441      10.04015074       4.75643315      -0.00850382       0.00906742      -0.00802678
C        3.31077148      10.01840317       6.90555618      -0.00540578       0.00595994      -0.00794280
H        2.33247383      10.13777566       3.71808587      -0.00885577      -0.00486192      -0.00550014
H        2.70137980      11.55544681       4.70917767      -0.01910118      -0.00087893      -0.00846612
H        1.25341864      10.24752711       6.21331832      -0.00754929      -0.01159030      -0.00435238
H        2.02411088       8.75571762       5.70464381       0.00510142      -0.00456548      -0.00602778
H        4.37330586       9.04033306       4.31128040      -0.00318637       0.01160878      -0.01104706
H        4.97162072      10.70667062       4.27587776      -0.01338342       0.01511574      -0.00592376
H        3.23339429      10.99138223       7.40222759      -0.00872134       0.00828311      -0.01342659
H        3.35056930       9.24956792       7.67959037      -0.00182971       0.01074272      -0.00381699
O        2.43652951       8.58382077       1.86949115       0.01572740      -0.00136419       0.00299269
C        4.24077337       7.09912551       1.94033173       0.01684397       0.00033534      -0.00140518
C        4.63781901       8.24817151       1.01355205       0.01429182       0.00050392      -0.00135550
C        2.72388175       7.19036487       1.88353312       0.01678208      -0.00030132       0.00124411
C        3.55786897       9.29064630       1.30159212       0.01392338      -0.00093275       0.00099973
H        4.62809588       6.12866468       1.62624521       0.01595115       0.00028269      -0.00154418
H        4.60411903       7.30607258       2.95301904       0.01764825       0.00054785      -0.00197205
H        5.64509264       8.61974408       1.19826421       0.01356107       0.00154339      -0.00152701
H        4.57690629       7.92848290      -0.03025205       0.01397587       0.00074068      -0.00111037
H        2.34697637       6.70492034       0.97013103       0.01465699       0.00072378       0.00201333
H        2.19371039       6.75656623       2.73527179       0.01824775      -0.00093009       0.00158995
H        3.89324344      10.02371621       2.03727767       0.01494429      -0.00121340       0.00034577
H        3.22967420       9.82674469       0.40646724       0.01141587      -0.00144513       0.00225645
O        4.15753121       2.63177543       1.69700770       0.00037690       0.00738488      -0.01115035
C        2.20806991       1.27459111       1.45178062       0.00406030       0.00235498       0.00301622
C        1.80230908       2.72798208       1.69614357       0.00000948       0.00172339      -0.00453714
C        3.69150845       1.27019740       1.80942276       0.00382134       0.00778370       0.00072761
C        3.06496461       3.47076832       1.30754352      -0.00290427       0.00163940      -0.01250984
H        1.62370539       0.56748740       2.04068429       0.00712055       0.00357884       0.00651264
H        2.04145853       1.02659587       0.40343794       0.00551366      -0.00136512       0.00409400
H        0.93245544       3.01964722       1.11423413      -0.00172237      -0.00497805      -0.00496471
H        1.56811451       2.87990587       2.75013917       0.00043937       0.00883206      -0.00565392
H        3.85614331       0.93823621       2.83882342       0.00706040       0.01547789       0.00267011
H        4.29831524       0.64274290       1.15451571       0.00305536       0.00404596       0.00422260
H        3.09929309       3.65135360       0.22324387      -0.00670331      -0.00707906      -0.01351112
H        3.18213022       4.43052331       1.81506795      -0.00341595       0.00512627      -0.01975168
O        9.29062629      10.41200906       9.60052906      -0.00012386      -0.00366502       0.01545104
C        7.16323108      10.00454694       8.69600749       0.00580913       0.01161990      -0.00502476
C        7.12889570       9.71508298      10.19237049      -0.00983047       0.01533419      -0.00520563
C        8.65596773       9.94865558       8.40762946       0.00777966       0.00478588       0.00841227
C        8.31188055      10.54776492      10.64389475      -0.00930882       0.00821319       0.00366259
H        6.54745452       9.34894646       8.08924992       0.00869969       0.01258783      -0.00864884
H        6.79280120      11.01303033       8.53802491       0.01179311       0.01265141      -0.01070929
H        6.19621853      10.01646664      10.66574911      -0.01176572       0.02307453      -0.01506295
H        7.30647371       8.65272110      10.40234665      -0.01865417       0.01529443      -0.00067361
H        9.01870228       8.92885754       8.20941531       0.00460330       0.00429723       0.00829421
H        8.96265219      10.57499312       7.56363025       0.01852854       0.00628847       0.01404402
H        8.02409209      11.59993126      10.74301917      -0.00291760       0.01030904      -0.00350909
H        8.76776265      10.22853479      11.57743541      -0.02093184       0.00891118       0.00895017
