148
Lattice="11.996918896121935 0.0 0.0 0.0 11.996918896121935 0.0 0.0 0.0 11.996918896121935" Properties=species:S:1:pos:R:3:forces:R:3 energy=-524218.15625 stress="0.001165427966043353 0.00042193748231511563 0.00025226158322766423 0.00042193748231511563 0.0013491346035152674 -0.0007821402687113732 0.00025226158322766423 -0.0007821402687113732 -0.00029324961360543966" pbc="T T T"
N        4.80759746       9.38957007       9.54799258       0.00673619       0.00514853      -0.00052248
N        5.13951183       7.24949001       9.39472901       0.00026275       0.00015712       0.00534302
C        4.26668758      10.70180190       9.92255036       0.00032848       0.00425994      -0.00635989
C        4.33300318       8.19015035       9.90499166      -0.00567579       0.00409281       0.00089592
C        5.93917331       9.20652476       8.79869990       0.00858605      -0.02918699       0.01197994
C        6.15246516       7.86570466       8.69792803      -0.00277847       0.02136792       0.01895779
C        5.16013638      11.40820161      10.92509479       0.00301200       0.01460084      -0.01550153
C        4.93257280       5.81072372       9.48443470      -0.01158946       0.00168532       0.00715132
H        4.17686466      11.27944434       9.00136608      -0.00144664      -0.00277062      -0.01247889
H        3.26313341      10.53693483      10.31538658       0.00345543       0.00544115      -0.00394149
H        3.45884089       8.00889851      10.50614513      -0.00789810       0.00925428      -0.00694888
H        6.47184604      10.04077660       8.38440695       0.01778296      -0.00129452       0.01428195
H        6.93124292       7.31204761       8.20067323       0.00994504      -0.01012775       0.02029197
H        5.27563631      10.80565060      11.82464457       0.00725312       0.02219667      -0.01025310
H        4.71053170      12.36158960      11.20219372       0.00030129       0.01685216      -0.02236364
H        6.15442350      11.60642455      10.52598352       0.00142625       0.01424825      -0.02096693
H        4.19760867       5.59301589      10.25326610      -0.00961582       0.00455425       0.00659037
H        4.57028751       5.42333138       8.53263623      -0.01211491       0.00413448       0.00575945
H        5.87554892       5.33197152       9.73913006      -0.01239637      -0.00281361       0.00653437
N        4.53636411       9.57986450       2.44232717       0.01370668       0.00341791      -0.01067898
N        6.44332131       8.59236736       2.14564579       0.01324874       0.01240638      -0.00297003
C        3.48437379      10.60520266       2.57270004       0.00461787      -0.00403583      -0.01113808
C        5.82669224       9.77870397       2.14866818       0.00905353       0.00225878      -0.00313012
C        4.32561264       8.23391968       2.62830895       0.00352669      -0.00110471      -0.00994909
C        5.52302606       7.61348389       2.44097099       0.02048647      -0.00517738      -0.00786394
C        2.58385762      10.68278310       1.35776844       0.00615260      -0.00811200      -0.01268762
C        7.87493462       8.38505363       1.96286817       0.01547301       0.01101328       0.00080237
H        2.92102661      10.33968621       3.46791998       0.00515413      -0.00469472      -0.01204675
H        3.98996525      11.54583921       2.78015958       0.00134884      -0.00038898      -0.01179250
H        6.31814140      10.72570197       1.98568640       0.00958998       0.00747903      -0.00178161
H        3.36846858       7.84637959       2.94978464       0.01671945      -0.00063392      -0.01936012
H        5.79736254       6.57531742       2.51023411       0.01564118       0.00964068      -0.00936013
H        3.10380704      11.14261033       0.52061543       0.00361226      -0.00261899      -0.01124191
H        1.66363406      11.26119642       1.54844266       0.00099599      -0.01708105      -0.01173751
H        2.24461368       9.68738641       1.06356293       0.01493390      -0.01109816      -0.01439912
H        8.37591819       9.35083149       1.93824170       0.01352607       0.01420006       0.00875654
H        8.24756186       7.79919272       2.80053384       0.01329327       0.00616682      -0.00251660
H        8.05193462       7.84952808       1.03200092       0.01946968       0.01764426      -0.00147843
O       10.87636698       2.27885012       2.42435738      -0.01238871      -0.03890157       0.01988885
O       10.03556301      -0.30532121       3.52229712      -0.02955556      -0.03414357       0.01212311
O       11.81707755      -0.18589374       1.23302578      -0.01652002      -0.03896523       0.02573442
O        8.98588840       0.58143129       0.94699330      -0.01346231      -0.03065589       0.01185191
W       10.42222303       0.60310438       2.02737531      -0.01795669      -0.03467609       0.01595159
O        3.23663097       2.72208910       3.69583422       0.00183970       0.00141281      -0.00508752
C        2.40862081       1.63077569       4.09965202      -0.00252008       0.00173200      -0.01283202
C        4.44455053       2.27621914       3.11558051       0.00085491       0.00055420      -0.00651002
C        1.12950921       2.14692999       4.70196592       0.00036567       0.00270814      -0.00761899
C        5.27158482       3.46156818       2.67962221       0.00616205      -0.00018442       0.00188683
H        2.16874674       1.01179259       3.22522146      -0.00587007       0.00882608      -0.01712477
H        2.97530817       1.01245293       4.81376687      -0.00481138      -0.00577587      -0.01777068
H        5.00325984       1.66280474       3.83966012      -0.00238529      -0.00572839      -0.00950468
H        4.22313715       1.63749819       2.24581866      -0.00057629       0.00632477      -0.01047730
H        0.53926160       1.30823484       5.07310401      -0.00149903       0.00261502      -0.01086695
H        1.32921886       2.82850214       5.53121030       0.00396052      -0.00245593      -0.00428104
H        0.51301307       2.63235221       3.94218849       0.00051853       0.00830335      -0.00379804
H        6.21659000       3.12167331       2.25457840       0.00527605      -0.00178778       0.00126512
H        4.73123998       4.03810642       1.92592945       0.00980885       0.00631140       0.00430912
H        5.48722444       4.10870665       3.53210418       0.00803163      -0.00610848       0.00587508
O       10.14286996      10.77805606       9.27560367       0.00941414       0.01196975      -0.00912756
C       10.15550637      11.11462459       7.90052437       0.00641787       0.01277134      -0.00895494
C        8.86445412      10.33545317       9.66009473       0.01094848       0.00769474      -0.00799435
C       11.56589381      11.42828460       7.48491944       0.00512493       0.01305836      -0.01322589
C        8.80146512      10.08527909      11.14381438       0.01440587       0.00235461      -0.00899744
H        9.76292124      10.27295223       7.31142322       0.00527905       0.01297736      -0.00837788
H        9.49080964      11.97313019       7.71860684       0.00543123       0.01245415      -0.00757559
H        8.12257278      11.10482310       9.38143267       0.00887558       0.00761697      -0.00348616
H        8.62689483       9.42229388       9.08990222       0.01200167       0.00925291      -0.01168773
H       11.60080459      11.60274163       6.40891706       0.00117852       0.00983199      -0.01389414
H       11.93741596      12.30912479       8.01075567       0.00628999       0.01497789      -0.01727110
H       12.21190819      10.58619171       7.73400693       0.00641342       0.01417911      -0.01319604
H        7.82026312       9.66368471      11.38479144       0.01774633      -0.00465772      -0.00881731
H        9.56666164       9.36865601      11.44549959       0.01995219       0.00772870      -0.01152114
H        8.94068304      11.00927479      11.72594995       0.00805384       0.00061658      -0.00460950
O       10.21931984       7.40101052       7.64799840      -0.00057656      -0.00156447       0.00707397
C       10.55872162       7.75025963       6.31744497      -0.00191414       0.00004742       0.00697976
C       11.37731230       7.19530215       8.43745240       0.00020985       0.00145796       0.00690663
C        9.28872425       7.96356051       5.53480476      -0.00259930       0.00222922       0.00872391
C       10.95798897       6.75173513       9.81564970       0.00106673       0.00207160       0.00750166
H       11.16619440       8.66754093       6.31584404      -0.00160417      -0.00026125       0.00735925
H       11.17256730       6.95513793       5.86985705      -0.00257686       0.00035599       0.00524719
H       12.01412113       6.43637227       7.95826424       0.00173223       0.00214344       0.00755715
H       11.95350465       8.13111743       8.49005691      -0.00170070       0.00271237       0.00587687
H        9.52689825       8.31471569       4.53103939      -0.00330416       0.00523923       0.00961755
H        8.71355283       7.03779428       5.47474732      -0.00314733       0.00263515       0.00679101
H        8.68088945       8.73166485       6.01213882      -0.00196445       0.00122671       0.01140715
H       11.83167325       6.64053720      10.45936748       0.00088480       0.00483372       0.00830912
H       10.29543638       7.49318080      10.26144031       0.00007907       0.00128892       0.00738458
H       10.44163332       5.79315773       9.77083519       0.00314617       0.00092842       0.00923686
O        3.15053608       2.97307360       9.56762460      -0.00820574      -0.00845836       0.01055816
C        1.87336882       2.96808684      10.20868846      -0.00792163      -0.01236770       0.01101303
C        3.09100065       2.32837572       8.30509209      -0.00801867      -0.00626470       0.00929344
C        1.98194047       3.61087233      11.56733329      -0.00923464      -0.01215547       0.01103187
C        4.47639143       2.24862199       7.71275158      -0.00821769      -0.00373504       0.00837092
H        1.14854865       3.50263206       9.57699808      -0.00931963      -0.01398891       0.01143336
H        1.51890111       1.93479572      10.30823228      -0.00505096      -0.01367861       0.01104363
H        2.66313903       1.32194799       8.42917750      -0.00662488      -0.00706336       0.00803924
H        2.41386785       2.87857000       7.63628203      -0.00950015      -0.00610811       0.01081443
H        1.03492354       3.51878597      12.09848628      -0.00888076      -0.01390764       0.01136580
H        2.74899140       3.11583718      12.16407713      -0.00727567      -0.00994767       0.01028220
H        2.23381666       4.67067946      11.48741622      -0.01233126      -0.01148584       0.01169559
H        4.45871427       1.69528807       6.77189761      -0.00819748      -0.00320002       0.00797907
H        4.87441281       3.24306459       7.51072496      -0.00919711      -0.00318128       0.00888883
H        5.16210488       1.74388830       8.39596455      -0.00748608      -0.00386145       0.00759880
O        4.98092453      10.69734490       5.81561448      -0.00494489      -0.00135803       0.00057683
C        4.00703983       9.68474253       6.01636452       0.00186771      -0.00838169      -0.00308910
C        6.24793252      10.17306429       5.42126086       0.00018561       0.00791830       0.00512896
C        2.70317726      10.32074564       6.42309772      -0.00421908      -0.01665960      -0.00997208
C        7.14407185      11.29733420       4.97348588      -0.00518188       0.01383132       0.01056533
H        3.87464904       9.09702487       5.09885131       0.01037553      -0.00977705      -0.00343964
H        4.34909427       8.97559546       6.78307530       0.00362189      -0.00498474      -0.00057414
H        6.69640539       9.62028562       6.25762033      -0.00012209       0.00959513       0.00664976
H        6.09692935       9.43188759       4.62541430       0.00868045       0.00791663       0.00334373
H        1.95391727       9.54895452       6.59805080      -0.00212441      -0.02087416      -0.01895977
H        2.81726103      10.90944569       7.33427922      -0.01357969      -0.01981201      -0.00679919
H        2.32519967      10.98855996       5.64891585      -0.00112488      -0.01517411      -0.01019768
H        8.11329672      10.95433820       4.59800371      -0.00173166       0.02055874       0.01232969
H        6.67157722      11.86676764       4.17137562      -0.00464915       0.01195350       0.00865929
H        7.33864711      11.98928892       5.79428710      -0.01353627       0.01379496       0.01285152
O        1.80826695       6.90071144       4.14134427      -0.00248631       0.01292631      -0.00817460
C        2.38872762       5.60342555       4.24411862      -0.00606933       0.01166049      -0.00359803
C        0.89302394       6.97402865       3.04938106      -0.00954100       0.00993240      -0.00261189
C        3.18815091       5.51150506       5.52157670      -0.00391892       0.01541367      -0.00457853
C        0.26785454       8.34500316       3.02898356      -0.00790694       0.01062042      -0.00418554
H        1.60301813       4.84267386       4.22185969      -0.00860423       0.01400387       0.00194491
H        3.02881991       5.41040917       3.37102677      -0.00834194       0.00530871      -0.00390810
H        1.43204148       6.76750390       2.10961079      -0.01562852       0.00596201      -0.00519589
H        0.13959692       6.18242340       3.15400190      -0.00941223       0.01089880       0.00572170
H        3.64463405       4.52268692       5.58017837      -0.00556339       0.01467033      -0.00078044
H        3.97607236       6.26845687       5.54814884      -0.00239111       0.01401731      -0.00915273
H        2.54109408       5.65335224       6.38993296      -0.00245039       0.02095202      -0.00430961
H       -0.37289245       8.47394612       2.15752181      -0.01550980       0.00873442       0.00116067
H       -0.32685216       8.52068746       3.92211946      -0.00012760       0.01749570      -0.00026840
H        1.02239054       9.12732126       2.98355603      -0.00673729       0.00865754      -0.01558492
O        8.86289608       4.01882674       6.63891359       0.00334001      -0.01664604       0.00443994
C        7.78349289       3.65519133       7.46519849       0.00314407      -0.01447192       0.00660259
C        8.48490716       4.00651563       5.26450134       0.00292757      -0.01267366       0.00427282
C        8.19659374       3.66565627       8.92057640       0.00321257      -0.01556101       0.00829160
C        9.68189771       4.30716055       4.40490243      -0.00041825      -0.00015914       0.00321361
H        6.95090193       4.36512756       7.30638757       0.00157982      -0.01281017       0.00430986
H        7.40596180       2.66331019       7.17388572       0.00646766      -0.01606596       0.00597116
H        8.06970437       3.02200899       5.00623854       0.00817440      -0.01350480      -0.00024115
H        7.68264630       4.75058835       5.11174375      -0.00080723      -0.01627004       0.01065602
H        7.34049893       3.40510709       9.54630308      -0.00859551       0.00722407      -0.00047810
H        8.98517830       2.94191622       9.13945836      -0.01527460      -0.03128701       0.02467185
H        8.54862992       4.65850019       9.20535032       0.00944103      -0.01680528       0.00441100
H        9.40419919       4.31351359       3.35031683      -0.00411089       0.00297660       0.00423662
H       10.11907738       5.26898946       4.67692557      -0.00777787       0.00289261       0.00455453
H       10.43063518       3.52361460       4.49241917       0.00467081       0.00410748      -0.00199955
