147
Lattice="15.027558796216185 0.0 0.0 0.0 15.027558796216185 0.0 0.0 0.0 15.027558796216185" Properties=species:S:1:pos:R:3:forces:R:3 energy=-853740.75 stress="-0.0005201416206546128 8.756841634749435e-05 9.70430628512986e-05 8.756841634749435e-05 0.000553822610527277 4.6091561671346426e-05 9.70430628512986e-05 4.6091561671346426e-05 -0.0001716346014291048" pbc="T T T"
N       10.53471649       9.61893897       4.47156311       0.00712578       0.00935805      -0.00882882
N       10.76212035      11.02648187       6.10390515       0.01174834       0.00013092      -0.00513169
C        9.58236086       7.54069785       3.51256170      -0.00282010      -0.00316870       0.00453591
C        8.68716313       7.35649076       4.73196471      -0.00346440      -0.00172061       0.00325835
C        9.98866967       8.98484184       3.25941849      -0.00971345       0.00266384       0.00184906
C        8.41279737       5.89231774       5.05905004      -0.00108538      -0.00223875       0.00490651
C        7.97156330       5.70235995       6.50643047      -0.00441469      -0.00160235       0.00572282
C       10.16031315      10.81282907       4.93396461      -0.01293439      -0.00311571       0.00927174
C       11.41323150       9.04816330       5.36671633      -0.00173336      -0.00167793      -0.00726777
C        7.58188158       4.27119422       6.83978751      -0.00452036      -0.00225747       0.00041401
C       11.54752600       9.93287184       6.39280736       0.00872242      -0.00047350      -0.00982153
C       10.51482056      12.17476177       6.96954677       0.00591162      -0.01340443       0.00414753
H       10.47507222       6.92240814       3.62189860       0.00107211      -0.00073031       0.00980459
H        9.08327616       7.18710347       2.60645415      -0.00554979      -0.00510179       0.00540563
H        7.74478344       7.90008356       4.59707329      -0.00516149      -0.00538018       0.00306621
H        9.17465558       7.80478010       5.60321644      -0.00725183       0.00511278       0.00184938
H        9.13811444       9.59855423       2.95721592      -0.01648238       0.00071676       0.01021492
H       10.75011887       9.04342918       2.48136622      -0.01816538       0.00163650      -0.00519884
H        7.65837875       5.48699372       4.37718604      -0.00419682      -0.00394569       0.00766701
H        9.32363288       5.30998724       4.88967890       0.00448826       0.00360273       0.00469996
H        8.79407419       6.01764534       7.15703253      -0.00361225      -0.00481994       0.00519271
H        7.13664873       6.37628590       6.73120539      -0.00366741      -0.00186485       0.00944611
H        9.48891717      11.50054213       4.44699540      -0.00838587       0.00284993       0.00756961
H       11.82627667       8.06111558       5.21596245       0.00797204       0.00300296      -0.01430625
H       12.13008212       9.88827844       7.29484467       0.01130579      -0.00415118      -0.01413607
H        8.39776347       3.58452111       6.60714208      -0.00363289      -0.00119761       0.00417330
H        7.33988487       4.16377835       7.89796903      -0.01147374      -0.00742970      -0.00227340
H        6.70925021       3.95457855       6.26521806       0.00171173      -0.00102580      -0.00804282
H       11.41154994      12.37563371       7.54899475       0.00396140      -0.00436767      -0.00085390
H       10.28146153      13.04123322       6.35466697      -0.00056502      -0.00729820       0.01221365
H        9.68517253      11.95393562       7.64053495       0.01283830      -0.01547784       0.01264387
N        5.31650518      13.88327237      12.98368109       0.00224078       0.00582666      -0.00113322
N        3.17724583      14.07371389      13.27879045       0.00153667      -0.00261591       0.00124123
C        7.20649070      12.25543018      12.91915111      -0.00314945       0.00085481       0.00553605
C        6.29878038      11.04263592      12.76051354      -0.00412911       0.00143115       0.00353706
C        6.60946265      13.54646727      12.37565868       0.00193971       0.00151385      -0.00046718
C        6.94938773       9.72816811      13.17974140      -0.00677204       0.00054171       0.00238271
C        5.95849861       8.56827151      13.17008313      -0.00512892       0.00053977       0.00723304
C        4.12202585      13.62926072      12.44727632       0.00293568       0.00014591       0.00083089
C        5.13209356      14.50247516      14.19924610       0.00072123       0.00080761       0.00138843
C        6.54689670       7.26608816      13.69186261       0.00202414       0.00283533       0.00100040
C        3.78980427      14.62541635      14.38205698       0.00097567       0.00222969      -0.00112712
C        1.73764548      13.99316272      13.06307957       0.00117141      -0.00671090       0.00325311
H        7.47591430      12.38460669      13.97197326      -0.00925706       0.00249032       0.00673300
H        8.14440871      12.10116850      12.37769580      -0.00019717      -0.00217569       0.01151237
H        5.96162655      10.96166189      11.71938669      -0.00071012       0.00230368       0.00325030
H        5.39489151      11.18872734      13.36290302      -0.00574368       0.00290787       0.00064442
H        6.43805255      13.47509283      11.30180901       0.00555468      -0.00262247      -0.00160667
H        7.27022963      14.39581858      12.54888952       0.00312358      -0.00018257       0.00279886
H        7.79784028       9.50163104      12.52372463      -0.00328237       0.00116689       0.00680396
H        7.37290228       9.83715280      14.18519909      -0.00547301       0.00110168      -0.00029716
H        5.08886149       8.84473203      13.77600665      -0.00541741      -0.00286075       0.00958905
H        5.58051023       8.42463062      12.15224470      -0.00309534       0.00060202       0.00792992
H        3.94672618      13.15274568      11.49812278       0.00324454      -0.00098612       0.00200954
H        5.96280461      14.80351045      14.81471039       0.00167027       0.01058337      -0.00457316
H        3.21167222      15.05984385      15.17652398      -0.00115415       0.00395041      -0.00339174
H        6.91846487       7.38568700      14.71217986      -0.00122216      -0.00327436       0.00125064
H        5.80271865       6.46872535      13.70031668       0.00915153      -0.00195311      -0.00202590
H        7.38456208       6.93569813      13.07617546       0.00635272       0.00816939       0.00523205
H        1.30018959      14.98170493      13.18791085      -0.00252640      -0.00690973      -0.00317048
H        1.54832490      13.63361187      12.05504405       0.00050300      -0.01084991       0.00480105
H        1.29122885      13.31063581      13.78370000       0.00521327      -0.00425869       0.00871807
S       10.08558767       0.23824530       3.76644179      -0.02853771       0.00326264      -0.01396871
S       12.44128339       4.68213671       4.10994224       0.00306815      -0.00920784       0.00017178
S        9.87602713       2.41207026       4.01420132      -0.00169353       0.01104873      -0.00854567
S       11.33427835       3.04101029       5.21982135      -0.00593227       0.01984555       0.00834367
O        9.91524978      -0.32767293       5.10490856       0.00254363      -0.00064212      -0.00949013
O       12.11036844       5.85589848       4.91405033       0.03624824      -0.01803446       0.01427281
O       11.37534806      -0.01385655       3.17195316       0.01240325       0.01321360      -0.00786102
O        8.93023774       0.05173621       2.89945268       0.02986336       0.00174016      -0.00480807
O       13.82563225       4.25529597       4.22005346      -0.02598047      -0.01186705      -0.01857869
O       11.87709215       4.68363804       2.77444287      -0.02664012       0.01393838      -0.00666738
Cl       6.44637391       1.46179994       4.28738402      -0.01059765      -0.00754464       0.00814317
Cl       4.32222857       1.46999171       2.31589479       0.00938237       0.00604001      -0.01542005
Cl       6.12710868       3.72588350       2.52101690       0.00746658       0.01502173       0.02014422
Cl       4.16666617       3.22625904       4.60724951      -0.01807617      -0.00345926      -0.00457279
C        5.27098563       2.47084434       3.44934295      -0.00317359      -0.00125237       0.00039818
Cl      15.28515804       2.81314349      10.40479828      -0.01149106      -0.01893349      -0.01478885
Cl      13.64486734       5.20338904      10.29399538       0.01544997      -0.00637244      -0.00088175
Cl      12.94959889       2.89697969       8.68468120      -0.00286430       0.00563018      -0.01031668
Cl      15.28578253       4.46740679       8.01382753       0.00505006      -0.00029112      -0.00419036
C       14.29276340       3.84632150       9.34039257       0.00189768      -0.00396828      -0.00955448
Cl       9.96200590      -0.26563706      14.54461570       0.00391377       0.01220781       0.00532453
Cl       8.55602960       2.08813017      13.61508373      -0.00070268       0.00334867       0.00335640
Cl      11.34696934       1.68945153      12.90337144      -0.00442484       0.01302247       0.00408357
Cl      10.63575514       2.34058861      15.62854235      -0.01183301       0.01684460       0.00046366
C       10.13864157       1.47105541      14.19644305      -0.00598712       0.01273253       0.00185081
Cl      14.43703773      12.55055772       6.78461473      -0.02456471      -0.00277063       0.01363344
Cl      12.64602075      14.81778792       6.47430280      -0.00004923       0.00952034       0.02141209
Cl      15.45444450      15.27402064       6.97986107       0.00543766      -0.01637164      -0.00524932
Cl      13.76119755      14.17678533       9.07796066       0.02501652       0.01080611       0.01164213
C       14.06675367      14.23281813       7.31707817       0.00378492      -0.00434700       0.01129013
Cl       2.01886225       6.28393562       4.74950996      -0.00841169       0.00718024      -0.00115291
Cl       4.84880003       6.85064873       5.09641034      -0.00578262      -0.00635330      -0.00462066
Cl       2.86744591       8.76090811       5.99211211       0.00314318       0.00217538       0.00263987
Cl       3.30854378       8.32691397       3.15206578      -0.00213588       0.00541771      -0.00059882
C        3.25154258       7.54757972       4.74157884      -0.00718171       0.00194386      -0.00129699
Cl       0.56176037       8.40855286      10.93407010       0.00478291       0.00817337      -0.00064608
Cl       2.27191465      10.11975462      12.54496254       0.00777043       0.00403620      -0.00210158
Cl       0.97537968      11.17698053      10.16939685       0.01401890       0.00925414      -0.00567586
Cl       3.13382158       9.25719057       9.91540198       0.00781595      -0.00126143      -0.00420735
C        1.73052272       9.73245665      10.88400375       0.01070162       0.00444049      -0.00203423
Cl       7.05635946      12.94565206       3.02442662       0.00152427       0.01006468      -0.01156192
Cl       4.21119968      12.35437897       3.01586184       0.00945322       0.00311732       0.00150236
Cl       6.04087573      10.65776171       4.49608556       0.01846726       0.01003967      -0.00290485
Cl       6.05660130      10.62370885       1.59372435       0.00449415       0.00608659      -0.00023746
C        5.84412525      11.66047834       3.03865435       0.00994706       0.00564474      -0.00292897
Cl       1.48877078       3.36122543      14.33975730       0.01549227      -0.01102507      -0.02026207
Cl       1.24340840       6.22734643      13.95962279      -0.01389255      -0.00703108       0.00751694
Cl       3.28159280       5.16963706      15.73302439      -0.00509536      -0.00369883       0.00794655
Cl       0.48928563       5.01883437      16.49453414      -0.01250127      -0.03964316      -0.00429904
C        1.61988237       4.95027259      15.14798756      -0.00360812      -0.01461324      -0.00021692
Cl       3.15014704      12.30905664       7.01052441      -0.00472742       0.00187966       0.00394642
Cl       3.45434901      14.43510048       8.95748494       0.01330517       0.00660963       0.00503982
Cl       5.25673365      14.26679025       6.69665183      -0.00764432       0.00044296      -0.01236843
Cl       5.41290309      12.29439034       8.82288778       0.00571284       0.00047488      -0.00600159
C        4.32075179      13.32680976       7.85089283       0.00263042       0.00081200      -0.00427091
Cl      12.52893077       5.85234052      14.45604801      -0.00231457       0.00722486       0.01212153
Cl      11.81126859       7.57871510      12.22786349      -0.00341924       0.00211818       0.00800362
Cl      10.39923640       7.79617555      14.74573427      -0.02305679      -0.00737275       0.00566833
Cl      10.02011276       5.45598320      13.07265540       0.00223875      -0.00879997       0.00372241
C       11.19955208       6.65359872      13.62960030      -0.00461224      -0.00081509       0.00763755
Cl      13.46226544       7.86908811       2.59411780      -0.01143447      -0.00111377      -0.00519701
Cl      15.46466673       9.24648724       1.01182638      -0.01200236      -0.00685397       0.00250292
Cl      15.07000295       9.95358371       3.79760978      -0.01151569      -0.00430957       0.00288653
Cl      13.05571070      10.63720830       1.82523347      -0.00280188       0.00044091       0.00128257
C       14.25968872       9.41924457       2.31022795      -0.00987380      -0.00456440       0.00001162
Cl      13.78200521      14.52126327       0.80576705      -0.00689547       0.00511549       0.00559619
Cl      14.34767825      16.45171971       2.90622858       0.02848198       0.00662506      -0.00284418
Cl      16.43535471      14.64260687       1.98868228       0.00230402       0.00092978      -0.01803665
Cl      14.23658884      13.62308101       3.53167992       0.00610268       0.01877266      -0.00269455
C       14.65804983      14.83314388       2.32335814       0.01304576       0.01490572      -0.01088423
Cl       8.93276674       0.57821599       7.64262085       0.01826736      -0.00790375      -0.01210546
Cl       9.55909318       2.48478897       9.72898996       0.00478613      -0.00763327      -0.00862543
Cl       9.32430226      -0.33625935      10.36286762       0.01557900      -0.01140141      -0.00807136
Cl       6.95766553       1.21873890       9.68672082       0.00803849      -0.02518700      -0.01407290
C        8.69253498       0.99322923       9.33799676       0.01089752      -0.01457186      -0.01072901
Cl       2.97997712       5.47143192      10.91143920       0.01555476      -0.00374688       0.01586187
Cl       3.91897690       3.14093170       9.45832864       0.00760658       0.00283635      -0.00496905
Cl       5.82004854       4.95973460      10.69131203       0.01361036      -0.00764110      -0.00846365
Cl       4.31781721       5.78449150       8.35014739      -0.01073334       0.00934285       0.00855345
C        4.25465528       4.84595322       9.85472907       0.00820905       0.00057146       0.00294238
Cl      13.78426369      10.76401780      13.22612242       0.00185794       0.01137441      -0.01001039
Cl      12.80313892      13.36365501      12.41645743      -0.01668766       0.01255184      -0.00141164
Cl      10.96833358      11.37484655      13.46277004      -0.00936377      -0.00352983      -0.00904846
Cl      12.14604081      11.01930135      10.84164743      -0.00097775       0.00832596      -0.00826299
C       12.43084071      11.62707893      12.49225831      -0.00727540       0.00575376      -0.00428110
