147
Lattice="14.336817780182297 0.0 0.0 0.0 14.336817780182297 0.0 0.0 0.0 14.336817780182297" Properties=species:S:1:pos:R:3:forces:R:3 energy=-685103.0625 stress="-5.138203050591983e-05 -0.0005110290367156267 -1.8978592379426118e-05 -0.0005110290367156267 -0.00040207794518209994 0.0001839983742684126 -1.8978592379426118e-05 0.0001839983742684126 -0.00043783962610177696" pbc="T T T"
N       11.86502015      12.51889510       8.75328683       0.02037215      -0.01275334       0.00990963
N       13.15599573      11.20001714       7.61691080       0.00564098       0.00114030       0.02227783
C       10.04158443      12.60465529      10.41435776       0.00054270       0.00682802       0.00341319
C       10.21814619      11.14382793      10.81361317      -0.00665975       0.00255644      -0.00422133
C       11.30014929      13.27198446       9.87670203       0.00241233       0.00071198       0.00033265
C        8.93922219      10.55528226      11.39904427      -0.00858766       0.00518107      -0.00322288
C        8.95260968       9.03734362      11.53367065      -0.00961265       0.00546822       0.00036789
C       12.99752372      11.81959175       8.78907330      -0.00476009      -0.00763668      -0.00034028
C       11.27625905      12.33636688       7.52429045      -0.02926189       0.03032936       0.00592470
C        7.59292829       8.48645085      11.94041350      -0.00600648       0.00712091       0.01037662
C       12.08628219      11.51140691       6.80791677       0.01995158      -0.02002832      -0.03501534
C       14.26367564      10.32735978       7.26597151      -0.00219083      -0.00981629       0.00155886
H        9.24478809      12.67546233       9.66386887      -0.00573653       0.01350535       0.00776304
H        9.70550300      13.19880837      11.26824494       0.00818797       0.00171332       0.00994629
H       11.03798958      11.04580940      11.53371057      -0.00727274      -0.00692327      -0.00391415
H       10.50636178      10.55463294       9.93492249      -0.00850285       0.00368914      -0.00642264
H       12.07218971      13.32873121      10.64416515       0.00688970      -0.00805759       0.00320551
H       11.10480768      14.28712033       9.52886780       0.00524022      -0.00051641       0.00601397
H        8.73575379      11.00970293      12.37567633      -0.01044486       0.00706625      -0.00364503
H        8.09266813      10.84902981      10.76264076      -0.00702313       0.00440597      -0.00546810
H        9.26899648       8.58989261      10.58421913      -0.01259821       0.00219154       0.00085390
H        9.71049051       8.73888806      12.26389403      -0.00763181       0.00945133      -0.00121060
H       13.66821469      11.75584151       9.63010675       0.00156483      -0.01485670       0.01958138
H       10.35858733      12.83112866       7.26100936       0.02204683       0.00456704      -0.00439314
H       11.99790625      11.11054672       5.81285342       0.00760441       0.01423790       0.01067220
H        6.82588237       8.75583323      11.20898914      -0.00867890      -0.00106978       0.01140589
H        7.60088152       7.40061383      12.03136111      -0.00480637       0.00871253       0.01999334
H        7.28178647       8.89711604      12.90221735      -0.00313761       0.01321425       0.00837010
H       14.89381347      10.80011797       6.51392369      -0.00480226      -0.01331142       0.00155945
H       14.84233011      10.11953235       8.16227533      -0.00382420      -0.00239157       0.00826618
H       13.87262444       9.38858196       6.88011711       0.00033590      -0.00971517       0.01017005
N        5.69547658      10.23864072       8.45463482      -0.00065753      -0.00614065       0.00007132
N        4.65037448      12.13700655       8.60077573       0.00245869      -0.00409782      -0.00408720
C        7.21862509       8.97091359       6.92777190       0.00055398      -0.00406677      -0.00021172
C        7.81771350      10.18386445       6.22614157      -0.00301349       0.00107104       0.00480260
C        6.77458869       9.24510357       8.35584801      -0.00322810      -0.00862405      -0.00071657
C        8.66574191       9.82392201       5.01206943       0.00225185       0.00697333       0.00674504
C        9.18368034      11.06552286       4.29758862       0.00446481       0.00798917       0.00955579
C        5.85620649      11.55866762       8.58617991       0.00125003      -0.00665224       0.00268596
C        4.35092459       9.96675679       8.38452132      -0.00017786      -0.00262561      -0.00844517
C       10.29664090      10.77634482       3.30121700       0.00159463       0.00475323       0.00692868
C        3.69583995      11.15599608       8.48168407       0.00102830      -0.00160199      -0.01168116
C        4.39186407      13.56234681       8.76037529       0.00269841      -0.00438797       0.00036396
H        6.39185815       8.55767658       6.34203110       0.00259584      -0.00637555      -0.00185740
H        7.96810476       8.17807717       6.99140513       0.00334364      -0.00154769      -0.00042508
H        8.45777575      10.72679151       6.93648449      -0.00711094       0.00318272       0.00694546
H        7.02431675      10.87945150       5.92646241      -0.00554538      -0.00161025       0.00487552
H        7.61114826       9.62313600       8.94629251      -0.00728536      -0.01071718       0.00500648
H        6.40868230       8.34059006       8.84285216      -0.00407046      -0.00960511      -0.00367559
H        9.51101739       9.21386842       5.34271215       0.00277808       0.00770509       0.00730918
H        8.09339456       9.20194460       4.31881867       0.00533147       0.00834253       0.00310346
H        8.34701713      11.56436584       3.79470599       0.00594181       0.01083839       0.00970548
H        9.54820465      11.77767345       5.04729660       0.00960927       0.00558321       0.00927305
H        6.79648330      12.07630094       8.65859424       0.00209002      -0.00898838       0.00744142
H        3.97925613       8.95984724       8.30272881      -0.00156383      -0.00032883      -0.01711529
H        2.64781530      11.38893936       8.51297581       0.00104944      -0.00119429      -0.02298712
H        9.94210835      10.15643746       2.47634141      -0.00392206       0.01103011       0.00468858
H       10.70928984      11.69738562       2.88400104       0.00914551       0.00253239       0.00939528
H       11.11538911      10.23112866       3.77729766      -0.00025296      -0.00060795       0.00376277
H        4.32853800      13.82419455       9.81569033      -0.00159005      -0.01055277       0.00206426
H        5.18432969      14.13191752       8.28125998       0.00506413      -0.00547101       0.00234213
H        3.44965059      13.79786248       8.27260288       0.00333402      -0.00384009      -0.00115266
O       11.61270156       1.73657082       2.56576448       0.01234308      -0.00934756       0.00370194
O       12.27131480       4.36357091       2.60969716       0.03831181      -0.00804168      -0.02602011
O       10.60396797       3.63202633       0.67579365       0.01143098      -0.02308097      -0.00112921
O       13.15628982       2.97243456       0.52807821       0.00406873      -0.04080905      -0.00885367
Cr      11.93099470       3.28499893       1.49101032       0.01375553      -0.02206814      -0.00452769
Cl      10.89236461       7.19699624       3.56164785      -0.01215623      -0.02140030       0.02017116
Cl      13.02093912       7.63496186       1.60360679      -0.03512675       0.01407358      -0.00318398
Cl      13.51646659       8.14333584       4.43259365      -0.02000445       0.03092421      -0.01088774
C       12.63148341       7.13444454       3.25281122      -0.01429336       0.01500066       0.00100898
H       12.94361825       6.10172689       3.36341065       0.00753138       0.02314931       0.00096554
Cl      11.39126527      11.89812059       0.06303762      -0.01060958      -0.00183034      -0.01099492
Cl      13.63115847      10.20048444      -0.66360481       0.00832450       0.01740559      -0.02048191
Cl      13.98322211      12.24021665       1.40857142      -0.01635852       0.00483565      -0.00294577
C       12.87116907      11.08375581       0.66289656      -0.00894636       0.00202785      -0.01473038
H       12.56525012      10.36651792       1.41794796      -0.00201195      -0.01089738      -0.02279152
Cl      10.30327290       1.67152476       7.09965834      -0.00363605      -0.02486867      -0.02350003
Cl      12.23170046       3.44005202       5.78731399      -0.01707241       0.00292335      -0.00065731
Cl      13.15176513       0.98597502       7.05986676       0.00103632       0.00856834       0.00087059
C       11.83042438       1.77658949       6.17408738       0.00148841      -0.00390413      -0.01163436
H       11.67901502       1.23986579       5.24440483       0.01589869      -0.00056862      -0.01625800
Cl       8.41806146      15.45541490       1.24611002       0.00858070       0.00315534       0.00059707
Cl      11.23836159      14.69262281       1.80611238       0.00240079      -0.01304293       0.01549226
Cl       9.21142903      14.71517969       3.94217906      -0.00600423      -0.00058721       0.00847778
C        9.36734408      14.43112890       2.23794953       0.00136203      -0.00104892       0.00620056
H        9.25535388      13.37483803       1.99126916      -0.00649675      -0.00058400       0.00328856
Cl       4.44074978       5.45372060      12.09552167      -0.01727752       0.00471596      -0.00407310
Cl       2.87285621       4.47378095      14.36051249       0.00387660      -0.00227541       0.00060998
Cl       3.56117557       2.67283576      12.16294855      -0.00569871       0.00174762      -0.00387546
C        4.08444283       4.06495608      13.13278656       0.00125901       0.00327759      -0.00402352
H        4.99910126       3.78599151      13.64130037       0.00598305       0.00377823      -0.00959367
Cl       4.72950164       2.03466134       2.80129565       0.00771965      -0.02559222       0.00321429
Cl       1.84166495       1.55322038       2.66095276       0.00382166      -0.02178407      -0.00061207
Cl       3.47690678       0.12208064       4.63053023      -0.00166328       0.00169556       0.01911573
C        3.25138908       1.64355637       3.71533008       0.00437904      -0.01219273       0.00782987
H        3.09791360       2.43418684       4.44121270       0.00228887       0.00003970      -0.00464697
Cl       6.01075912       5.45097652       4.47243825      -0.00129180      -0.00156599      -0.02204931
Cl       8.46872860       4.42020493       3.27027288       0.00138164      -0.01742595      -0.00297143
Cl       8.42792495       5.16718492       6.10602309      -0.01351016      -0.00782676      -0.00522028
C        7.49986923       4.50741840       4.73615938      -0.00700073      -0.00443818      -0.01060428
H        7.19907933       3.50373891       5.01209449      -0.01420370      -0.00096802      -0.01053685
Cl      12.23100884       2.37364145      11.35931174      -0.01449579      -0.00496696      -0.00421715
Cl      13.20105624       0.15345387      12.99086676      -0.00690850       0.00477100       0.00136753
Cl      14.86173270       1.22328699      10.84470057      -0.01711212      -0.00382480      -0.01197874
C       13.65619244       1.61776249      12.09420024      -0.01305752       0.00419806      -0.00437757
H       14.08464165       2.31644911      12.80503176      -0.00940777       0.00624579      -0.00711341
Cl       8.01765515       2.04361417      12.28035661      -0.01804312       0.00139429      -0.00629567
Cl       8.51463586       4.67589159      11.15493088       0.00514320      -0.00060716       0.00319536
Cl       7.61732450       4.43516338      13.92360682       0.00306520      -0.00356136       0.00058077
C        8.57627743       3.69765565      12.63253372      -0.00090366      -0.00610025      -0.00150687
H        9.60110501       3.64606604      12.98763830      -0.00109687      -0.01466902      -0.00126083
Cl      13.15672462       6.39163812       7.73810762       0.01854680       0.01096979       0.00383659
Cl      10.49628137       5.79139343       8.76109059       0.01922384      -0.01199812       0.00148948
Cl      11.05994525       8.43003510       7.64649920      -0.00159679      -0.00376128      -0.00001737
C       11.42373196       6.68412758       7.55275639       0.01308251      -0.00090051       0.00733662
H       11.12079835       6.35111982       6.56492835       0.01857663      -0.00410962       0.00773200
Cl       2.71431972       6.72899807       3.78578957      -0.01389464       0.01352978      -0.00349027
Cl       2.51335896       9.53524654       4.60684533       0.02320335       0.00944722       0.00818779
Cl       2.21296466       7.40126561       6.58590030       0.03021484       0.00809581       0.00410473
C        3.01373599       7.89599795       5.06610595       0.00995632       0.00707746      -0.00785322
H        4.08045610       7.92162333       5.26072793       0.01089807      -0.00618489      -0.02224544
Cl       1.52393427       9.46689889      10.93545376       0.01587842       0.01048627       0.01001826
Cl       4.16264775      10.21204464      11.95167357       0.01592168       0.02158779      -0.02006806
Cl       2.09208962      12.26025386      11.58548780       0.01544018       0.01253499      -0.01586629
C        2.43023374      10.56597536      11.99949846       0.01944882       0.01457409      -0.00168696
H        2.07648828      10.40042665      13.01119431       0.02848570       0.01997315       0.00306684
Cl       6.71812035      12.05805852       0.78683821       0.00946447       0.01164720       0.00320067
Cl       5.10443350      14.08202433      -0.57559026       0.00205605      -0.00272223       0.00135283
Cl       3.79335485      11.96122481       0.95587957       0.01380147       0.00217766       0.00484533
C        5.20870668      13.01704828       0.82503417       0.00611466       0.00965247       0.00475600
H        5.23987578      13.63387211       1.71650196       0.00545580       0.01093536       0.00433904
Cl       5.12011959       4.73564624       8.40354343      -0.01004767       0.00433159       0.01469962
Cl       3.42383140       2.52205033       7.51767934       0.00121787       0.00488326      -0.00812948
Cl       2.27043416       4.73054741       9.05880139      -0.01620232      -0.00266271      -0.00924240
C        3.49568218       4.27182980       7.87513347      -0.00344333       0.00592770      -0.00198025
H        3.28603272       4.79177502       6.94742555       0.00141950       0.01021804      -0.00143188
Cl      11.86246742       5.75729078      12.90460977      -0.01043752       0.01990522      -0.00178152
Cl      12.53971123       7.90298691      11.04128968       0.01518478       0.00487015       0.00235146
Cl      14.64533304       6.18841930      12.13483796      -0.00830430      -0.02718715      -0.01274931
C       12.95182654       6.26590427      11.61697322      -0.00578881      -0.00243171      -0.00681970
H       12.82972885       5.59309011      10.77655113      -0.02014326       0.00125276      -0.00787362
Cl       5.30072588       7.09764262       0.83606369      -0.01431937       0.00228965       0.01784138
Cl       5.62391319       9.16881273       2.86791261      -0.01248314       0.00519391       0.01731305
Cl       7.94728256       8.22574392       1.35802005      -0.01096341      -0.00658134       0.02626356
C        6.20280302       8.53360640       1.30695331      -0.00920583      -0.00127633       0.01868013
H        6.01966378       9.30834589       0.57073675      -0.00524121      -0.00177452       0.01786621
