143
Lattice="11.277079525785743 0.0 0.0 0.0 11.277079525785743 0.0 0.0 0.0 11.277079525785743" Properties=species:S:1:pos:R:3:forces:R:3 energy=-97021.7265625 stress="-0.00631501292809844 -0.001940614776685834 0.00010330151781090535 -0.001940614776685834 -0.005339630879461765 0.001716182567179203 0.00010330151781090535 0.001716182567179203 -0.0032806338276714087" pbc="T T T"
N        6.30287995       2.03816374       4.89202750      -0.00144920      -0.00800572      -0.00343403
N        4.32481964       1.23008974       4.56481065      -0.00081265      -0.00634560      -0.00794986
C        7.43792095       4.22308660       4.77119719       0.00293034      -0.00991914       0.00549346
C        6.25411385       5.13369852       5.05758094       0.00255480      -0.01022565       0.00243902
C        7.40179672       2.85109865       5.41638718      -0.00176632      -0.01138595       0.00109506
C        6.41496986       6.48917189       4.38154300       0.00240135      -0.01216747      -0.00032216
C        5.26294291       7.44683356       4.61781361       0.00502667      -0.01021210       0.00205043
C        5.05534185       2.02121242       5.35859747      -0.00201538      -0.00805825      -0.00569600
C        6.38174994       1.24427606       3.77325001      -0.00006133      -0.00625119      -0.00406402
C        5.31372649       8.65848309       3.70047776       0.00691668      -0.00967029       0.00364906
C        5.13844926       0.73772392       3.57763659       0.00036231      -0.00516373      -0.00688684
C        2.91084565       0.94631449       4.69775768      -0.00101864      -0.00479092      -0.01158628
H        7.59228195       4.08503427       3.69963220       0.00790704      -0.00705345       0.00623530
H        8.35007752       4.69080715       5.13562106       0.00121227      -0.01185986       0.01152796
H        6.14354047       5.26852530       6.14270738       0.00142254      -0.00774824       0.00166866
H        5.32127646       4.67650848       4.70628448       0.00345331      -0.01124272       0.00265630
H        7.30400296       2.89996781       6.50185660      -0.00403358      -0.01415974       0.00047451
H        8.31837944       2.32021028       5.16698528      -0.00240430      -0.01249877       0.00252593
H        7.34358526       6.96118975       4.69695575       0.00372842      -0.01313549      -0.00402173
H        6.52466010       6.32863323       3.30307783      -0.00135272      -0.01413056      -0.00001627
H        4.32852098       6.90389832       4.47549138       0.00360325      -0.00743869       0.00293246
H        5.27945403       7.79589220       5.65868942       0.00740547      -0.01172089       0.00213528
H        4.69242967       2.56114027       6.21378893      -0.00324794      -0.00967972      -0.00589205
H        7.28355899       1.10846681       3.17635040       0.00052243      -0.00638287      -0.00269237
H        4.75406820       0.11122425       2.79914678       0.00142116      -0.00398069      -0.00786597
H        5.29783619       8.33849827       2.65505689       0.00319637      -0.00818483       0.00371547
H        4.45609329       9.31080530       3.86415430       0.00990453      -0.00679991       0.00650968
H        6.22041533       9.24067343       3.86083388       0.00885779      -0.01295194       0.00199515
H        2.75994926      -0.08819216       5.00165050      -0.00276350      -0.00658768      -0.02003124
H        2.47381104       1.61664173       5.43335516      -0.00060100      -0.01006441      -0.00718945
H        2.43062901       1.10706872       3.73470132       0.00046095       0.00345267      -0.01053140
N        4.92717982       7.87140072       9.46739120      -0.00007910       0.00130719       0.00959753
N        3.51553937       9.40830301      10.06360127       0.00625530       0.00500768       0.01313098
C        4.82642093       5.46976246       8.81138190      -0.00564273       0.00244606       0.00639710
C        3.48725722       5.42530090       8.08781142      -0.00411060       0.00465074       0.00451916
C        5.56168658       6.79180312       8.70147430      -0.00385094       0.00102572       0.00768518
C        2.83538113       4.06170698       8.23109841      -0.00446947       0.00475657      -0.00166765
C        1.46711544       3.92553819       7.58280964      -0.00320703       0.00865752      -0.00407955
C        3.84851509       8.56109076       9.08331729       0.00035995       0.00336218       0.01282287
C        5.28859552       8.29044575      10.72583853       0.00513339       0.00167501       0.00744689
C        0.86565868       2.55799760       7.86174103      -0.00674066       0.00992462      -0.00817734
C        4.40570997       9.25709606      11.09685286       0.00944433       0.00343876       0.00940979
C        2.32545566      10.24806340      10.08263069       0.00771350       0.00625741       0.01728579
H        4.70232242       5.20405464       9.86373018      -0.00713987       0.00186829       0.00582957
H        5.49072418       4.71333155       8.38120977      -0.00632808       0.00212349       0.00677259
H        3.62710742       5.66376805       7.02622601      -0.00230841       0.00799516       0.00592667
H        2.80396510       6.17684993       8.49954533      -0.00453691       0.00321211       0.00566873
H        5.61906230       7.11862735       7.66157350      -0.00450998       0.00188968       0.00839454
H        6.57917303       6.70911592       9.08151168      -0.00386888      -0.00126524       0.00617297
H        3.50879715       3.30782644       7.80740992      -0.00450008       0.00646421      -0.00399239
H        2.75294884       3.82144501       9.29758859      -0.00611896       0.00056012      -0.00311854
H        0.80471931       4.69832401       7.98573168      -0.00152707       0.00956695      -0.00395150
H        1.54383100       4.11161636       6.50478381      -0.00075142       0.01048584      -0.00313300
H        3.35731867       8.47708871       8.13041901      -0.00306373       0.00379501       0.01526518
H        6.13128363       7.87164942      11.24637404       0.00607508       0.00034698       0.00448416
H        4.32500255       9.83346726      11.99952761       0.01408229       0.00458160       0.00902474
H        0.82194818       2.39168021       8.93804901      -0.01186242       0.00847316      -0.00904185
H       -0.14883034       2.44703155       7.48090798      -0.00486553       0.01200587      -0.01268721
H        1.48207673       1.75925715       7.43596499      -0.00655185       0.00972695      -0.00662028
H        2.53669193      11.15605214      10.64078657       0.00912289       0.00256646       0.02192797
H        2.04972490      10.50488776       9.06296045       0.00827127       0.01210221       0.01904470
H        1.50219116       9.71458322      10.55802530       0.00724128       0.00532058       0.01454312
P        9.22872489       1.76133506       1.56792369      -0.00302929      -0.00238486      -0.00512268
O       10.80645544       1.21345472       1.38012468      -0.00320292      -0.00096601      -0.00694090
O        8.98425078       2.57354850       0.32293398      -0.00592792      -0.00541234      -0.00582147
O        9.24967005       2.52978190       2.88722738      -0.00149065      -0.00011396      -0.00718498
O        8.35775103       0.51715250       1.68613007      -0.00137722      -0.00264812      -0.00118022
H       11.17420737       1.13090644       2.26252333      -0.00159624       0.00098729      -0.00773293
O        7.02704207       0.85807800       9.69358091      -0.00257458      -0.00577718      -0.00891425
O        9.04392127       0.16219972       9.92279021      -0.00221661      -0.00304262      -0.00779797
O        8.66046654       1.91384782       8.53112078      -0.00273305      -0.00134480      -0.00629067
C        6.06259205       1.67663437       9.02801965      -0.00096530      -0.00145826      -0.00497498
C        4.72114616       1.13020762       9.43618217      -0.00203270       0.00090660      -0.00768258
C        8.30003157       1.08517150       9.33159887      -0.00351083      -0.00575238      -0.00513673
C       10.44814835       0.38278753       9.80312281      -0.00276227      -0.00183594      -0.00904986
H        6.20770250       2.71488215       9.33040343       0.00172833      -0.00326535      -0.00086284
H        6.22070512       1.60245505       7.94948232      -0.00128646       0.00277057      -0.00486377
H        3.90514109       1.71444162       9.01695765       0.00029543       0.00565337      -0.00453718
H        4.63709956       0.10781974       9.07206267      -0.00579016       0.00338259      -0.01262216
H        4.62670438       1.13750237      10.52264332      -0.00183197      -0.00374957      -0.00803238
H       10.76765850       0.21606960       8.77322113      -0.00458800       0.00387396      -0.01030648
H       10.89895930      -0.32808383      10.48722119      -0.00110532      -0.00520508      -0.01446101
H       10.66905442       1.39128284      10.14129973      -0.00283274      -0.00374907      -0.00439754
O        9.32438547       7.25492919       3.67440066       0.00250694       0.00836118       0.00042705
O        8.60696721       8.34390755       1.96506380       0.00438379       0.01041654       0.00156121
O       10.53072222       7.16256658       1.75693903      -0.00035882       0.00490615      -0.00020611
C       10.23905596       6.35188253       4.33168342      -0.00225382       0.00124979      -0.00342548
C       10.03975819       6.53977278       5.81666749       0.00129532      -0.00150000      -0.00311434
C        9.57965711       7.53770422       2.39710282       0.00180244       0.00778157       0.00052989
C        8.80151731       8.86642608       0.64194891       0.00504796       0.00976161       0.00188562
H       10.02615840       5.33435796       3.99679354      -0.00961007       0.00385273      -0.00526522
H       11.25344935       6.59109588       4.02354451      -0.00148767      -0.00499348      -0.00409541
H       10.70106684       5.87078295       6.36880209      -0.00312699      -0.00808051      -0.00654574
H       10.24831769       7.56827092       6.10959949       0.00996802      -0.00439793      -0.00051228
H        9.01588070       6.31383569       6.11302421       0.00040519       0.00584882      -0.00243679
H        9.83188796       9.19049191       0.51483476       0.00527209       0.00853124       0.00234380
H        8.15257430       9.73367805       0.56091407       0.00646216       0.01054451       0.00188385
H        8.58437938       8.08308164      -0.08805274       0.00467496       0.01035792       0.00235721
O        2.93111431       4.07812213       1.11471285      -0.00323379       0.00079822       0.00103473
O        5.03858975       4.23583225       0.63823826      -0.00284472      -0.00471743       0.00521429
O        4.23748928       2.25949594       1.40634290      -0.01107329      -0.00375295      -0.00665259
C        1.85695372       3.35465045       1.79945849      -0.00806722       0.00085405      -0.00744574
C        0.58581398       4.13592127       1.71269863      -0.00421166       0.00616780      -0.00767645
C        4.08367021       3.41839676       1.08757203      -0.00583328      -0.00530767       0.00009638
C        6.39221051       3.69126232       0.63835495      -0.00504234      -0.00893094       0.00405162
H        1.76363248       2.37057089       1.34285147      -0.01004550       0.00427806      -0.01325884
H        2.18459937       3.23947496       2.83682502      -0.01284194      -0.00628020      -0.00727206
H       -0.19680818       3.60998319       2.26554092      -0.00823236       0.00569782      -0.01439618
H        0.70481709       5.11751710       2.15535051      -0.00201285       0.00261807      -0.00120743
H        0.22780051       4.22431950       0.68789720       0.00106884       0.01436661      -0.00829311
H        6.85411899       3.86711578       1.60616115      -0.00572135      -0.01517149       0.00505033
H        6.94219987       4.22963589      -0.12584049      -0.00276062      -0.00692362       0.00765453
H        6.39600107       2.62861363       0.42938448      -0.00817417      -0.00738594      -0.00126809
O        9.64018671      10.35210790       5.63881151       0.00273398       0.00260594       0.00139120
O        8.86546864       9.69277402       7.53192457       0.00282589      -0.00618813      -0.00238386
O        7.39067929      10.34189108       5.94106769       0.00403178      -0.00195663       0.00038218
C        9.47502399      10.69197616       4.22611329       0.00318587       0.00428808       0.00219055
C       10.74360919      10.26494436       3.54484406       0.00340614       0.00545475       0.00263815
C        8.52472888      10.16185359       6.31978378       0.00174391      -0.00171825      -0.00047529
C        7.74021353       9.27511027       8.30374480       0.00352678      -0.00974149      -0.00408236
H        8.60922151      10.16411689       3.83822280       0.00398585       0.00449279       0.00125925
H        9.30488591      11.76453829       4.13832635       0.00312639       0.00373119       0.00303505
H       10.63086213      10.40530918       2.47235105       0.00325797       0.00471839       0.00290784
H       11.59882033      10.85163032       3.88865693       0.00232613       0.00640996       0.00237413
H       10.96836506       9.22239512       3.75259554       0.00416075       0.00614066       0.00297833
H        7.05883485      10.10242840       8.48663638       0.00392224      -0.01081455       0.00016805
H        8.14516368       8.92087471       9.24478199       0.00406493      -0.01404579      -0.00632879
H        7.22378185       8.48275054       7.76801399       0.00350080      -0.00723192      -0.00718036
O        2.03973091       8.43374976       4.28745060       0.00424598       0.00931457       0.00553551
O        2.22457835       8.10833615       2.15029195       0.00347793       0.00761521       0.00558333
O        2.30913215       6.31552131       3.53053431      -0.00527121       0.01391947       0.00541738
C        1.96282136       7.91373150       5.63335222       0.00230229       0.00881004       0.00516569
C        1.35549299       8.97519138       6.51448534       0.00512016       0.01054701       0.00485831
C        2.20278303       7.50201960       3.33519986       0.00110886       0.00124431       0.00758643
C        2.28489839       7.18360007       1.04180401       0.00154803       0.00580269       0.00764694
H        1.36734647       7.00360886       5.62775762      -0.00028992       0.01154116       0.00464992
H        2.97217644       7.64086421       5.94542723       0.00119546       0.00629288       0.00504805
H        1.14796945       8.55443632       7.50116868       0.00445864       0.01068334       0.00460368
H        2.02171620       9.83296722       6.62975854       0.00648813       0.00875089       0.00523209
H        0.40944961       9.33384009       6.11435786       0.00591135       0.01171897       0.00541918
H        3.22639457       6.63961775       1.05054119      -0.00120926       0.00219439       0.00980917
H        2.18859056       7.79457884       0.15275356       0.00597062       0.00545463       0.00692078
H        1.45531985       6.49233488       1.09274947      -0.00140756       0.01018244       0.00674113
