146
Lattice="11.8692939924567 0.0 0.0 0.0 11.8692939924567 0.0 0.0 0.0 11.8692939924567" Properties=species:S:1:pos:R:3:forces:R:3 energy=-1692140.75 stress="-0.0001385908981319517 -0.0026826263638213277 0.0019171959720551968 -0.0026826263638213277 0.0002766090037766844 -0.0012003066949546337 0.0019171959720551968 -0.0012003066949546337 -8.956303076956829e-07" pbc="T T T"
Ac      13.70849071      13.98537051       7.49035381       0.00260472       0.00690888      -0.00247668
Ac       6.57936414      10.44982949      11.11225561       0.00412747       0.00854845       0.00177585
S        4.35390829       2.06342427       5.71244746       0.00873446       0.00751913       0.00528114
S        6.29893627       5.98632073       5.10312498       0.00401598       0.00461149      -0.00574982
S        3.63742381       4.02574268       5.21949826       0.00365448       0.00376283      -0.00273566
S        4.71708308       5.25310093       6.39735823      -0.00007074       0.01131511      -0.00654245
O        4.49256115       2.09808360       7.18204675       0.00399050       0.01162912       0.00540110
O        5.67249988       6.58541257       3.94940560       0.00118285       0.00568455      -0.01026571
O        5.52921981       1.69706273       4.97455551       0.01357197       0.00973176       0.01001415
O        3.12206930       1.29780028       5.38861042       0.01293170       0.00244256       0.00284467
O        6.89250612       6.92194092       6.05698420       0.00734448       0.00231260      -0.01324034
O        7.15108156       4.83461800       4.82963061      -0.00309449       0.00029683      -0.00867151
S        0.93581614       7.30883897       2.98813107       0.00187343       0.00323325      -0.00712115
S        0.90690370      11.79230022       2.22804708      -0.01268384       0.00589615       0.00259745
S        0.15937512       9.09833287       3.97899379      -0.00086743      -0.00133708      -0.00178665
S        1.64367797      10.47406481       3.82914537      -0.00463622       0.00237849      -0.00473450
O        1.80151185       6.67321139       3.96224525       0.00677466       0.00483686      -0.01410711
O       -0.47306519      12.06802590       2.59363002      -0.01239669      -0.00071514       0.00472459
O        1.55130525       7.74902096       1.76045955      -0.00120741       0.01232576      -0.01057696
O       -0.34369861       6.61215113       2.79802740       0.00595391      -0.00003242      -0.00931491
O        1.82892190      12.91168843       2.42397329      -0.01576406       0.00778222       0.00560224
O        1.08921600      11.06110513       0.99458620      -0.01177847       0.01149088      -0.00203991
S        3.67391676      11.15115288       9.58504919      -0.00386938       0.00691804       0.00666759
S        5.24789819       7.15575181       9.74937108       0.03420407      -0.01591411      -0.02521247
S        2.71203352       9.25410236       9.28880385      -0.00588843       0.00578564       0.01301416
S        4.08182151       8.18956611       8.27616932      -0.01047913       0.00307228       0.01008557
O        4.93737196      11.15433464       8.85258014      -0.00452361       0.00284961       0.00680030
O        4.35242517       6.33529540      10.53602399       0.01063743       0.01077834       0.01569362
O        3.96049324      11.25037503      11.02307045      -0.00475219       0.01069953       0.00678771
O        2.68480515      12.13348216       9.10774266      -0.00276669       0.00715726       0.00310492
O        6.23027094       6.49215155       8.94002606      -0.03464928       0.02788198       0.01891580
O        5.84824737       8.24590897      10.58898573       0.00815378       0.01143703      -0.00465834
O        5.34636389       9.43130121       1.32255947       0.00563586      -0.00732517      -0.00453448
C        4.03885237       8.79481329       1.44306066       0.00245366       0.00738212       0.00020693
H        3.95462353       8.33755473       2.42392878      -0.01215685       0.02822466       0.00781116
H        3.92496981       8.03625313       0.67192583       0.00099518      -0.00683007       0.01505694
H        3.28234876       9.56137195       1.31957255       0.01272836       0.01376674      -0.02018713
H        5.97139075       8.94455562       1.86952970       0.00949928      -0.03185070      -0.03326693
O        6.47487653       9.53938261       6.27159510      -0.00465104       0.00212622       0.00750351
C        5.36516676      10.00164340       5.50888124      -0.00081380       0.00382869       0.00358525
H        4.41110379       9.69198305       5.94565584      -0.00308853       0.00841770       0.00232941
H        5.41112152       9.61788139       4.48621282       0.00079968       0.00126135       0.00458419
H        5.40488689      11.08828227       5.48629602       0.00268352       0.00372276       0.00102094
H        6.55728391       8.57028223       6.14445557      -0.00084846       0.00265265       0.00171395
O       10.31637685       8.56131342       8.94549917      -0.01392382       0.00175334      -0.00360870
C        9.48650697       7.50375471       8.44655417      -0.01472881       0.00150860      -0.00355645
H        9.04821109       6.91701892       9.25716932      -0.01689245       0.00354236      -0.00364876
H       10.06270662       6.84057036       7.80454593      -0.01393479      -0.00014143      -0.00127241
H        8.67522311       7.94724053       7.87746449      -0.01295263       0.00112613      -0.00617480
H       11.19151069       8.17185726       9.11031416      -0.01541366       0.00109141      -0.00040039
O        8.05126238       9.80346361       1.39790508      -0.00243208      -0.01284119      -0.00122009
C        8.12310687      10.03113179       2.82045436       0.00332756      -0.00180504      -0.00329354
H        7.43889384      10.83532022       3.07694723      -0.00375040      -0.00750110      -0.00506673
H        9.13943478      10.31503754       3.09527179       0.00163931       0.01167641      -0.01274384
H        7.83326542       9.12930760       3.36673658       0.01588915      -0.00012141       0.00539170
H        8.74327694       9.10299149       1.21707293      -0.00232476      -0.01330879       0.00002624
O        6.52194291       3.19175285      10.82120323       0.01776680      -0.01741242       0.00937621
C        6.72118501       1.82637138      10.99285369       0.01000517      -0.01761764       0.00956942
H        5.77439693       1.30962379      11.24710651       0.00516617      -0.01321800       0.00048395
H        7.46043452       1.60046893      11.78372551       0.00217171      -0.02232581       0.01583827
H        7.09205211       1.43351231      10.03134068       0.01746069      -0.01925445       0.01294568
H        6.22705934       3.62373894      11.65564366       0.00868927      -0.01712958       0.00599773
O        9.18702839       2.56459538       7.74361224       0.01024453       0.00087363      -0.00423685
C        8.24027498       3.55048269       8.20042885       0.00135761      -0.00738492      -0.00477223
H        7.23895284       3.31323166       7.83741518       0.00486377      -0.01373082      -0.00984113
H        8.51811847       4.54986427       7.86265210      -0.00478104      -0.00457171      -0.00084783
H        8.22414579       3.53207493       9.28574918      -0.00233237      -0.01089336      -0.00496596
H        9.10822464       2.48776600       6.76289071       0.01040617      -0.00038009      -0.00397882
O        2.75930319       4.08664568       9.07302992       0.00024086       0.00701386      -0.00116631
C        3.32756694       3.30279865      10.16646904       0.00786187       0.01468172       0.00063020
H        3.71970873       3.97408084      10.92167353       0.00734518       0.02027085      -0.00417489
H        4.13373878       2.67307424       9.78942830       0.00910449       0.01631933       0.00091992
H        2.52300014       2.71955951      10.61234083       0.01173976       0.01339483       0.00560559
H        3.36649890       4.82650331       8.92872280       0.00018978       0.00255048      -0.01530399
O        7.42635578      10.18527671       8.63121787      -0.00211954       0.01269916       0.00081493
C        8.19517291      11.22005922       7.99669527      -0.00210121       0.00985197      -0.00303092
H        7.56442270      12.07551752       7.74374985      -0.00299525       0.00665677      -0.01147906
H        8.63994283      10.82392415       7.08585317       0.00301038       0.00462840       0.00170487
H        8.98125808      11.53211892       8.67968932      -0.00570214       0.01660578      -0.00198832
H        6.83722581       9.85586818       7.89829736      -0.00200677       0.00881100       0.00193876
O        5.99108665       4.82520417       1.00962023      -0.00813127      -0.01035216      -0.00893384
C        7.33209736       5.18573977       1.34695856      -0.01284561       0.00689051      -0.00697774
H        7.35813796       5.92572870       2.14674112      -0.02473341       0.01106989      -0.01097837
H        7.87776776       5.55547170       0.47491410      -0.01448649       0.00747912      -0.00740641
H        7.81393330       4.27628894       1.70341697      -0.00366950       0.01517963       0.00048781
H        5.52214694       5.60714706       0.69877755      -0.01149443      -0.02114633      -0.02734605
O        0.21923146       3.42135826       5.87164014      -0.00035638      -0.00076184      -0.00036272
C        0.40271844       3.48356169       4.42783669      -0.00131327      -0.00421428      -0.00067383
H       -0.53404151       3.26076226       3.92346901       0.00167334      -0.01919920       0.00104646
H        1.12182539       2.71604144       4.15017269       0.00854242       0.00425069       0.00244688
H        0.76026970       4.47331181       4.15245288      -0.01361720      -0.00110269      -0.00479163
H       -0.54394318       3.98995771       6.08151832      -0.00571758      -0.00735119      -0.00154714
O        0.59201195      12.14828173       6.22407353       0.00943840      -0.00098529       0.00195137
C       -0.79514230      11.76519401       6.12324708       0.00899909      -0.00064808       0.00593483
H       -1.37274149      12.42703992       6.76273356       0.01104321      -0.00023778       0.00742839
H       -0.91569204      10.73322540       6.45352010       0.00916762      -0.00049007       0.00670972
H       -1.12903810      11.88212283       5.09212097       0.00639971      -0.00104303       0.00674483
H        1.06735059      11.67308706       5.48941425       0.00686265      -0.00122458       0.00047666
O        9.72305697       5.14095570       5.77310641      -0.00437745      -0.00439933       0.00090995
C        9.85061629       6.44019240       5.17036639       0.00888798      -0.01052128      -0.00794068
H       10.90118747       6.70230125       5.17154647       0.01200083      -0.02423320      -0.01402012
H        9.27716616       7.17274424       5.73392456       0.02050051       0.00053751      -0.01091111
H        9.50434305       6.42003986       4.13874012       0.00420964      -0.01285031      -0.00641257
H        8.76616611       4.94919500       5.72852445      -0.00598681       0.00380597       0.00191744
O       11.54427832       2.80392609       8.72982690       0.00660351       0.00581538       0.00277185
C       11.29336839       3.61933875       9.89674886       0.00106007      -0.00489663       0.00868082
H       10.54739216       3.13812212      10.52857783      -0.00807364      -0.00684339      -0.00421658
H       10.93201589       4.60198336       9.58500806       0.00930446       0.00020263       0.01636228
H       12.20764285       3.71739816      10.47503197      -0.00406265      -0.01711868       0.01833883
H       10.63680665       2.69401650       8.27945833       0.00807232       0.00652116      -0.00027421
O        9.25157019       2.47139267       5.08290446       0.00132938      -0.00006264      -0.00446557
C        8.50679680       1.96643374       3.96909356       0.00613350      -0.01385661      -0.00054006
H        9.18646491       1.60622975       3.19239960       0.00826424      -0.00077528      -0.00415692
H        7.84567868       2.73773465       3.57727910      -0.01007539      -0.02683109       0.00332130
H        7.89413583       1.14574360       4.33237244       0.02487598      -0.02578136       0.00264493
H        9.49441225       3.38931727       4.89964624      -0.01432187       0.00383855      -0.00558236
O        0.80426795       6.98358987       8.68933323      -0.01213738       0.00172675       0.00926286
C        0.97673760       6.82533058       7.27255453      -0.00998813      -0.00385826       0.01009250
H        1.99636373       6.53641608       7.01437862      -0.00693420       0.00519638       0.01213148
H        0.77406701       7.79052934       6.81218890      -0.01892629      -0.00802490       0.00531773
H        0.27405736       6.09438337       6.86747866      -0.00174370      -0.01403308       0.01423965
H        1.14835028       6.20341261       9.13644890      -0.01205520       0.00378650       0.01220013
O        5.62287542       1.99099882       2.00532220      -0.01706132       0.00131375       0.00041541
C        5.33929284       0.61392082       1.93397557      -0.00410019      -0.00167292       0.01117225
H        5.07705409       0.17912447       2.89930024      -0.00698225       0.00466451       0.01320481
H        6.24094529       0.06956125       1.58431261       0.00135140       0.00205406       0.02011091
H        4.50686951       0.43465686       1.25067419       0.00131750      -0.01170092       0.00786558
H        5.64847248       2.23747657       2.93673094       0.00104493       0.00592131      -0.00160132
O        9.16766577      10.16546575      10.75348324      -0.00260518       0.00595003      -0.00193936
C       10.31868992      10.72475053      11.43150135       0.00040223      -0.00606546       0.00212466
H       10.94512045      11.25927423      10.71604726       0.00248593      -0.00240850       0.00697383
H       10.90695425       9.94824324      11.91372333      -0.00341198      -0.01385701      -0.00605571
H        9.97410822      11.41568769      12.19633641       0.00449152      -0.01195405       0.00922720
H        9.52848616       9.56339743      10.04783840      -0.00735639       0.00618526      -0.00509906
O        9.73195770       7.80412724       1.24976841      -0.00315207      -0.01180725      -0.00382215
C       10.22211063       7.09378297       0.11857413       0.00318017      -0.00553440      -0.00497296
H        9.45758039       7.12290639      -0.65272188       0.00625464      -0.00279933      -0.00786954
H       10.42492892       6.05538094       0.38875922       0.00477279      -0.00620148      -0.00873995
H       11.14556352       7.54043463      -0.26059699       0.00410640      -0.00213033       0.00120818
H       10.34793172       7.56371680       1.97706226      -0.00155523      -0.00891359      -0.00401018
O        1.33994595       3.22670364       0.74373226       0.00023490       0.00752538      -0.00010407
C        2.20245154       4.22854917       1.27091064       0.00198519       0.00503445       0.00147521
H        2.16103314       5.09215588       0.60673939       0.00331961       0.00607765       0.00237447
H        3.23847540       3.87994971       1.33974225       0.00135356       0.00301063       0.00089646
H        1.88799998       4.56260629       2.26170028       0.00242999       0.00436364       0.00170064
H        1.46033682       2.43359309       1.29352698      -0.00447971       0.00740367       0.00121142
