149
Lattice="11.731413683755463 0.0 0.0 0.0 11.731413683755463 0.0 0.0 0.0 11.731413683755463" Properties=species:S:1:pos:R:3:forces:R:3 energy=-1873951.875 stress="-0.00038536114152520895 -8.626882481621578e-05 0.0003694689949043095 -8.626882481621578e-05 0.0005706042284145951 0.0011813135351985693 0.0003694689949043095 0.0011813135351985693 0.0006950041279196739" pbc="T T T"
Ac      10.22062719      11.34746598       2.10414971      -0.00236783      -0.00336093       0.00739376
Ac       4.39227500       9.62543556      -0.00312701       0.00590403      -0.00738291      -0.00248349
O        7.78831679       8.21213788       3.01898794       0.00896823      -0.01316097       0.00008310
O       10.31692781       6.96666718       2.42036445       0.01170892      -0.00427747       0.00300163
O        9.38843987       7.16357421       5.15965910       0.00659300      -0.01002106       0.00265145
O       10.23018384       9.56241047       3.68410808       0.00227004      -0.00573862       0.00566494
Mo       9.40498906       7.93968545       3.57905566       0.00474501      -0.00720114       0.00185627
O        6.30653971      11.07605608      11.33952810       0.00165820      -0.00197791      -0.00543116
O        8.49789277      10.91288195       9.46215686       0.01105357       0.01609604       0.00331652
O        8.85373753       9.82024475      12.09513452       0.00320134       0.00298676      -0.00095111
O        8.88868100      12.50875242      11.88098485      -0.00503292       0.00387135       0.01207284
Mo       8.09506942      11.09499471      11.13596398       0.00268700       0.00518667       0.00376222
O        4.93441793      10.00577880       2.34850820       0.00915843      -0.01113993      -0.00273747
O        4.63679007       7.48650850       3.62236960      -0.00746489      -0.00797689      -0.00491177
O        2.73654746       8.91528805       1.60434290       0.00147188       0.00415728      -0.00123921
O        3.29811775       9.80756642       4.64514835       0.00700122      -0.00075269      -0.00066805
Mo       3.74841636       8.92289095       3.22783018       0.00490365      -0.00681737      -0.00332424
N        5.78222162       4.80157126       8.10996199       0.01040620       0.00441048      -0.00456938
H        6.07871050       4.14846162       8.83329682       0.01822317       0.00471485      -0.00758687
H        6.42772468       5.58106972       8.18172358       0.00872362       0.00635852      -0.01033279
H        6.00150815       4.35434280       7.21779692       0.00230117       0.00551886      -0.00667374
N        3.19756404       6.26614113       0.13356252       0.01489879       0.01116274      -0.00591189
H        2.67389759       6.29500360      -0.73877196       0.00273213       0.00331671       0.01712178
H        4.18532623       6.19834765      -0.06436965      -0.03198442      -0.00077495       0.01241778
H        2.99856886       7.09791801       0.68761173      -0.00048418      -0.00774217      -0.00268672
N        7.13935005       7.97117054       6.91790933       0.00272449       0.00010732      -0.00762513
H        7.91999046       7.79774753       6.28042515       0.00223076      -0.00533052      -0.00619736
H        6.36393437       7.42962865       6.54774696       0.00043315       0.00152057      -0.00610321
H        7.39809033       7.55822410       7.80637302       0.00103004       0.00290322      -0.00612181
N        0.98271491       3.26005763      10.53437939      -0.00176972       0.00025517       0.00260222
H        0.09693536       2.82938620      10.29183385      -0.00326522       0.00678355      -0.00036692
H        0.89407490       3.67792857      11.46174907      -0.00307986       0.00455276       0.00005142
H        1.67583539       2.52598324      10.59978689      -0.00877115      -0.00713232       0.01137739
N        1.90880031       7.49977004       3.70528943      -0.00614113       0.00499386      -0.00314842
H        0.97866762       7.86586697       3.51524079      -0.00404301       0.00958787       0.00189687
H        1.88918802       7.13099457       4.65313201      -0.00423382      -0.00036883      -0.00475881
H        1.99821248       6.69073509       3.09474746      -0.01175230       0.00668219      -0.00723681
N        7.64966715      11.35837711       2.90985028      -0.00250638      -0.00515905       0.00603635
H        7.08703401      12.18135208       2.70413127       0.00536087       0.00224075       0.01646903
H        7.54083707      11.22523291       3.92865716      -0.00414874      -0.01546442       0.00424954
H        7.11849058      10.57064771       2.53529334      -0.01016970       0.00325103      -0.00187745
N        1.02115285      11.01687844       3.19425964       0.00162941       0.00560078       0.00696576
H        1.54305894      10.40695343       2.56016677       0.00265378       0.00680512       0.00695202
H        0.80893787      10.42329698       3.99346126       0.00932704       0.00730333       0.01040217
H        1.70274083      11.67621207       3.55596855      -0.00182742       0.01199740       0.00100783
N        4.95535694       1.43927255       2.94353550      -0.00033674      -0.01055154       0.00004031
H        4.99428616       1.77058824       1.98691447      -0.01003809      -0.00950561      -0.00032675
H        4.17972611       1.92041841       3.38381424       0.00439486      -0.01141602       0.00900741
H        4.75994485       0.43994845       2.91747081       0.00194703      -0.01015860       0.00180785
N        6.67323805       2.97262973       5.45231086      -0.00325392      -0.00267860      -0.00693670
H        6.78320618       2.36959602       6.26628015      -0.00746711      -0.00187252      -0.00601007
H        7.59817057       3.31942717       5.21120933      -0.00211184      -0.00313041      -0.00325541
H        6.37264865       2.37642892       4.68425439       0.00088324      -0.00421193      -0.00751343
N        3.68303184      -0.02017828       9.83715652       0.00606677       0.00173610       0.00797600
H        2.72142425       0.17623182       9.57614664       0.00819486       0.00620610       0.00449991
H        4.11239455      -0.34281916       8.97312163       0.01101619       0.00709680       0.00841492
H        4.11955758       0.88649211       9.98043068       0.00732264      -0.00012350       0.01692606
N        0.87784788       4.84798238       1.64871785      -0.00648782       0.00237215      -0.00482580
H        1.12154893       4.48674526       2.56863594      -0.00668550      -0.00359394      -0.00404565
H        0.21340115       5.60310854       1.80553095      -0.00649699       0.00110281       0.00126117
H        1.72478169       5.23726917       1.23498877      -0.00786836       0.00207933      -0.00083271
N        1.35659910       3.76743584       4.70019406      -0.00279775      -0.01481692      -0.00350067
H        1.08299298       4.62283747       5.19495719      -0.00000127      -0.01522164      -0.00147901
H        2.32987459       3.91128682       4.41589743      -0.00218492      -0.01619243      -0.00385901
H        1.34799545       3.02274054       5.38922958      -0.00447620      -0.01712415      -0.00628951
N       11.60218023       9.19494868       0.84658521       0.00267561       0.00244707       0.00345868
H       11.36348801       9.11155859      -0.13558370       0.00165665       0.00528268       0.00319707
H       11.13550910       8.39606540       1.29345645       0.00586181      -0.00032291       0.00135266
H       12.60606423       9.02404732       0.95587076       0.00324953       0.00589643       0.00215665
N        1.48855624       6.04861967       9.22401492       0.00382948      -0.00083502       0.00336236
H        2.03875077       6.05877106       8.36808349       0.00130678       0.00324899       0.00013623
H        0.53186489       6.23787101       8.93860107       0.00278409      -0.00111934       0.00823102
H        1.46617114       5.08111265       9.55760828       0.00779391      -0.00087450       0.00050594
N        6.78206709      10.87374027       5.71037877      -0.00163883       0.00033885       0.00503343
H        6.59366269      11.69039470       6.28073021       0.02470273      -0.00529540       0.01918481
H        7.01878947      10.09856649       6.32903251      -0.00846396      -0.01350519      -0.01108728
H        5.90893590      10.60921638       5.26281034      -0.01337281       0.02626655       0.01561580
N        9.69028443       5.25698222       7.72994986      -0.00598675       0.01207471       0.01712900
H        9.21344319       5.88345787       7.08426817       0.01953677      -0.00385669      -0.01408904
H        9.03740206       5.01130259       8.46485165      -0.03492954       0.03237269      -0.00385621
H        9.84536374       4.39585596       7.21406201       0.00677456      -0.00217339       0.04852110
N        6.39487000       1.28316473       8.18869210      -0.00247189       0.00036141      -0.00736442
H        5.39645708       1.35744286       8.01398671      -0.00360971       0.00326700      -0.00109067
H        6.61670306       1.91998606       8.95637210       0.00595015       0.00810988      -0.01642258
H        6.62360566       0.34708376       8.50600683      -0.00480799       0.00435723       0.00315823
N        4.26169263       4.52612976       3.55822646       0.00052369      -0.01457990       0.00788112
H        5.03790310       4.13943650       4.09124356       0.00035884      -0.00664658       0.01260531
H        4.37100411       5.53981986       3.60871400      -0.00672797      -0.01281401       0.00401847
H        4.42474033       4.28464701       2.58710807       0.00714518      -0.01625276       0.00929575
N        0.08658478       1.95985077       2.05591031      -0.00781494      -0.00025529       0.00170089
H        0.25901791       2.23403629       3.02544968      -0.00653417       0.00572233      -0.00045216
H       -0.05235331       2.85966013       1.59003934      -0.01563680      -0.00418046      -0.00219545
H        1.00173067       1.66686269       1.72389074      -0.00677577       0.00372157      -0.00117964
N        9.61713738       1.73731682       7.99253270      -0.00873770       0.01182777      -0.00520712
H       10.08927372       1.83589340       7.10072585       0.01012914      -0.01544252       0.00292461
H        8.62228304       1.69676606       7.77766290      -0.00353574       0.01142037      -0.02485177
H        9.83389303       0.80285100       8.32874380      -0.02319171       0.02041546       0.02412198
N        6.05030949       7.60917285       0.90737329       0.00445598      -0.01033199      -0.00263667
H        6.78533805       8.02159857       1.50450606       0.00729075      -0.01045064      -0.00578776
H        5.56718178       7.02304072       1.58785467       0.00445286      -0.00646845       0.00186923
H        6.53557062       6.99294602       0.26248676       0.00064491      -0.01456757      -0.00054544
N        3.50956836       2.58557724       7.53445798      -0.00057247       0.01006922       0.00409265
H        3.74022541       2.58148089       6.54482421       0.00164061       0.02026350       0.00470838
H        3.94704582       3.43291628       7.89289014       0.00195359       0.00477038       0.01341497
H        2.51047299       2.75463611       7.58106487       0.00029173       0.01436088       0.00322526
N        5.49485863       8.26324648       9.55269726       0.00473461      -0.00461376      -0.00373054
H        5.73431063       8.76795766       8.69907735      -0.00054722      -0.00312907      -0.00406647
H        4.92787026       7.47539265       9.24729080       0.00744998      -0.00727740      -0.00239514
H        6.39678217       7.85373969       9.84823641       0.00788507      -0.00034505      -0.00645636
N       10.51200303       9.76142001       7.27271591       0.00407395       0.00126901      -0.00617841
H       10.77506711       8.80606075       7.49322779      -0.00309703      -0.00014458      -0.00423649
H       10.11866370       9.70769480       6.33623639       0.00421974       0.00246195      -0.00618373
H        9.74629081      10.00825432       7.89705743       0.00572831       0.00777567      -0.00710513
N        9.58993323       5.06335379       0.25112143      -0.01835310       0.00487792       0.00546947
H       10.47110502       5.03267337      -0.25228005      -0.01767567      -0.00843999       0.00820217
H        9.45042326       4.12007776       0.59642806      -0.03334027       0.00733668       0.00628480
H        9.76218486       5.66471671       1.06163072      -0.01273097       0.00360288       0.00456291
N        7.71440269       3.14087976      10.25788219       0.00923759      -0.00109115      -0.01154390
H        7.82648085       4.04351299      10.71072201       0.01544233       0.00381347      -0.02559544
H        8.45287536       3.08422554       9.55760140       0.02080604      -0.02738737       0.00659180
H        7.99710781       2.45658717      10.95708685      -0.01874465       0.00765162       0.00847998
N        8.31582686       7.27342811      10.29207736       0.00736713       0.01035985      -0.01014465
H        8.56664490       8.05792366      10.89274458       0.00329935       0.00998472      -0.00770911
H        8.91948814       7.34552833       9.47892323       0.01379523       0.00900704      -0.00494189
H        8.63279874       6.43759986      10.79624846       0.00223801       0.01015727      -0.00727618
N       10.07242778       0.87515216       4.60553896      -0.00781777       0.00237864       0.00062370
H        9.84042018       1.87317069       4.63318548      -0.00538011       0.00376076      -0.00507163
H        9.32838958       0.39626954       5.10948020      -0.00812614       0.00675881       0.00242785
H       10.91016514       0.76424800       5.18196588      -0.00660980       0.00388454       0.00002855
N        9.86175379       4.08957500       4.35899915      -0.00136752      -0.00521493      -0.00779689
H       10.88018653       4.06094812       4.31816455      -0.00141364      -0.00503286      -0.00112066
H        9.64549802       5.00942678       4.74514007      -0.00379924      -0.01213359       0.00559397
H        9.55961031       4.15032960       3.39118655       0.00470287       0.00883522      -0.00888856
N        2.24955628       8.95575603       9.81807354       0.00385302      -0.00091706       0.00107485
H        1.39249868       9.49632638       9.88076942       0.00443971      -0.00116581       0.00591405
H        1.96123875       7.96724577       9.81956141       0.00429535      -0.00082451      -0.00034670
H        2.58106032       9.11342372       8.86946844       0.00067418       0.00179698      -0.00013340
N        3.69253887       6.99901384       6.65612844      -0.00186607       0.00576893       0.00261251
H        4.08159232       7.91235492       6.86354405      -0.00256610       0.00762686      -0.00608621
H        3.91488847       6.86449748       5.67082850      -0.00594920      -0.00108780       0.00198907
H        4.23650131       6.30433774       7.16558274       0.00155587       0.00991838       0.00406433
N       12.08556607       6.44324712       6.18444762       0.00448805      -0.01257116       0.00215998
H       12.81646729       7.03180870       6.56971472       0.00622752      -0.00904194      -0.00441907
H       11.60070339       5.99679817       6.95849409       0.00895463      -0.00515426       0.00826059
H       11.37198780       7.01766995       5.74259353       0.00337484      -0.01628542       0.00056811
N        0.73054831       0.48949167       6.91258617      -0.00208817       0.00222611      -0.02212954
H        1.71737928       0.25957643       6.88409218      -0.00679884       0.00000001      -0.03421321
H        0.20582150      -0.37381487       7.09082610      -0.00325459       0.00183903      -0.01480155
H        0.58350228       1.09446043       7.71313224       0.00790675       0.00156225      -0.02194031
