137
Lattice="13.409338848488712 0.0 0.0 0.0 13.409338848488712 0.0 0.0 0.0 13.409338848488712" Properties=species:S:1:pos:R:3:forces:R:3 energy=-1587220.75 stress="-0.0011985709425061941 -0.0006616134196519852 -6.908931391080841e-05 -0.0006616134196519852 -0.0007502153166569769 -0.0003579408803489059 -6.908931391080841e-05 -0.0003579408803489059 1.7708016457618214e-05" pbc="T T T"
Ac      -0.60344544      10.43695324       5.64751756      -0.01629107      -0.00688894      -0.00012058
Ac       4.27643306      14.32194902       5.76662906       0.03606361      -0.00779259       0.00409447
S        1.02429045       8.78335684       3.40504496      -0.00699218       0.01248407       0.00416392
S        1.22505854       8.29505700       5.41778443      -0.00934713      -0.01551199      -0.00310698
O        0.25569276       7.75937467       2.75986920      -0.00700007       0.02405658      -0.01282749
O        2.30394366       9.13557605       2.85471493      -0.00480834       0.02458827       0.01584673
O        0.16047551      10.07916664       3.51480074      -0.00912568       0.01363885       0.00600898
S        6.84462194      11.54991319      11.42658003      -0.01698685      -0.00568423      -0.00209773
S        8.12897279      12.11961265      12.89656186      -0.02619649       0.00767602       0.00668228
O        5.81652638      12.46825155      11.05063116      -0.01927051      -0.00853352      -0.00948369
O        6.63979079      10.14911738      11.24216529      -0.00022573      -0.00423654      -0.00212906
O        8.30215762      12.04158224      11.06018147      -0.01094291       0.01097405       0.00116211
S        7.11175431      13.05686287       6.18960658       0.02994253      -0.02530745       0.00924790
S        6.85248602      14.52305524       4.71958310       0.03697544      -0.02474334       0.00731722
O        6.93177655      11.75371617       5.58803894       0.03047026      -0.02473173       0.00787348
O        5.88186283      13.33926215       7.08412118       0.02814993      -0.02263367       0.00453022
O        8.33323597      13.29314498       6.90173801       0.02791303      -0.02776428       0.01335274
C        5.24798998       7.73624404       8.30259993      -0.00001538       0.00415790      -0.00289943
C        3.73453949       7.64921839       8.47948343       0.00019541       0.00444442      -0.00447101
C        5.74877898       9.17266619       8.18823915       0.00196680       0.00299639      -0.00179730
C        3.17734915       6.22992496       8.43084908       0.00280470       0.00339356       0.00244760
C        7.26212411       9.28832950       8.09555257       0.00236690      -0.00267747       0.00179847
C        1.66983226       6.17579358       8.64805153       0.00400037       0.00050077       0.00810440
H        5.74370990       7.24329940       9.14712812      -0.00116611       0.00428713      -0.00231710
H        5.54349249       7.17946077       7.40578075       0.00126117       0.00410435      -0.00227606
H        3.24791028       8.24141881       7.69372734       0.00045644      -0.00005254      -0.00806624
H        3.45795894       8.11310138       9.43453690      -0.00095771       0.00886633      -0.00716871
H        5.29783371       9.63742919       7.30442970       0.00605111       0.00439740      -0.00315946
H        5.40992701       9.73886871       9.05954277       0.00195580       0.00389560      -0.00288409
H        3.41559046       5.78722573       7.45759756       0.00042927       0.00016107       0.00342640
H        3.68230086       5.61316272       9.18196320       0.00656694       0.00746541       0.00311288
H        7.73053452       8.87489705       8.98956831      -0.00118941      -0.00905704       0.00039823
H        7.57745304      10.32976270       8.00053405       0.00561082      -0.00326052       0.00761069
H        7.64361251       8.74645839       7.22447061       0.00179579       0.00086316      -0.00067909
H        1.39816583       6.58710171       9.62322484       0.00695487       0.00099798       0.00854418
H        1.14853938       6.75557165       7.88260732      -0.00006156      -0.00200970       0.00895484
H        1.28825368       5.15455442       8.59972544       0.00638890      -0.00038591       0.01136774
C        3.33101994      11.45624668       5.74856668      -0.00541404       0.00875571       0.00553579
C        2.80414104      12.08764634       4.44738646       0.00060761       0.01782328       0.00760122
C        2.30295693      11.44055431       6.89695914      -0.00240767       0.01875313       0.00847922
C        3.81835129      12.31724457       3.32133226       0.00296703      -0.00243742       0.00562453
C        2.88622855      11.52170489       8.30510966       0.00512607       0.02904917       0.00516284
C        3.16475903      12.39446166       1.94259954       0.00052819       0.00474146       0.00766158
H        3.62730062      10.43022582       5.50458935      -0.01895860       0.00574586       0.00276335
H        4.29481236      11.85972041       6.10989839       0.00138937      -0.00641412       0.00527805
H        2.22261243      13.01807343       4.65385601       0.01509815       0.02749386       0.00631823
H        2.03987020      11.41583932       4.04511208      -0.01376970       0.03259037       0.00978430
H        1.57820547      12.26753481       6.75630783      -0.00401136       0.01561442       0.00168913
H        1.77002833      10.47698611       6.82481472       0.00017123       0.01639248       0.02018479
H        4.43497421      13.23277416       3.46734254       0.01829740      -0.01226434       0.00269619
H        4.55595809      11.51263439       3.34555068      -0.00969397      -0.01425269       0.00525054
H        3.54702187      10.67836872       8.48996920      -0.00005811       0.02532554       0.00614844
H        2.10373839      11.51718049       9.06556655       0.01025918       0.03725039       0.01036033
H        3.48466641      12.42709767       8.44799209       0.01372584       0.02549851      -0.00353574
H        2.77696971      11.41053206       1.67771730      -0.01858291       0.01074234       0.01364622
H        2.33300298      13.10460003       1.92267736       0.01318923       0.01941490       0.00899129
H        3.88275540      12.70040469       1.18233126       0.00263025      -0.01114812       0.00351065
C       10.72326563       6.68656596       8.73066823       0.00243491       0.00453278       0.00412004
C       10.71971948       8.20692491       8.84409994      -0.00088626       0.00453463      -0.00041378
C        9.33825261       6.07481031       8.92485578       0.00300178       0.00313127       0.00304171
C       12.06904567       8.85780291       8.54893891      -0.00297648       0.00641629      -0.00449808
C        9.30850020       4.57850529       8.64219620       0.00521373       0.00242826       0.00743295
C       12.00010101      10.38198277       8.61653201      -0.00835720       0.00673759      -0.00737536
H       11.10076454       6.39718308       7.74463316       0.00400230       0.00275806       0.00528923
H       11.42209808       6.26049291       9.46009283       0.00262630       0.00834338       0.00593075
H       10.39675106       8.50692215       9.84704662       0.00022351       0.00848075      -0.00152621
H        9.97133468       8.61735172       8.15610663      -0.00342259      -0.00036552      -0.00033793
H        8.99344624       6.27180921       9.94518981       0.00128406       0.00552187       0.00187066
H        8.62791013       6.58263770       8.26385227       0.00370488       0.00035472       0.00031823
H       12.83585628       8.49666033       9.24109195      -0.00017664       0.01270033      -0.00458494
H       12.42164648       8.50075231       7.55724940      -0.00337927      -0.00145922      -0.00207217
H        9.58484618       4.37380400       7.60513588       0.00818295      -0.00047722       0.00893219
H        8.31514965       4.15862643       8.80819422       0.00513771       0.00246434       0.00634180
H       10.01038421       4.03849177       9.28138717       0.00346388       0.00470112       0.01106797
H       11.23219159      10.79166024       7.93797474      -0.01088284       0.00435245      -0.00581364
H       11.70304528      10.72179277       9.61011593      -0.01105485       0.00657471      -0.00811601
H       12.97288879      10.86540401       8.42110115      -0.01010649       0.01173251      -0.00397454
C        6.38975625       8.13529723       3.36989976      -0.00347251      -0.00049078      -0.00313990
C        5.71577669       6.95237498       4.05361914      -0.00570577       0.00099368      -0.00356901
C        5.48924710       8.90380542       2.41569483       0.00111002      -0.00392198      -0.00961380
C        6.71607493       6.09921003       4.82181262      -0.00818783       0.00392371       0.00150475
C        6.21189285      10.04986109       1.71753258       0.00555769      -0.00571474      -0.00779706
C        6.10409624       4.89532378       5.51724492      -0.00826013       0.00691488       0.00520730
H        6.76444581       8.81993347       4.13895177      -0.00817977       0.00175595      -0.00300854
H        7.27185190       7.77852196       2.82335935      -0.00017747      -0.00104471       0.00261134
H        5.20503054       6.33480709       3.30584411      -0.00204505      -0.00161025      -0.00380442
H        4.93225649       7.31194694       4.73141678      -0.00818376       0.00104575      -0.00678726
H        5.07869471       8.21751305       1.66881945       0.00542583      -0.00583881      -0.01012179
H        4.62458809       9.27774354       2.96663145      -0.00166649      -0.00279728      -0.01508252
H        7.49916964       5.76118533       4.13451445      -0.00682992      -0.00006543       0.00526518
H        7.21942158       6.72363187       5.56735346      -0.00961414       0.00489187       0.00141257
H        6.60252934      10.76914415       2.44216350       0.00517296      -0.00697535      -0.00646479
H        5.54704970      10.58546703       1.03521903       0.00897394      -0.00485138      -0.00996359
H        7.05681894       9.68524831       1.12781805       0.00677240      -0.00845288      -0.00434259
H        5.35974707       5.20356919       6.25354546      -0.00605613       0.00661556       0.00739144
H        5.60732337       4.24419235       4.78824573      -0.01008722       0.00460631       0.00852922
H        6.86166319       4.29577033       6.02465179      -0.00390594       0.01100186       0.00281742
C        9.64148583       9.59924507       4.02926440      -0.00138307      -0.00760990       0.00177501
C       10.62776773       8.62710192       4.67036827      -0.00907394      -0.01193311       0.00696678
C       10.17443905      11.03126064       3.93303436       0.00548001      -0.00971246       0.01261245
C       10.23538004       7.15280987       4.73104411      -0.01368582      -0.01086688      -0.00453864
C        9.27121300      11.94758646       3.11476631       0.02136621      -0.00088620       0.00611573
C       11.43706814       6.25251243       4.99444346      -0.01945704      -0.01917982      -0.00917052
H        9.41151259       9.24366613       3.02031804       0.00359655      -0.00348227      -0.00110808
H        8.69993365       9.60741610       4.58164080      -0.00402340      -0.00503912      -0.00382899
H       10.78215912       8.92447993       5.73552361      -0.01736411      -0.01586007       0.00913924
H       11.58077840       8.67505254       4.11328828      -0.00520556      -0.01297555       0.01315822
H       10.26296943      11.46470298       4.95282858      -0.00299027      -0.01334968       0.01498719
H       11.17451724      11.01858199       3.45826392       0.01015548      -0.01301540       0.02238130
H        9.47006621       7.02204355       5.50063389      -0.01497944      -0.01365699      -0.00672543
H        9.76819897       6.88365555       3.78015258      -0.01330684      -0.00165810      -0.00722039
H        9.15976906      11.54398456       2.10631211       0.03150509       0.00496529       0.00286035
H        9.66362130      12.96168337       3.03934543       0.02913840      -0.00322974       0.01733246
H        8.28509148      11.99835451       3.57211988       0.01591772       0.00348338      -0.00653064
H       12.10771976       6.23692013       4.13485154      -0.01003872      -0.00586116      -0.00205597
H       12.02820658       6.61500270       5.83855075      -0.02740544      -0.04057521       0.00536866
H       11.13292936       5.23096813       5.22091997      -0.02752039      -0.02231184      -0.03430157
C        9.19014411       6.20058143       0.70629134       0.00139889      -0.00581259      -0.00550625
C       10.69830190       6.09527144       0.52937902       0.00022739      -0.00532621      -0.01239450
C        8.48528701       4.85411261       0.81510806       0.00115262      -0.00476319      -0.00075077
C       11.39133427       7.44911621       0.41183345      -0.00093809      -0.00509024      -0.01739793
C        6.96830364       4.98483822       0.84001682       0.00125635      -0.00386320       0.00272335
C       12.82807791       7.33280979      -0.07682001      -0.00395477      -0.00441384      -0.02626824
H        8.95948911       6.80610578       1.59117250       0.00437424      -0.00317360      -0.00622675
H        8.77528163       6.75046786      -0.14462274      -0.00261098      -0.00695185      -0.00651845
H       10.90650210       5.50597499      -0.37170353      -0.00422065      -0.00610904      -0.01269427
H       11.13583133       5.53474407       1.36408153       0.00301753      -0.00421007      -0.01379421
H        8.78675376       4.22737209      -0.03081257      -0.00165876      -0.00632282      -0.00029352
H        8.82997553       4.33412018       1.71536595       0.00377643      -0.00187556      -0.00079194
H       10.81825162       8.08822813      -0.26901105      -0.00461258      -0.00457746      -0.01374513
H       11.37751763       7.94870429       1.38593099       0.00570199      -0.00533451      -0.01750135
H        6.64200557       5.60326330       1.67794076       0.00370574      -0.00203909       0.00213960
H        6.47845950       4.01385832       0.92992146       0.00118493      -0.00350288       0.00607141
H        6.60439632       5.45962994      -0.07367766      -0.00122165      -0.00591752       0.00274533
H       13.40302886       6.66370923       0.56209957       0.00113274      -0.00400408      -0.03021929
H       12.85860845       6.94017940      -1.09599388      -0.01070713      -0.00495875      -0.02628642
H       13.33663760       8.29770196      -0.06407297      -0.00524063      -0.00379875      -0.03089722
