149
Lattice="13.056810103068301 0.0 0.0 0.0 13.056810103068301 0.0 0.0 0.0 13.056810103068301" Properties=species:S:1:pos:R:3:forces:R:3 energy=-2147183.25 stress="-0.00014112818462308496 0.00035049705184064806 0.0003749964525923133 0.00035049705184064806 -0.0003344143624417484 -0.00044248865742702037 0.0003749964525923133 -0.00044248865742702037 0.0011104573495686054" pbc="T T T"
Bk       3.66767554      11.32828616       6.59737567       0.00410962      -0.01087970       0.00372678
Bk      12.10901528      13.51386951      11.24538435      -0.01017848       0.01943669      -0.00570095
O        8.87355478      11.37288577       6.05708738       0.02132058       0.00042218       0.00863621
O       11.26901004      11.80672884       7.42078750       0.01420248       0.02262789       0.01597804
O       10.70449542      12.82244436       4.84772130       0.01253152       0.00984430       0.01344514
O       11.04559664      10.21623628       5.12699923       0.00106490       0.00614715      -0.00429368
Cr      10.43588795      11.54233386       5.76261311       0.01884890       0.00631130       0.01108074
Cr      10.70927652      12.40462860       8.89407522       0.00715297       0.01087099       0.01502899
O       11.29018411      11.74228408      10.31890002       0.00787517       0.00415146       0.01209557
O       11.27943340      13.94274651       9.15545482       0.00694937       0.01289582       0.02115110
O        9.13802787      12.43533752       8.91033957       0.00790703       0.01027575       0.01625203
O        4.78847691      12.46081041       5.18700890      -0.00782602       0.00094479       0.00173247
O        4.38115411      12.29366157       2.45394636      -0.03345436       0.01268527       0.00624566
O        6.23863232      10.78699360       3.72326797      -0.00875258       0.02208424      -0.01551177
O        6.67861716      13.31724385       3.44478658      -0.02803004       0.02180851      -0.00904772
Cr       5.56793545      12.21775187       3.68537723      -0.02068269       0.01532099      -0.00626418
Cr       3.65827627      11.65841264       0.90313161       0.00084805       0.02598560      -0.00996649
O        4.35037766      12.38706816      -0.34522616       0.03116179       0.01767266       0.00087404
O        3.95709423      10.09348997       0.87610542      -0.03441183       0.02112889      -0.00870964
O        2.08486053      11.95000204       0.94840450       0.00369883       0.03359652      -0.03119661
O        2.51494489      11.06809004      10.60073973       0.02119029      -0.01809782       0.01221311
O        0.63571388      10.88733555       8.73932424       0.01207364      -0.01783853       0.01942056
O        2.88680175      12.40611095       8.35611749       0.00202751      -0.02134544       0.01101217
O        1.03404271      13.19790121      10.22435368       0.01688778      -0.00918347       0.01133016
Cr       1.79177864      11.92249918       9.51046427       0.01154047      -0.01525462       0.02008581
Cr       0.98061088       9.99056367       7.24101101       0.01150036      -0.01203084       0.01429260
O        1.02001113      11.04308541       6.03329285       0.01473114      -0.00806183       0.01682329
O        2.55713105       9.49695301       7.36695758       0.00732690      -0.01844126       0.00609440
O        0.01341624       8.77894498       6.98260749       0.01031125      -0.01089942       0.00103259
O        6.53122547       9.30764189      10.49228620       0.00945997       0.00343111      -0.00168143
O        7.23823335       7.49625091      11.43461778       0.00265872       0.00251678      -0.00343190
O        8.73679963       9.13015082      10.97757930       0.01691830       0.00059462       0.00007144
C        6.77994754      10.63008885       9.94546978       0.01156992       0.00051042      -0.00388527
C        5.47777159      11.13136137       9.38762004       0.01490629       0.00274184      -0.01037350
C        7.61097384       8.69478614      10.96767879      -0.00813365      -0.00561196      -0.00167888
C        8.32808179       6.70282561      11.93325646      -0.00264475      -0.00190158      -0.00019357
H        7.13871327      11.28236660      10.73941548       0.01037963       0.00262669      -0.00439578
H        7.56094054      10.56001906       9.19279645       0.01446325      -0.00241753      -0.00134552
H        5.64259767      12.11011074       8.93464955       0.01841093       0.00056243      -0.01361409
H        5.08938364      10.42979828       8.63757726       0.01622362       0.00011721      -0.00864286
H        4.73175945      11.23811264      10.17383977       0.01214316       0.00680466      -0.01342022
H        9.06045056       6.53368349      11.14588527      -0.00036782      -0.00346627       0.00169626
H        7.88260833       5.76134193      12.23846897      -0.00524290      -0.00095752      -0.00150202
H        8.80105614       7.19916934      12.78064558      -0.00329728      -0.00299820       0.00129345
O       11.04883819       7.23492149       9.88268313       0.00033800       0.00674576      -0.00904275
O        9.64378039       7.64357376       8.28297007       0.00137800       0.00205377      -0.00585362
O       10.99478062       9.31242941       8.99311282       0.00448841       0.02317309      -0.01170029
C       11.95060825       7.73332319      10.89506694       0.00070000       0.00390953      -0.01087889
C       12.42072076       6.54383540      11.69251241      -0.00107762       0.00727123      -0.00544438
C       10.59949381       8.18151027       9.04941327      -0.01038513      -0.02597141      -0.00726720
C        9.07901290       8.58816606       7.34575023      -0.00069606      -0.00488954      -0.00887544
H       12.77064676       8.26246974      10.40762581       0.00311580       0.00032979      -0.01247683
H       11.40188632       8.45321898      11.50556489       0.00374049       0.00952700      -0.01340127
H       13.10800046       6.87415299      12.47279469       0.00151330       0.00858565      -0.00849076
H       11.59141586       6.02915972      12.17659339      -0.00161889       0.01099616      -0.00235398
H       12.94443751       5.83156182      11.05347590      -0.00389909       0.00279737      -0.00333361
H        8.82661152       9.51267323       7.85664126      -0.00458571      -0.00367394      -0.01060683
H        8.18877956       8.11130322       6.94635757       0.00126606      -0.00615822      -0.01106682
H        9.79233989       8.80935277       6.55331321       0.00092691      -0.00147566      -0.00735375
O        8.74133540       4.61610397       8.44342977      -0.00599307      -0.01134879       0.00104192
O       10.87917585       4.71628840       8.13492911      -0.00471994      -0.01207291       0.00808090
O        9.53123472       4.90487533       6.33647254       0.00157122       0.01421556       0.01660109
C        7.37750066       4.76740097       7.97960342      -0.00525762      -0.00742276      -0.00066239
C        6.66859855       5.75428549       8.86853603      -0.00094116      -0.00092122      -0.00415719
C        9.69470484       4.76408631       7.52263229      -0.00534748       0.00152522      -0.00782585
C       11.98224269       5.02022806       7.26690083      -0.00175862      -0.00578149       0.01479651
H        7.40122382       5.07475088       6.93585034      -0.00460828      -0.01344649      -0.00154757
H        6.91852446       3.78030161       8.04198629      -0.00818051      -0.00588274       0.00598960
H        5.63939205       5.87818776       8.52823788      -0.00062865       0.00250921      -0.00465962
H        6.64907362       5.40967556       9.90038860      -0.00241119       0.00315177      -0.00312045
H        7.15561029       6.72646901       8.83646756       0.00336017      -0.00324088      -0.00798795
H       12.12529061       4.22367892       6.53782537      -0.00787428       0.00790271      -0.00064823
H       12.84628885       5.11114860       7.91813615      -0.00127244      -0.02851208       0.01753539
H       11.80678338       5.96266532       6.74989256       0.00911832       0.00621033       0.03452778
O        3.62472359       6.13437501       4.60057769       0.00282219      -0.00073016      -0.00475615
O        3.02832925       8.19058639       4.33755044       0.00049505      -0.00210994      -0.01198095
O        5.00525564       7.75063079       5.37225222      -0.02120996      -0.00230896      -0.01116490
C        4.66050169       5.15726752       4.87353356       0.00066942       0.00171721       0.01353920
C        4.06026347       3.79853205       4.64942211       0.00357985       0.00123572       0.00592615
C        3.99326669       7.39401154       4.82253515       0.02123600       0.00903502       0.00594011
C        3.36037938       9.57661403       4.24564445      -0.00497681      -0.00006175      -0.00657159
H        5.49548916       5.35132495       4.20169292       0.00967318       0.00081505       0.02587393
H        5.00698922       5.29011245       5.89915805      -0.01694810       0.00345613       0.01781893
H        4.83220043       3.04291349       4.78827256       0.00059795      -0.00027406       0.02017481
H        3.24261252       3.61385706       5.34711578      -0.00807442       0.00294863      -0.00807996
H        3.67354724       3.71052986       3.63468520       0.02193161      -0.00095152      -0.00008452
H        4.28848880       9.76911201       4.79247201      -0.00170785       0.00145777      -0.01542789
H        2.50663802      10.14693614       4.62166505      -0.00458929      -0.00605088       0.00449160
H        3.52753559       9.81685699       3.19580325      -0.01825237       0.00626817      -0.00746739
O        5.95825142       2.97042188      11.25667083      -0.01457423      -0.00540829       0.00453423
O        8.10399548       2.98156645      11.06320709      -0.01385143      -0.00170071       0.00438769
O        6.97671489       1.11215855      10.44923539      -0.01289838      -0.00038409      -0.01386249
C        4.66173331       2.33500437      11.09753370      -0.01397392      -0.00733715       0.00452905
C        3.65271084       3.45333741      11.09802776      -0.01747918      -0.01079968       0.00838441
C        7.00115102       2.23244781      10.88612847      -0.01389864       0.00517845       0.00026554
C        9.29129213       2.37741430      10.55335517      -0.01214921       0.00383562       0.00285599
H        4.66131652       1.77783626      10.16091558      -0.01352118      -0.00530285       0.00302756
H        4.51949629       1.62044179      11.91034114      -0.01193865      -0.01077458       0.00209057
H        2.64952793       3.04175487      10.99478992      -0.01445480      -0.01637881       0.00399628
H        3.70613430       4.02334808      12.02553774      -0.02294236      -0.01648326       0.01222424
H        3.83703895       4.13602012      10.26740445      -0.01875077      -0.00451812       0.01322518
H        9.58401230       1.53674730      11.19578376      -0.00961521       0.00119752      -0.00130053
H       10.04648064       3.15717627      10.55003882      -0.01350893       0.00497198       0.00660731
H        9.13987455       1.99261763       9.54979359      -0.01021548       0.00748590       0.00086936
O       11.89835527       2.64709843       1.79756431       0.00945992      -0.00235954      -0.00003736
O       12.53709920       4.41030464       2.86555112       0.00902334      -0.00127120      -0.00131389
O       11.03383881       4.65077513       1.18711274       0.02931768      -0.02654183       0.02423549
C       11.02710051       2.01157993       0.86001446       0.00995426      -0.00455916       0.00064481
C       11.28870037       0.52679596       0.93334772       0.01322313      -0.00461668       0.00998217
C       11.74251660       3.97397454       1.89134180      -0.01920694       0.02199912      -0.02737015
C       12.51919877       5.83687981       3.06515671       0.00611024      -0.00149949      -0.00481401
H        9.99799534       2.25331258       1.12122279       0.01032352      -0.00791477      -0.00145078
H       11.22954110       2.41588497      -0.14470232       0.01107699      -0.00951875       0.00010318
H       10.62795113      -0.00262619       0.23654603       0.01172316      -0.00830968       0.01292109
H       12.33305510       0.28612175       0.69572049       0.01168229      -0.00647126       0.00902345
H       11.07550402       0.13967745       1.93220230       0.01310075       0.00242779       0.01165166
H       12.75831228       6.35439608       2.13820244       0.01589210      -0.00356168      -0.00174034
H       13.28184560       6.03420296       3.81095108      -0.00012746      -0.00156623       0.00445840
H       11.54061538       6.15687920       3.41399790       0.00358263      -0.00222562      -0.01462594
O        7.51701653       2.75828770       4.71768850       0.00396442       0.00131895       0.00592017
O        7.10823704       3.93243492       2.95178454      -0.00124958       0.00257516       0.00777367
O        9.09199382       2.85597581       3.09500005      -0.01033401      -0.01078892      -0.00586033
C        8.34701330       1.80139592       5.44117186       0.00285369      -0.00337330       0.00036928
C        7.49651157       1.21513640       6.53189759       0.00393111      -0.00395976       0.00116757
C        8.01155060       3.14459866       3.55399025       0.00123107      -0.00390258      -0.00102428
C        7.51456869       4.41830396       1.66549820      -0.00835998      -0.00346313       0.00260784
H        8.69129225       1.04170885       4.74480403      -0.00142105      -0.00244033      -0.00265211
H        9.21664829       2.34071574       5.81712395       0.00580549      -0.00772509      -0.00029269
H        8.07961681       0.49097796       7.09939840       0.00363378      -0.00769404      -0.00311553
H        7.13184146       1.98155005       7.21619270       0.00913065      -0.00534528       0.00530879
H        6.64170921       0.69221709       6.10501532       0.00066404       0.00032476       0.00238407
H        8.48037912       4.91772547       1.72739796      -0.00275657      -0.01417448      -0.00749907
H        6.74525844       5.12251618       1.36789774      -0.00345731       0.00457421       0.00922758
H        7.58628357       3.59217285       0.95766801      -0.02482696      -0.00540677       0.00360227
O        8.21292104       9.07416145       1.82801454      -0.00072765       0.00709546      -0.00494105
O        9.11471775       7.82434313       3.32938171      -0.00101370      -0.00003833      -0.01151681
O        6.98580039       7.37563676       2.69275159      -0.00107121       0.00577939      -0.00556132
C        7.04358099       9.55616558       1.12040169      -0.00374457       0.00159585      -0.00902084
C        7.40053820      10.91653004       0.58485323      -0.00546303       0.00242758      -0.00768173
C        7.99871883       8.03163191       2.62076216      -0.00354058       0.00031400      -0.00745160
C        9.02185254       6.77398732       4.29546562      -0.00120044       0.00044848      -0.01332566
H        6.78561300       8.84482838       0.33774879      -0.01695135       0.00817668      -0.01401037
H        6.21096133       9.59317454       1.81594274      -0.00436944       0.00243556      -0.00901836
H        6.54539502      11.33498763       0.05129904      -0.00403664       0.00741807      -0.00698166
H        7.65704703      11.58835435       1.40546750      -0.00575124      -0.00092513      -0.00539072
H        8.25012297      10.85227983      -0.09655893      -0.00476672       0.00291588      -0.00685105
H        8.06440544       6.81010324       4.81201821      -0.00010175       0.00165566      -0.01234585
H        9.83349596       6.94385581       4.99289083       0.00082490       0.00163329      -0.01700836
H        9.13945289       5.79795636       3.82477254      -0.00313815       0.00167269      -0.01511854
