140
Lattice="12.41739751575472 0.0 0.0 0.0 12.41739751575472 0.0 0.0 0.0 12.41739751575472" Properties=species:S:1:pos:R:3:forces:R:3 energy=-1968839.5 stress="0.00131504877936095 0.0009716807398945093 0.0006337542727123946 0.0009716807398945093 0.00020388932898640633 0.0010039831977337599 0.0006337542727123946 0.0010039831977337599 0.000758965325076133" pbc="T T T"
Bk       3.90345067      10.96665390       7.58230463      -0.00990412       0.02467699       0.02007288
Bk       3.80041169      12.24917369       3.52656947      -0.00917560       0.01552581       0.00063902
P        1.84825111      11.10242448       1.62520579      -0.00839680       0.00413601       0.00393310
O        3.54512068      10.73345379       1.54348203      -0.00895691       0.01191206       0.00459361
O        1.27540322      10.08090095       2.54374447      -0.00855774      -0.00769985      -0.00103021
O        1.41933145      11.22783449       0.20984874      -0.00815338       0.01025910       0.01306105
O        2.03059886      12.47031525       2.40410053      -0.01816767       0.00026202       0.01368237
H        3.80316940      10.74878655       0.61709513      -0.00981710       0.01407856       0.00369328
P        0.94417084      11.55902152       8.17463030      -0.02958974       0.01444680      -0.02898961
O        3.05458274      11.89726900       5.57685080      -0.00010049       0.00572364       0.00245750
O        2.05822284      12.36658521       8.73835041      -0.03942845       0.02160691      -0.01210682
O        1.41178742      10.38105218       7.36464904      -0.00995965       0.00398397      -0.00092268
O       -0.48589439      11.86941799       8.32455718      -0.02944474       0.00429383      -0.03903054
H        2.18456225      11.48033381       5.59574552       0.00093657       0.00377357      -0.00023514
P        6.47671176      11.27295266       8.65153771       0.00506170       0.00297727      -0.00409323
O        7.73039587      10.82450314       7.69449276       0.00554812      -0.01307566       0.00119112
O        5.50839908      10.04972846       8.71172991      -0.00143781       0.00762248      -0.00453824
O        5.66718978      12.24144491       7.73425988       0.00960827       0.00245619      -0.01162690
O        7.01392389      11.76190227       9.93898208      -0.00069243       0.00855339      -0.00802982
H        8.51618968      10.79036577       8.24836617       0.01193528       0.04311571      -0.01049763
O        3.34445966       4.09306771       9.79036872      -0.00109768       0.01208305       0.00136113
N        5.44343804       3.48827973      10.47038176      -0.00246465       0.00405765      -0.00401091
C        5.30924049       2.09941269      10.07496887      -0.00733211       0.00565977      -0.00936390
C        6.74737618       3.93633201      10.90105890      -0.00109435      -0.00137943      -0.00136733
C        4.43716314       4.36542159      10.25017458      -0.00135934       0.00686058       0.00033122
H        5.61272785       1.43324347      10.88371190      -0.00840227       0.00159165      -0.01235169
H        5.95237399       1.87467021       9.22391354      -0.00903586       0.00657282      -0.01116663
H        4.27014772       1.91269414       9.81260398      -0.00844440       0.01098352      -0.00882708
H        7.05739566       3.41113625      11.81035191      -0.00360409      -0.00506677      -0.00275907
H        6.72301980       5.00457033      11.11233576       0.00166427      -0.00189185       0.00183929
H        7.49101636       3.74096288      10.12602764      -0.00098473      -0.00124185      -0.00151139
H        4.71796355       5.39512314      10.54295653       0.00244826       0.00572824       0.00450198
O       11.14690432       7.65709167      11.77539251       0.00085938      -0.00624537       0.00421612
N       10.40725377       9.77973847      11.38297068       0.00803363      -0.00483736       0.00109302
C        9.11355820       9.35470379      10.90106686       0.01148998      -0.00473461      -0.00869972
C       10.70651324      11.19876331      11.34677701       0.00727854      -0.00427938       0.00173811
C       11.33674461       8.86899031      11.75193349       0.00120237      -0.00667143       0.01498777
H        9.03309771       9.50848340       9.82064302       0.02294061      -0.02164923      -0.01188201
H        8.31912904       9.94112299      11.36212321       0.01015794       0.00659260      -0.02576311
H        8.98360138       8.29574605      11.10567817       0.00220868      -0.00070721       0.00594223
H       10.65908990      11.56734002      10.31944751       0.01477672      -0.00580107       0.00021493
H       11.70686574      11.37793200      11.74555473       0.00389734      -0.00184777       0.00979795
H        9.98546916      11.76136389      11.94331827       0.00077268      -0.00371839      -0.00615081
H       12.29110276       9.33440850      12.04602498      -0.00419927      -0.00341594       0.02853599
O        8.33142499       6.73063332       7.88226453       0.01078033      -0.00512421      -0.00245821
N        9.63235188       7.11902186       6.04427287       0.00502057      -0.00064273      -0.00274092
C        9.45986084       5.79811052       5.48627475       0.01559915      -0.00464247       0.00243760
C       10.37970477       8.07775976       5.26203684      -0.00128212       0.00248801      -0.00452638
C        9.03888188       7.46045409       7.21276272      -0.00044405      -0.00449464      -0.00182891
H       10.43298459       5.33097481       5.31607756       0.01897505      -0.00055755       0.01038955
H        8.93813430       5.85289367       4.52690010       0.02130686      -0.01162279      -0.00118744
H        8.88017552       5.19556008       6.18103682       0.01462735      -0.00430243       0.00177541
H       11.33757652       7.65627925       4.95654108       0.00122988       0.00776350      -0.00419625
H       10.56778542       8.96908986       5.85749303      -0.00646149       0.00457180      -0.00598502
H        9.82739461       8.36172142       4.36201900      -0.00316086      -0.00229518      -0.00493607
H        9.27293037       8.49671331       7.50532340      -0.01033500       0.00192779      -0.00756298
O        1.66714618       6.38417651       2.50980391      -0.01169527      -0.01473796       0.01375720
N        2.68998166       7.84403285       3.93692858      -0.00589374      -0.01055028       0.00708511
C        1.82432079       7.55625437       5.05371620       0.00266913      -0.01340077       0.01298339
C        3.55520228       8.97886261       4.07353763      -0.00212173      -0.01265150       0.00310199
C        2.45127250       7.29074637       2.72454966      -0.00870860      -0.01390868       0.00949210
H        1.17485556       8.41508139       5.24932359       0.01051596      -0.01057053       0.02637384
H        2.41327642       7.35299471       5.94956659       0.00923124      -0.02473960       0.00617084
H        1.22851053       6.68154029       4.80963113      -0.00556134      -0.00745648       0.01160724
H        2.95515966       9.89389810       4.13142312       0.00188097      -0.00980493       0.00299232
H        4.20308720       9.05541667       3.20466579      -0.00334807      -0.01587748       0.00182229
H        4.16608246       8.88242557       4.97723691      -0.00058495      -0.01372588       0.00177521
H        3.08145122       7.73467603       1.93499444      -0.01103488      -0.01593325       0.00680470
O        8.01007095       7.37726388       1.21109977       0.01174414       0.00247133       0.01390618
N        8.67581413       9.45510421       1.89697951       0.01124013       0.00680643       0.00140458
C        7.34795093      10.02420468       1.85456223       0.01028846       0.00490315       0.00215576
C        9.76011381      10.32511531       2.31113789       0.01073115       0.00836684      -0.00072920
C        8.88371724       8.16532476       1.54573145       0.01180708       0.00460410       0.00884432
H        7.32660580      10.88926295       1.18689737       0.00846756       0.00512186       0.00230515
H        7.03967648      10.35303114       2.85216057       0.01042882       0.00432310       0.00234562
H        6.65706865       9.26831523       1.48947306       0.01119713       0.00383770       0.00276764
H        9.80002854      11.22195745       1.69186245       0.00794103       0.00817904      -0.00125164
H       10.71427674       9.80564362       2.23216591       0.01159659       0.00967142      -0.00194920
H        9.61674879      10.63965775       3.35045730       0.01245253       0.00883673      -0.00049704
H        9.94840085       7.88889573       1.58747807       0.01291436       0.00510466       0.01040380
O       10.40229349       1.27744569       1.35299103      -0.01961303       0.00323379       0.00243348
N       10.78836499       3.51522821       1.63072053       0.00202280       0.00250304      -0.01122421
C       11.82952862       3.33237449       2.62347682       0.00053534      -0.00193726      -0.01042326
C       10.27904055       4.85681695       1.41810790       0.01965828       0.00775470      -0.02266828
C       10.19892285       2.44806610       1.06249427      -0.00933705       0.00849426      -0.00556554
H       11.41383604       3.32778462       3.63849549       0.00027308       0.00579938      -0.01049802
H       12.54197656       4.15301092       2.54232702       0.00668883      -0.00783956      -0.01368100
H       12.32692252       2.38195367       2.44496134      -0.00693709      -0.00685504      -0.00631182
H        9.74818096       5.21041178       2.30878223       0.02954848       0.02443457      -0.02408791
H        9.57480589       4.86192092       0.58933048       0.01522844       0.00881130      -0.01909935
H       11.08760143       5.55185906       1.19127384       0.02725255      -0.00497422      -0.03341202
H        9.46897758       2.74393438       0.28684429      -0.00660187       0.00821245      -0.00571334
O        5.92726167       0.39752076       4.28775223       0.00452051      -0.02190676      -0.01805316
N        8.00526460       1.14670552       4.83788320      -0.00148681      -0.01135942      -0.01017478
C        8.03303728       2.20117078       3.84377941      -0.00436370      -0.01053669      -0.00964135
C        9.22577851       0.93083992       5.59536630      -0.00348881      -0.00272522      -0.00517675
C        6.95908795       0.35939893       5.00134631       0.00239897      -0.01841456      -0.01586142
H        8.69643464       1.92042454       3.02468112       0.00022450      -0.00753318      -0.00688159
H        8.41129160       3.10927126       4.31508687      -0.01129987      -0.00846255      -0.00790362
H        7.02697435       2.37429769       3.47587801      -0.00392231      -0.01651158      -0.01351648
H       10.01096409       0.57115766       4.92619694       0.00377138       0.00779555      -0.00237569
H        9.03760042       0.20684047       6.38218813       0.00051751      -0.00768250      -0.00892130
H        9.53429804       1.86709617       6.05585690      -0.01514987      -0.00169820       0.00055638
H        7.04762525      -0.34954494       5.82450398       0.00526837      -0.02155471      -0.01854107
O        1.41850332       2.22122702      -0.51544329      -0.03674960       0.02135324       0.00061589
N        3.38008424       2.45956264       0.62174232      -0.02549791       0.01284790      -0.00134543
C        3.13288848       3.83854508       0.97591556      -0.01560580       0.01621316      -0.00939306
C        4.50749700       1.82518715       1.23673101      -0.02870138       0.00581751       0.00121747
C        2.46028772       1.75885797      -0.10421144      -0.01968396       0.00749651       0.00747186
H        3.99649561       4.45315462       0.70480291      -0.01006034       0.00847742      -0.00868173
H        2.94499925       3.94038368       2.04773461      -0.02116921       0.02369963      -0.01125756
H        2.26475611       4.18546886       0.42530108      -0.01053947       0.02087131      -0.01626258
H        5.45468802       2.26213903       0.89987957      -0.02528042      -0.01013038      -0.01028045
H        4.52020109       0.75886688       0.99686035      -0.03755507       0.00449596       0.01224108
H        4.47588750       1.95621846       2.33200760      -0.02215102       0.02779115      -0.00018668
H        2.75529805       0.71484899      -0.28893823      -0.03669189       0.01225817       0.00896442
O        3.97182745       4.33905364       4.57230410       0.01732773      -0.02107263       0.00282800
N        5.42986309       6.10703513       4.52403835       0.00465515      -0.00898421       0.00785396
C        5.58606137       6.20901393       5.95857921       0.00092648      -0.00921494       0.00851512
C        6.21906840       6.97765371       3.68543831       0.00748225      -0.00793887       0.01082163
C        4.61846484       5.17968744       3.97064336       0.01533085      -0.01419610       0.00363138
H        5.37944166       7.23178935       6.28582568      -0.00091203      -0.00931007       0.00772366
H        6.60292810       5.96983170       6.27249666       0.00050271      -0.00842742       0.01098453
H        4.89044568       5.52385125       6.43594261       0.00041047      -0.01008198       0.00686929
H        6.16415181       8.00497528       4.04822462       0.00706998      -0.00833017       0.01245111
H        5.85229547       6.94804690       2.66155074       0.01036686      -0.00581210       0.00974429
H        7.26882039       6.68175682       3.65687249       0.00746262      -0.00879017       0.01385256
H        4.60430926       5.26618557       2.87066456       0.01865617      -0.01595646       0.00441414
O        8.30946328       2.31797698       8.23252879       0.01504707       0.00471294       0.00417602
N       10.29683149       2.94187450       9.17382929       0.00970834      -0.00111088       0.01183611
C       10.13345253       4.34226849       8.85110735       0.01451946       0.00136556       0.01273329
C       11.54523630       2.54637447       9.79965905       0.00335994      -0.00417579       0.01942432
C        9.34557919       2.05215384       8.83051785       0.00429142       0.00394312       0.00425565
H       10.85426013       4.64767663       8.08549744       0.02028987      -0.00040122       0.01746535
H       10.30101564       4.96110349       9.73456286       0.01417070      -0.00189245       0.01563770
H        9.12801671       4.51226092       8.48029678       0.01846313       0.00565242       0.00935034
H       12.39177745       2.76958595       9.14644123       0.00956485      -0.00360854       0.02740613
H       11.54540913       1.47878199       9.99885676       0.00057512      -0.00533357       0.01628628
H       11.70088263       3.08133423      10.73568114      -0.00271826      -0.00821882       0.02268293
H        9.59382009       1.02510906       9.14492245       0.00439426       0.00173253       0.00691281
