149
Lattice="13.2786086514951 0.0 0.0 0.0 13.2786086514951 0.0 0.0 0.0 13.2786086514951" Properties=species:S:1:pos:R:3:forces:R:3 energy=-765440.4375 stress="-0.0008584482711739838 9.664990284363739e-05 0.0005240785831119865 9.664990284363739e-05 -0.0007667679456062615 -0.00012447439803509042 0.0005240785831119865 -0.00012447439803509042 0.0002955513773486018" pbc="T T T"
Ce       0.93453160      13.57169538       7.32686550      -0.03738797      -0.00731564      -0.02382967
Ce      12.94655100      10.41796808      10.12390046      -0.00543782      -0.00580619      -0.00967640
O       10.15375729      10.22942362       5.13100911      -0.00396740       0.03620738      -0.00705242
O        9.68639831      10.76016667       7.69150983       0.00627259       0.00726893       0.00153045
O       10.94133082      12.58306683       6.10045427       0.04091381       0.01065385       0.02558146
O       12.30700833      10.35028150       6.83345063       0.00013733      -0.01936239      -0.01301473
Cr      10.81473418      11.01233645       6.32581884       0.01018135       0.01465273       0.00782824
Cr       9.52468073      11.49690549       9.24785725      -0.00156200       0.00410861       0.00412774
O       10.88424936      10.93293900      10.15207424      -0.00357862       0.00698242       0.00609991
O        9.55062821      13.07229316       9.09428121      -0.00578428       0.00554216       0.00768923
O        8.18846419      11.00840253       9.92074317      -0.00172961      -0.00111109      -0.00220180
O        2.62236850      10.16063801      -0.44653618       0.00576878      -0.04331550      -0.02356024
O        0.39280572       9.51782831       0.91279661      -0.00130597       0.00047714      -0.01112711
O        0.62182630       8.95537059      -1.81553177      -0.02043015      -0.01664549      -0.00793375
O        0.33004318      11.33505252      -1.31305850       0.02108151      -0.00851297      -0.01935066
Cr       1.07120376       9.98917441      -0.54031327      -0.00074404      -0.01804779      -0.01521584
Cr       1.06177141       8.19585410       2.08185603      -0.00941348      -0.00426745      -0.01158345
O        0.02424852       7.98774829       3.26841704      -0.01173568      -0.00715369      -0.01534677
O        1.22131127       6.86249003       1.20645320      -0.00835699      -0.00084865      -0.01691949
O        2.47387309       8.67240146       2.63474824      -0.00866175      -0.00858545      -0.00641567
O        2.10782963      12.02438566       7.29338281      -0.01780295       0.00321282      -0.01048502
O        1.25785076      10.47478365       5.50395738      -0.00132811      -0.00524086      -0.00896305
O        0.03388982      11.97034526       8.56435120      -0.01730650      -0.01070318      -0.01280496
O        1.11728341       9.55436502       8.40222398      -0.00492311      -0.00434759      -0.00349166
Cr       0.78570446      10.66222081       7.27390899      -0.00268623      -0.00695739      -0.01003763
Cr       0.64044743      11.62160201       4.37796079       0.00021604      -0.01019621      -0.01571417
O       -0.83705383      11.28884605       3.94978295       0.00333989      -0.00813913      -0.01788712
O        0.61884945      13.11444333       5.33350836       0.00340141      -0.00200906      -0.03019889
O        1.55629781      11.78899614       3.11066950       0.00596815      -0.01640705      -0.01703870
C        6.21797021       2.13643839      12.16943425      -0.01015986      -0.01266842      -0.00330746
C        5.33217999       2.54905602      11.17101596       0.00327587       0.02314872      -0.00203304
C        6.86223576       3.11784136      12.91928239      -0.00491741       0.02104656       0.00879654
C        6.47632652       0.67797005      12.41298154       0.00013607      -0.00005528       0.01130028
C        5.11763408       3.89721879      10.91894608      -0.00604466      -0.02603740      -0.00722618
C        6.65302638       4.47026148      12.66982862      -0.01409696      -0.02926524      -0.00670317
C        5.78354286       4.86551375      11.66324898       0.00175985       0.02713388       0.00780062
H        4.79915725       1.80158766      10.59490954       0.01108572      -0.01688976      -0.03134604
H        7.53009947       2.82240575      13.71801171      -0.01199659      -0.00266246       0.00197607
H        7.05443453       0.52695140      13.32423756      -0.01407646       0.00026290      -0.00254697
H        5.54461251       0.11752575      12.50626949      -0.01099062      -0.00197385      -0.00104541
H        7.03553385       0.23376744      11.58516766      -0.00416149      -0.00025874       0.00187927
H        4.41826587       4.19428669      10.14658435       0.00281622       0.00323116      -0.00431059
H        7.15912332       5.21140069      13.27672036      -0.00355361       0.00585152       0.00983626
H        5.61657403       5.91743341      11.46867548       0.00058603      -0.01750360       0.00083451
C        9.89978675       7.03789658       8.40671766       0.00267391      -0.00294736       0.00676873
C        8.80187621       7.77785211       8.84201057      -0.00027004      -0.00586152       0.00619508
C        9.70691309       5.68677763       8.11272354       0.00388579      -0.00311187       0.00392758
C       11.25679401       7.66688425       8.27124050       0.00256732      -0.00213987       0.01199155
C        7.55126304       7.19315894       8.98920695       0.00194963      -0.00684542       0.00139616
C        8.46003503       5.09587314       8.26528471       0.00627192      -0.00420132      -0.00121758
C        7.37717347       5.84615585       8.70734912       0.00205407      -0.00725470      -0.00244124
H        8.91066881       8.82748262       9.06941179      -0.00249031      -0.00574605       0.01060277
H       10.54887158       5.08559530       7.78703924       0.00665092      -0.00148726       0.00630973
H       11.60396464       7.67956174       7.23510598       0.00230591       0.01136022       0.01189491
H       11.22503056       8.70906467       8.60315046       0.00208745      -0.00594935       0.02528240
H       12.00494271       7.12646668       8.85717095       0.00275882      -0.00870275       0.00522453
H        6.71830868       7.79995704       9.32383874      -0.00036062      -0.00905088       0.00090339
H        8.33372982       4.04092665       8.05780029       0.00706921      -0.00434394      -0.00365008
H        6.40992232       5.38030258       8.83195492       0.00333080      -0.00776324      -0.00681058
C        5.87207666      11.37707683       5.29756729      -0.00145778      -0.00276981      -0.00694075
C        7.03249876      11.23328849       4.53783422       0.00078776       0.00488199       0.00584086
C        4.63968293      11.25997831       4.65225228       0.00532299      -0.00542726       0.00137351
C        5.95854502      11.68925257       6.76355658      -0.00600245       0.02232933      -0.01356554
C        6.96771140      11.03749793       3.16546166       0.00048915       0.00532977      -0.00057772
C        4.56975178      11.03928740       3.28226109       0.00897902      -0.00587851      -0.00527719
C        5.73493494      10.94686590       2.53170766       0.00885958       0.00351424      -0.00434282
H        7.99895609      11.26803831       5.02284134       0.00031993       0.00420012       0.00148695
H        3.72519263      11.32323961       5.23265126      -0.00051838      -0.01530602      -0.00668380
H        5.08682009      11.32264551       7.30471905      -0.02052820      -0.01091808       0.00339835
H        6.85911454      11.26937000       7.21155031       0.00298925      -0.03500307       0.00844916
H        6.00306826      12.77280119       6.92117154       0.00496945      -0.02215046       0.03416142
H        7.88627051      10.92624201       2.60082756       0.00838210       0.01629830      -0.00092498
H        3.60733407      10.91681987       2.80853812       0.00676119      -0.00474891      -0.00882708
H        5.67173783      10.76623184       1.46522055       0.01030962       0.00948699      -0.00424407
C       12.56110148       2.66175716       3.96523199       0.00485023       0.00594211       0.00187624
C       12.29860681       1.58242871       3.12296959       0.00199616       0.00390124       0.00126158
C       12.91032866       3.88870181       3.39935185       0.00236050       0.00447965      -0.00285736
C       12.47551057       2.51331191       5.45927786       0.01247613       0.00540276       0.00146735
C       12.38314619       1.72909781       1.74296923      -0.00172728       0.00279544       0.00512353
C       12.98399104       4.04426943       2.02192684      -0.00108837       0.00382566       0.00116140
C       12.71710558       2.96008034       1.19090811      -0.00270086       0.00148033      -0.00090632
H       12.01701749       0.62474683       3.54533603       0.00467667       0.00470935       0.00613524
H       13.11042000       4.74473526       4.03551945       0.00412491       0.00574186      -0.00182304
H       11.98853239       3.37523714       5.91875701       0.00963221       0.00258350       0.00362346
H       11.92407924       1.61016366       5.73052862       0.01767944       0.00270997       0.00381121
H       13.49245854       2.45540360       5.88864416       0.01553368       0.01279197      -0.00435292
H       12.18015235       0.87869051       1.10266793      -0.00300435       0.00165224       0.00467730
H       13.25646397       5.00954051       1.60859264      -0.00231135       0.00266707      -0.00333311
H       12.76581112       3.08062493       0.11477544      -0.00415038       0.00038773       0.00141652
C        8.81962727       2.22569045       3.99194124       0.00795664       0.00306273       0.00076769
C        9.06371838       2.55529244       2.65799883       0.00669014       0.00454140      -0.00106791
C        9.00031299       3.21662492       4.95439904       0.00758237       0.00754402      -0.00198182
C        8.37092396       0.84764598       4.35680089       0.01229945       0.00344235       0.00316267
C        9.46679602       3.83115018       2.29484311       0.00250223       0.00111816      -0.00185275
C        9.40708004       4.49695442       4.59775606       0.00323480       0.00436758      -0.00236043
C        9.64062017       4.80956642       3.26650137       0.00249851       0.00654620      -0.00422605
H        8.94761698       1.78759995       1.90064773       0.00748023       0.00149896       0.00057509
H        8.81662566       2.97651593       5.99583509       0.00856003       0.00658182      -0.00057398
H        8.13379851       0.76684096       5.41718617       0.01360389       0.00446125       0.00356777
H        7.48505800       0.55968201       3.78948570       0.01187325       0.00051069       0.00506942
H        9.14486542       0.10768923       4.14264491       0.01329452       0.00449339       0.00281601
H        9.67002042       4.05729695       1.25504499       0.00225940       0.00204397      -0.00280406
H        9.53590438       5.25172851       5.36244076       0.00330363       0.00759622      -0.00418510
H        9.96618749       5.80330871       2.99037562       0.00007582       0.00441004      -0.00496400
C        3.51841195       3.18072489       1.87672876      -0.00050855      -0.00078158       0.00595721
C        2.89326024       2.07201746       2.45027252      -0.00352514      -0.00434394       0.00223799
C        4.73917113       3.59596723       2.41011272      -0.00428036      -0.00327244       0.00828356
C        2.90798370       3.92308592       0.72771677      -0.00048536      -0.00026876       0.00616115
C        3.47374030       1.39981467       3.51941913      -0.00192279      -0.00505702       0.00184624
C        5.31775265       2.93676601       3.48530247      -0.00284433      -0.00421384       0.00749465
C        4.68768754       1.82922667       4.04215738      -0.00585865      -0.00805560       0.00373262
H        1.94536939       1.72752089       2.05446575      -0.00103571      -0.00265416       0.00040303
H        5.24297417       4.44985763       1.97569980      -0.00280321      -0.00093485       0.01125248
H        3.67981179       4.29050801       0.05234959       0.00029677      -0.00451677       0.00451953
H        2.22567340       3.28571778       0.16568259      -0.00402950       0.00251168       0.00803433
H        2.34068561       4.79362830       1.07020497       0.00414680       0.00288323       0.00580949
H        2.98558361       0.51881798       3.91879471      -0.00418074      -0.00680839      -0.00068632
H        6.26639455       3.28411348       3.87538346      -0.00498772      -0.00616093       0.00926032
H        5.14659645       1.29196702       4.86316964      -0.00498508      -0.00903789       0.00297208
C        5.76047776       6.39312711       4.88941551      -0.01186851       0.00527968      -0.00250413
C        7.05702949       6.89214468       5.02959556      -0.00931635       0.00007064      -0.00239190
C        5.06509659       6.66571117       3.71298302      -0.01117519       0.00688981      -0.00069021
C        5.13398993       5.57386913       5.98038863      -0.01354946       0.00915232      -0.00026324
C        7.66208075       7.59911784       3.99994667      -0.00855902      -0.00082893      -0.00419052
C        5.66850401       7.36619407       2.67642765      -0.00997593       0.00534484      -0.00263318
C        6.97671058       7.81159463       2.80955065      -0.00844619       0.00144236      -0.00176135
H        7.59743836       6.71770257       5.95370150      -0.00952133      -0.00241358      -0.00402638
H        4.04229607       6.32892170       3.59857933      -0.01289040       0.01168251      -0.00018956
H        4.29025360       4.99906152       5.60037935      -0.01712035       0.01302639       0.00128476
H        5.85939515       4.87567237       6.40040029      -0.01668648       0.00596185      -0.00092473
H        4.78012750       6.20226964       6.80202543      -0.00948350       0.01153994      -0.00037502
H        8.66284622       7.99418641       4.13053087      -0.00709736      -0.00426731      -0.00389198
H        5.09801834       7.57717800       1.78105480      -0.01032403       0.00795070      -0.00067124
H        7.44926000       8.35875898       2.00391708      -0.00820746       0.00222079      -0.00216617
C       11.93022948       2.95911054       9.85947169       0.00355786       0.00626597       0.00639176
C       12.43381048       4.17613977      10.31644814       0.01108247       0.00198215       0.01045120
C       10.62086297       2.60222606      10.17133059       0.00356114       0.01084301       0.00677563
C       12.77471563       2.02002330       9.03785286      -0.00261930       0.00571126       0.00049652
C       11.63522935       5.02590472      11.07465824       0.01520403       0.00264189       0.01558127
C        9.82218951       3.45362507      10.92210711       0.00755376       0.01144883       0.01239008
C       10.32572368       4.66657922      11.37319139       0.01561524       0.00738484       0.01567778
H       13.45038837       4.46849995      10.07484500       0.01173878      -0.00222267       0.01072223
H       10.21979267       1.66251174       9.81333920      -0.00189486       0.01412252       0.00411369
H       12.12067827       1.37479326       8.43374416      -0.00898264       0.00724681       0.00601441
H       13.44022520       2.58700246       8.37131972      -0.00726715       0.00427383      -0.00518216
H       13.38687100       1.37073773       9.68304658       0.00111476       0.00529118      -0.00379658
H       12.03443043       5.96889850      11.42712428       0.02107761      -0.00086623       0.01910513
H        8.79734039       3.17800821      11.13599930       0.00786325       0.01516258       0.01317983
H        9.68892134       5.34001174      11.93307528       0.01910941       0.00779849       0.02035668
