137
Lattice="13.09630337973656 0.0 0.0 0.0 13.09630337973656 0.0 0.0 0.0 13.09630337973656" Properties=species:S:1:pos:R:3:forces:R:3 energy=-900317.625 stress="0.0002906771842390299 0.0002067951500066556 0.000497526692925021 0.0002067951500066556 0.0002977122494485229 -0.0003157074243063107 0.000497526692925021 -0.0003157074243063107 0.00047095477930270135" pbc="T T T"
Ce       2.12262699      11.87111201       5.25449285      -0.00910207      -0.00846439       0.00728022
Ce      10.97722974      12.04606322      10.57023483      -0.01847932      -0.00579427       0.00200933
O       10.88703887      11.99902958       6.60841730       0.00299857      -0.00085650       0.01141826
O       11.95483962      10.91963493       9.18971720      -0.00574882      -0.00290915       0.01687447
O       11.55458944      13.37644223       9.14681163      -0.00101786      -0.00258298       0.01333491
O       13.77445009      12.31468752       6.93147146      -0.00104600      -0.00467334       0.01561136
Mo      12.13665403      12.18226308       7.71403970       0.00458166      -0.00188735       0.01105937
O        3.97414327      12.23713915       6.00408440      -0.00548587      -0.00160755      -0.00307718
O        4.12826147      10.50080954       8.34566165      -0.00836730       0.01306427       0.00609809
O        5.47093704      12.99321775       8.51612113       0.00475931       0.00720704      -0.01115787
O        6.57222337      10.92210263       6.99332899      -0.00951862      -0.00739819      -0.00182840
Mo       5.08700163      11.67201453       7.49092894      -0.00350809       0.00374430      -0.00159550
O        1.25687656      10.94054973       3.39241450      -0.04580662      -0.01486814      -0.00386529
O        2.04787788      13.34730458       3.65510435      -0.01153591      -0.00701216       0.01022603
O        0.13963730      12.73931159       1.28817413      -0.01480430       0.00261985       0.03354651
O        2.85972222      11.94631582       1.17531950      -0.03431004      -0.00385228      -0.00315261
Mo       1.54442807      12.30155976       2.19622092      -0.03648837      -0.00046645       0.01852965
O        7.09054478      11.58475908      10.97123334      -0.00230828       0.00149089      -0.00682389
C        8.16695730      10.85587341      10.48945040      -0.00700915      -0.00270945      -0.00992006
C        6.10714863      10.85142091      11.72002858       0.00112885       0.00441599       0.00165005
C        8.69194344      11.58051350       9.26402363      -0.00247848       0.00050892      -0.00710490
C        4.79967728      11.58730537      11.60447061       0.00282174       0.00746104       0.00873981
H        8.94846822      10.72301795      11.29016936      -0.00776348      -0.01140157      -0.01100543
H        7.88862549       9.82893483      10.21846370      -0.01275429       0.00085664      -0.01582067
H        6.02705571       9.84218792      11.29531903      -0.00364942       0.00361288       0.00470001
H        6.43991358      10.76031080      12.76287561       0.00880542       0.00590428      -0.00077409
H        9.56762247      11.08982759       8.81158315      -0.00030211       0.00052317      -0.00309640
H        7.93998549      11.58203274       8.46675294       0.00068408       0.00303846      -0.00909197
H        8.87699317      12.65270883       9.46819804      -0.00162257       0.00003804      -0.00311917
H        4.03025887      11.08108013      12.18429567       0.00543368       0.01340034       0.01745249
H        4.89127555      12.60511932      11.98076110       0.00918208       0.00927383       0.00164539
H        4.49130489      11.63032115      10.56168918      -0.00576958       0.00315103       0.01100588
O        8.30424819       6.34764211       7.64661249      -0.00361860      -0.00183243       0.00116815
C        9.71176100       6.37060087       7.72063013      -0.00315166      -0.00248563       0.00150835
C        7.74472151       7.65233636       7.70185375      -0.00351256      -0.00201894       0.00093597
C       10.22331878       4.95064766       7.71235487      -0.00292609      -0.00232768       0.00066778
C        6.24338782       7.54856220       7.63719415      -0.00357664      -0.00183416       0.00048195
H       10.12329434       6.94046792       6.87267145      -0.00321068      -0.00203621       0.00142798
H       10.03017180       6.88988686       8.63863486      -0.00316422      -0.00178190       0.00069952
H        8.06032706       8.13997480       8.63749980      -0.00402018      -0.00194982       0.00089991
H        8.13385054       8.26452570       6.87721896      -0.00356610      -0.00210926       0.00088608
H       11.31311090       4.93935946       7.75688628      -0.00345491      -0.00188766       0.00201446
H        9.83416132       4.39804634       8.56765385      -0.00445804      -0.00245361      -0.00098039
H        9.90871696       4.43690891       6.80385663      -0.00265905      -0.00121186       0.00016312
H        5.79516117       8.54116240       7.69920355      -0.00320233      -0.00140446      -0.00066703
H        5.92980296       7.08069764       6.70270291      -0.00374937      -0.00237289       0.00054738
H        5.87063978       6.94273545       8.46473552      -0.00457700      -0.00124976       0.00075896
O        2.79138506       7.74747819       6.06166664       0.00040933      -0.00321537       0.00634898
C        2.69221478       9.09716921       5.67574291       0.00139700      -0.00458455       0.00470993
C        2.11386755       7.43926478       7.27423311      -0.00022325       0.00109982       0.00779510
C        3.69076178       9.29819797       4.55341463      -0.00429735      -0.00536719       0.00002033
C        2.46590363       6.01582198       7.62852389      -0.01040576      -0.00102651       0.00843760
H        1.65259227       9.30820767       5.33807796      -0.00034639      -0.00425199       0.00850578
H        2.92874769       9.73357213       6.55571688       0.00449701      -0.00228626       0.00258926
H        2.43319308       8.13669665       8.05878511       0.00419001      -0.00032505       0.00762266
H        1.02892310       7.55579793       7.13402155       0.00102413       0.00771583       0.00683086
H        3.76239658      10.31427287       4.15136619      -0.00742617      -0.00451836      -0.00023295
H        4.68482063       9.04272980       4.91167440      -0.00193751      -0.00380329      -0.00464606
H        3.44472829       8.65543861       3.71214510      -0.00781154      -0.00631307       0.00090052
H        1.95712253       5.70920481       8.54225000      -0.01033533       0.00351145       0.00969085
H        2.17883275       5.33840155       6.82304773      -0.01591025       0.00002635       0.01010345
H        3.54113218       5.92420777       7.78206795      -0.01064163      -0.00712249       0.00702693
O        5.71288038       2.28940710      11.00556506      -0.00376242       0.00970489       0.00822806
C        6.82294962       2.76438252      11.72841092       0.00184482       0.00730947       0.00159335
C        5.11347405       3.29574584      10.21091306      -0.00097841       0.00837142       0.00441194
C        7.44711878       1.60028714      12.46169597      -0.00009707       0.00687695       0.00223842
C        4.00536508       2.67746132       9.39492773      -0.00464562       0.00714868       0.00958300
H        7.55053267       3.22123356      11.03850712       0.00063694      -0.00009352      -0.00214866
H        6.51207233       3.55091573      12.43476495       0.00908962       0.01069120       0.00234774
H        4.72704709       4.09800225      10.86047645       0.00344650       0.01390466       0.00044116
H        5.87367161       3.74720607       9.55445521       0.00081781       0.00136240       0.00157604
H        8.35126841       1.91576734      12.98578765       0.00339186       0.00300406      -0.00043455
H        6.74876542       1.18042070      13.18656761       0.00278185       0.01255986       0.00742260
H        7.68601866       0.80835368      11.74968265      -0.00723899       0.00364079       0.00357562
H        3.51194433       3.44339848       8.79467766       0.00010223       0.00491355       0.00317186
H        4.40726058       1.90389503       8.74260783      -0.00622047       0.00047356       0.01632687
H        3.26567543       2.21342314      10.04781198      -0.00697537       0.01638709       0.01406866
O        9.90783762       9.78737144       0.48774138       0.01710237      -0.00025432      -0.01901207
C       10.57852904       8.54698823       0.70969330       0.01709181       0.00232303      -0.00161658
C       10.66252245      10.92647993       0.85255735       0.01441479      -0.00006342      -0.00948192
C        9.60823008       7.41948510       0.45707701       0.01573727       0.00239891      -0.01434145
C        9.73188653      12.06154588       1.20267993       0.01307243       0.00291792      -0.02368051
H       11.45463050       8.45915970       0.05191135       0.01947576      -0.00212291       0.00211388
H       10.94879032       8.51958618       1.74330017       0.02350437       0.02261074      -0.00090417
H       11.33188288      10.70057104       1.69198835       0.00246248      -0.00314254      -0.00064132
H       11.34756377      11.21290568       0.00972772       0.02681525      -0.00351954       0.00286114
H       10.12776814       6.46310683       0.51331560       0.00934514      -0.00033201      -0.00579911
H        8.81214587       7.41803587       1.19878852       0.00197157       0.00658298      -0.02929635
H        9.15609061       7.50792905      -0.53139798       0.02944682      -0.00144785      -0.02352370
H       10.30700756      12.95674627       1.44046576       0.01629078       0.00202696      -0.02925776
H        9.03488042      12.28350817       0.38956185       0.01811976      -0.00094797      -0.02956450
H        9.13462301      11.78730231       2.07432720       0.00428145       0.01252522      -0.02585709
O       11.86372801       3.31961572       3.23526373       0.00002383      -0.00653654       0.00046366
C       12.20402438       3.84717943       4.50209365       0.00297563      -0.00734684      -0.00062579
C       11.68328949       4.32449107       2.25748968       0.00227813      -0.00567517       0.00039661
C       12.43922422       2.69332265       5.44836348       0.00197145      -0.00823060      -0.00042450
C       11.38034789       3.65132432       0.94011254      -0.00142457      -0.00510865       0.00111359
H       13.10725933       4.47013660       4.41649971       0.00387549      -0.00861391      -0.00136558
H       11.39462419       4.49841766       4.86645728       0.00377032      -0.00688326      -0.00084494
H       10.86179382       4.99536459       2.55701788       0.00441736      -0.00537714       0.00270000
H       12.59394378       4.93882467       2.18092414       0.00355029      -0.00836313      -0.00039772
H       12.69730490       3.06010649       6.44301273       0.00394692      -0.00756507      -0.00070694
H       11.54160600       2.07736568       5.52660132       0.00105377      -0.00689428       0.00065131
H       13.25513858       2.07020881       5.07749850       0.00078762      -0.00950079      -0.00157859
H       11.27868026       4.39033862       0.14395935       0.00380730      -0.00479975       0.00007682
H       12.18333633       2.96312321       0.67559208      -0.00532369      -0.00918660       0.00231575
H       10.44907041       3.08766357       1.00831947      -0.00480211       0.00107365       0.00002370
O        6.22020957       3.07404138       4.39791744       0.00039578       0.00198007       0.00264585
C        5.28208559       4.12548047       4.51970108       0.00038493       0.00177319       0.00205514
C        7.28660649       3.20627323       5.32036863      -0.00163186       0.00029519       0.00550565
C        4.16991114       3.90590160       3.52350509       0.00189996       0.00243667      -0.00011083
C        8.21653460       2.02906972       5.15721312      -0.00030485       0.00141388       0.00428708
H        4.88627515       4.15288926       5.54625132      -0.00164698       0.00141606       0.00150955
H        5.78038076       5.09131271       4.34184688       0.00041699       0.00252372       0.00553845
H        7.81489676       4.15573368       5.14077373      -0.00265330       0.00150317       0.00894803
H        6.89063329       3.24914023       6.34544028      -0.00449115      -0.00255111       0.00448650
H        3.42917026       4.70224191       3.61027397       0.00287468       0.00324942      -0.00089790
H        4.56256987       3.90579728       2.50607736       0.00146335       0.00054766      -0.00022471
H        3.67594640       2.95015523       3.69914311       0.00028620       0.00305593      -0.00157982
H        9.04238268       2.10281543       5.86599632      -0.00248492      -0.00001401       0.00721240
H        7.68839961       1.09468434       5.34859217      -0.00037195       0.00035012      -0.00009114
H        8.63097998       1.99925854       4.14877020       0.00297599       0.00515100       0.00532895
O        6.05786617       8.91542479       2.59556941       0.00560260       0.00046733      -0.00640851
C        7.39473523       8.93478386       3.06903272       0.00707497       0.00126585      -0.00963926
C        5.92782849       8.20986091       1.37652942       0.00308108      -0.00137951      -0.00524369
C        7.46036301       9.78167421       4.31204336       0.00947800       0.00064236      -0.00917578
C        4.50746154       8.34262727       0.88277121       0.00153559      -0.00396807      -0.00187421
H        7.72674209       7.90519063       3.28292647       0.00878632       0.00153387      -0.01126985
H        8.04933200       9.33787531       2.28392846       0.00476637       0.00235796      -0.01104847
H        6.63279892       8.62399477       0.64124633       0.00058997      -0.00168917      -0.00754455
H        6.19599865       7.15105719       1.52374101       0.00461664      -0.00093329      -0.00458305
H        8.48982984       9.88556120       4.65716596       0.01003198      -0.00205496      -0.00972586
H        7.06184605      10.77879187       4.12286727       0.01175202       0.00188595      -0.00850623
H        6.88495726       9.35291246       5.12920622       0.00836524       0.00166199      -0.00929585
H        4.41323432       7.91200582      -0.11493786       0.00010146      -0.00611512      -0.00087829
H        3.81383922       7.82239304       1.54391654       0.00410734      -0.00375372       0.00089401
H        4.21789218       9.39321790       0.83786899      -0.00009058      -0.00426519      -0.00247425
