143
Lattice="12.283047863014902 0.0 0.0 0.0 12.283047863014902 0.0 0.0 0.0 12.283047863014902" Properties=species:S:1:pos:R:3:forces:R:3 energy=-2319018.75 stress="6.245729309739545e-05 -0.0005326058890204877 0.00026964006246998906 -0.0005326058890204877 -0.00016775717085693032 -0.0004092188464710489 0.00026964006246998906 -0.0004092188464710489 0.00041693964158184826" pbc="T T T"
Cf       7.75095852      13.48481918       1.27698912      -0.00101468       0.01169065       0.00297117
Cf       5.19322316      10.94741039       1.47099331      -0.00872007       0.01434696      -0.02630407
O        8.32592072       9.91362918       8.31185141      -0.01404065      -0.01319790      -0.03271490
O        6.07529132      11.66650423       8.34307271      -0.00245327      -0.00013030       0.00933242
O        6.60362278      10.03735234       5.92471219      -0.03045269       0.03349767      -0.01839594
O        8.34956348      12.28384814       6.75503283      -0.01053745       0.00870585      -0.00175869
Mo       7.35752154      11.00635525       7.35107472      -0.01510435       0.00607234      -0.00982779
O        5.92703207      12.84719618       1.75517096      -0.00715828       0.01152951      -0.01798028
O        8.98869521      11.55702156       1.38827149       0.00490694       0.01340836       0.00412413
O       11.03492641      11.44525238       3.37753496      -0.00722450       0.01601217       0.01408554
O        8.72493108      13.18733763       3.45307093      -0.01570232       0.00781864       0.00635791
Mo       9.34132065      11.54989047       3.14795211      -0.00717378       0.01098350       0.00595590
O        5.97482543       7.98310184       4.21053863      -0.01529611       0.02029395      -0.01137919
O        6.74674437       9.68059940       2.19383277      -0.00868094       0.01958814      -0.01384482
O        8.40308636      10.26084652       4.05699902      -0.01226869       0.00700241      -0.00520575
O        5.00300071      10.63068033       3.77363965      -0.01954746       0.01619650      -0.02471597
Mo       6.45254838       9.63153254       4.04024965      -0.01817136       0.02068998      -0.01615009
O        1.00010031       2.78433550       2.00408478      -0.01538992      -0.01391703      -0.00250661
C        2.36200561       2.40660009       1.83141780      -0.01250890      -0.00631572       0.00249636
C        2.98838624       1.86742212       3.09937475      -0.01282170       0.00407536       0.00698346
H        2.45262853       1.67563601       1.01586009      -0.00584745      -0.01000378       0.00645047
H        2.87747106       3.31027407       1.49966471      -0.01703332      -0.00506607      -0.00079039
H        4.03765388       1.61506859       2.93814173      -0.01196244       0.00549636       0.00961320
H        2.92351715       2.60563825       3.90049969      -0.01589361       0.00974634       0.00137860
H        2.47432820       0.96215267       3.43304461      -0.01037863       0.00466116       0.01223789
H        0.53641165       2.04539184       2.40986776      -0.01079420      -0.01290877       0.00355861
O        7.47446977       3.23077611       2.52420664       0.00892422       0.02077158      -0.00180167
C        6.78914205       4.43469844       2.11388944      -0.00320651       0.01433823      -0.00151947
C        5.89100611       4.96054671       3.19795081      -0.00998908       0.00574823      -0.00274134
H        7.53925105       5.16876046       1.81287504      -0.00948256       0.02171066       0.00065525
H        6.22034129       4.14552263       1.22935975       0.00091034       0.00980322      -0.00272149
H        5.40874770       5.87513900       2.85633587      -0.01852930       0.00092393      -0.00383440
H        5.13135426       4.22682456       3.46864971      -0.00364679      -0.00124630      -0.00369528
H        6.45742266       5.22530087       4.09164436      -0.01404297       0.01164111      -0.00185722
H        7.76975021       3.26522235       3.44192542      -0.01229571       0.01514439       0.00528181
O       12.75023305       1.72188216       8.06635264      -0.01954859      -0.01496042       0.03691790
C       11.34220370       1.92858318       8.16690973       0.02031013       0.00916401      -0.01524894
C       11.00606208       3.37130732       8.48877245      -0.00013027       0.00069022      -0.00130871
H       10.82979028       1.60323583       7.25604747       0.00951901       0.00393978      -0.00343812
H       11.01150948       1.26354482       8.96713427       0.00694238      -0.00044581      -0.00381836
H        9.93025802       3.49258665       8.63354682       0.00077799       0.00070536      -0.00737172
H       11.52147139       3.66670780       9.40619576      -0.00375187       0.00241631      -0.00044107
H       11.30406921       4.05193040       7.68761031       0.00354096       0.00303726      -0.00156826
H       13.06616956       2.22983788       7.31534011       0.01621019       0.02761162      -0.02485401
O        7.22396610       2.39900034      11.56976087       0.00694141       0.00087912      -0.00160236
C        8.21404767       3.38964973      11.26457285       0.00622979       0.00052556      -0.00382400
C        9.51929288       2.98394395      11.90936511       0.00526440       0.00303536      -0.00013144
H        8.32150110       3.45391695      10.17909381       0.00799006      -0.00377623      -0.00390288
H        7.88099233       4.36395856      11.62959092       0.00508125       0.00168699      -0.00794621
H       10.31301281       3.68972245      11.66636856       0.00669640      -0.00004631      -0.00400201
H        9.45966601       3.00648867      13.00503010       0.00425539       0.00961694      -0.00043216
H        9.83737227       1.99597962      11.56376700       0.00339617       0.00041394       0.00557873
H        6.35326198       2.67804660      11.12602159       0.00486693      -0.00003892       0.00052735
O       10.90321035       6.23957037       6.06849436       0.00672567       0.00151813      -0.00302500
C        9.63963259       6.20595399       5.44940511       0.00687766       0.00011879      -0.00375102
C        8.49249639       6.15754124       6.44285586       0.00418586       0.00492946      -0.00616086
H        9.50056214       7.08407683       4.79586225       0.00883242      -0.00199670      -0.00677812
H        9.63175910       5.30801664       4.81885423       0.00634034      -0.00240353      -0.00017917
H        7.53231397       6.11005993       5.92498518       0.00536531       0.00582581      -0.00875468
H        8.58761952       5.28912436       7.09843172      -0.00020492       0.00581053      -0.00426950
H        8.50049952       7.05676697       7.06260481       0.00409224       0.00609969      -0.00787042
H       10.89462780       7.03228477       6.63882558       0.00529154       0.00305472      -0.00486587
O        3.31678023       8.06349727       3.16777157      -0.01494598      -0.00262806       0.00912808
C        2.23580810       7.21085721       3.57811072      -0.01089006      -0.00876161       0.00875735
C        2.10722115       5.99546957       2.69043486      -0.00793612      -0.00592828       0.00414935
H        2.37814643       6.92970724       4.62326506      -0.00626983      -0.01233727       0.00705945
H        1.33709288       7.82864285       3.52702009      -0.01339564      -0.01224166       0.01322208
H        1.24336030       5.39324734       2.97331475      -0.00563878      -0.00948154       0.00362685
H        1.98789338       6.29241937       1.64645480      -0.01083433      -0.00274469       0.00536953
H        2.99483597       5.36765890       2.76927719      -0.00580549      -0.00346673       0.00021724
H        4.16347300       7.82969271       3.58955247      -0.01293294       0.00324622       0.00860961
O        5.51083084      11.84644988      10.96346441       0.02778238      -0.00830987       0.01683739
C        6.69332683      11.10573846      11.19784344       0.02675205      -0.01881814      -0.00053248
C        6.45797064       9.61139982      11.18825215       0.01359235      -0.01655632      -0.00911206
H        7.47717763      11.37195244      10.48389676       0.01831004      -0.01963202      -0.01027977
H        7.09437239      11.39154441      12.18755642       0.03893785      -0.02732021      -0.00381285
H        7.30725307       9.09336031      11.62958862       0.01509829      -0.02805860      -0.02600911
H        5.55817208       9.33988061      11.75872827       0.02115563      -0.01421656       0.00416682
H        6.30353185       9.25919491      10.16931466      -0.00450785      -0.00724945      -0.00951764
H        5.42709834      11.86183602       9.98050765       0.01316697      -0.00689875       0.01779431
O        3.21003084       9.66872515       1.18199105      -0.00596812       0.00630236       0.01614708
C        2.18836796      10.65761459       1.43410096      -0.01580495      -0.00446418       0.01741791
C        0.87632460      10.27528560       0.80278175      -0.00495344      -0.01118115      -0.00062883
H        2.08321918      10.79892006       2.51347228      -0.02664401      -0.01678673       0.01768976
H        2.56137672      11.59895590       1.00179370      -0.02143407       0.00427839       0.03139281
H        0.12086454      11.02742396       1.03418706      -0.01398350      -0.01873294      -0.00580519
H        0.97166206      10.17625968      -0.27802428       0.01034009      -0.00335845      -0.00001591
H        0.53528872       9.32630157       1.21704277      -0.00062197      -0.01753363      -0.01159851
H        3.20021859       8.98432248       1.92440332      -0.00270300       0.00512388       0.01587018
O        5.19072402       3.43150836      10.41261170       0.00167790      -0.00720567       0.00605603
C        3.84114617       2.93776482      10.45181267       0.00269511      -0.01025575       0.00958359
C        2.84195361       4.07273699      10.52138472       0.00056547      -0.01186085       0.00519436
H        3.65512855       2.31642663       9.57094026       0.00283889      -0.01515868       0.01331946
H        3.77220254       2.29777190      11.33232299       0.00518714      -0.00534791       0.01354447
H        1.82767580       3.67383152      10.57792461       0.00142883      -0.01351071       0.00959781
H        3.02136464       4.69455005      11.39983812       0.00135688      -0.00637782       0.00118275
H        2.90670370       4.70365654       9.63282560      -0.00230155      -0.01709120       0.00133038
H        5.35632034       3.70275172       9.47422952       0.00023209      -0.00594546       0.00591128
O        5.46768950       6.68101682       7.36980338       0.00485611      -0.00455078      -0.00670376
C        4.16401533       7.24309557       7.17659861       0.00296482      -0.00645566      -0.00098911
C        3.82407542       8.29705994       8.20921894       0.00758090      -0.00474685      -0.00138241
H        4.09852176       7.66557077       6.16916889      -0.00294957      -0.00857645      -0.00152266
H        3.47123079       6.40209592       7.23779459       0.00467911      -0.00729445       0.00466423
H        2.81141056       8.66953758       8.04301140       0.00534962      -0.00793659       0.00501419
H        3.87647635       7.88209104       9.21628418       0.01602582      -0.00232059      -0.00079234
H        4.50570946       9.14795341       8.14299289       0.00472718      -0.00299172      -0.00845535
H        6.11117682       7.34437924       7.09779595       0.00329831      -0.00262171      -0.00519699
O       11.23765092       6.71866373       9.30680414       0.01888391       0.01207995       0.00079238
C       10.38389520       7.50261555      10.13409146       0.00771511       0.00382514      -0.00301965
C        9.05162838       6.83363171      10.38679890       0.01554835      -0.01204470      -0.00467280
H       10.88097173       7.72650814      11.08756894       0.00251511       0.01172364      -0.00212866
H       10.23756395       8.44324374       9.60694946      -0.00226994       0.00086671      -0.00564232
H        8.38973137       7.48529584      10.95482962       0.00815409      -0.02115279      -0.00288478
H        8.55620492       6.59252261       9.44619391       0.01844278      -0.01599401      -0.00518945
H        9.18626769       5.91934622      10.96761158       0.02639257      -0.01144244      -0.00620172
H       11.19820551       5.80903476       9.61438285       0.02501022       0.01174946      -0.00000560
O        9.83355009       5.92532813       1.95183087       0.00312841      -0.00600606       0.00104409
C       10.69802839       7.05760336       1.81136779      -0.00169687      -0.00254095      -0.00019650
C        9.92672369       8.33281247       1.54966350      -0.00676677      -0.00419974       0.00612438
H       11.32134734       7.16043206       2.70758034       0.00232548      -0.00215325      -0.00304759
H       11.35880603       6.81673266       0.97622229      -0.00490743       0.00140079      -0.00390592
H       10.59815779       9.18666441       1.45084322      -0.00945076      -0.00239509       0.00284573
H        9.34128153       8.25672392       0.63456304      -0.01197027      -0.00499291       0.00939149
H        9.23506953       8.54404433       2.36707031      -0.00220010      -0.00651086       0.01054977
H        9.37053900       6.04668961       2.78682107       0.01343481      -0.01541987       0.00798392
O       10.51249634       8.78863248       7.08853357       0.00519675      -0.00034377      -0.00770110
C       11.65809854       9.56773341       7.41804418       0.00261825       0.00033045      -0.00111236
C       11.69179989      10.87235269       6.65198076       0.00319245       0.00279748       0.00344604
H       11.69026112       9.75509429       8.49841854      -0.00100888      -0.00302663      -0.00018775
H       12.52540781       8.94876988       7.17541206       0.00428152       0.00227457       0.00017440
H       12.54959456      11.47858741       6.95039014       0.00212108       0.00267965       0.00680403
H       11.74579092      10.68754855       5.57930022       0.00502052       0.00657923       0.00272301
H       10.78427791      11.44800147       6.84907354       0.00221603       0.00139245       0.00342523
H        9.73304320       9.19678437       7.51939451       0.00027697       0.00079260      -0.01743987
O        5.44863981       3.81002669       7.80539407       0.00832441       0.00418270       0.01059389
C        6.31396447       2.72514068       7.42242633       0.01434009       0.01184043       0.00412199
C        6.68488676       2.73825391       5.95912097      -0.00334384       0.01179093      -0.00025427
H        7.22088999       2.73239743       8.03987249       0.02201474       0.02308900      -0.00694665
H        5.77074151       1.81338887       7.67350533       0.02650887       0.00688311       0.01246811
H        7.30486266       1.86579936       5.74367797      -0.00076333       0.01519912      -0.00644849
H        5.79494818       2.70921121       5.32945288      -0.01137115       0.00493140       0.01131323
H        7.25988814       3.63803147       5.72273134      -0.01286159       0.01576735      -0.00803017
H        5.76653707       4.66850772       7.48116188       0.00140126       0.00752886       0.01149863
