149
Lattice="11.373856707051893 0.0 0.0 0.0 11.373856707051893 0.0 0.0 0.0 11.373856707051893" Properties=species:S:1:pos:R:3:forces:R:3 energy=-2050453.875 stress="0.0021863551810383797 0.0009327407169621438 0.0010260235285386443 0.0009327407169621438 0.0034000056330114603 -0.0010860463953576982 0.0010260235285386443 -0.0010860463953576982 0.004751624073833227" pbc="T T T"
Cf      11.83086889      10.10225096       1.47443737      -0.00632894      -0.00606114      -0.00588107
Cf       2.87109867      10.54672306       7.49708379       0.00285365      -0.00970125       0.00828805
S        9.75369922      10.00086187       5.86634850       0.01634359       0.01637597      -0.01633693
O        9.32358654       9.23492330       7.05426463       0.00473872       0.01110941      -0.01542449
O       11.23496937      10.00999787       5.78610448       0.00832665       0.00257303      -0.00870114
O        9.22232331       9.34357113       4.62762810       0.00864142       0.01733971      -0.01657230
O        9.24461854      11.39531177       5.91066076       0.01966327       0.01533544      -0.01103697
S        5.21852830      11.76116543       8.96338425       0.01324522      -0.00700907       0.02605713
O        5.37785311      12.02835718      10.38711308       0.01700876      -0.02757284      -0.01099277
O        5.03528138      10.26309603       8.72797698       0.00641187      -0.01324844      -0.00296409
O        3.89239874      12.31546104       8.45346322      -0.00008500      -0.01234162       0.02220052
O        6.32620606      12.25994585       8.15452207      -0.00639105      -0.00841939       0.00220555
S        3.87440079       9.66410778       4.72150477      -0.00465881       0.01376925      -0.00350584
O        3.88155555      10.87609022       3.87063397      -0.00605009      -0.01019627       0.01457590
O        2.48437781       9.34109387       5.13671369       0.01700079      -0.01002851       0.00051773
O        4.50632150       8.52563601       4.04650741       0.00980768       0.01105475       0.00416756
O        4.59611162       9.98836084       6.00493152       0.00348866       0.00161347       0.00074220
O        2.37749304       3.54283271       2.62489842       0.00163559       0.00452797      -0.00823567
H        3.29080254       3.44995867       2.29348044       0.00412963       0.00068619      -0.00020863
H        1.82418525       3.44886954       1.83316405       0.00495505       0.00010074      -0.01020687
O       10.50760653       1.60351390       7.74945729       0.02250181       0.00409837       0.01494998
H        9.93215997       1.06555021       7.16608189       0.02140875       0.01483769       0.00747350
H        9.99350267       1.80471059       8.56471618       0.01485519       0.00614637       0.00973144
O        6.57884937       8.52493675       0.82472385      -0.00296614       0.01025146       0.01445287
H        6.76492360       9.37055997       0.39996580      -0.02029397       0.03012550       0.03400882
H        6.84709939       8.60936629       1.77682355       0.00127237      -0.00387505       0.01032388
O        3.59848375       4.13614894       7.47026825      -0.02823125      -0.00591035      -0.00669327
H        3.19101556       3.66443325       8.21194012      -0.04031028      -0.00178000      -0.01173352
H        4.52988165       3.85820514       7.40044757      -0.02775405      -0.01208863      -0.00289876
O        7.52090642       9.12376537       9.13400160       0.01560284      -0.00059009      -0.03822508
H        8.06240219       9.41067810       8.37802866       0.01951791       0.00172178      -0.03941933
H        6.63765543       9.52271799       9.01109304       0.02150027       0.00592847      -0.02615829
O        8.46446166       6.58789978       7.03299590      -0.00064206       0.01054467       0.00004197
H        7.50246560       6.67918285       6.91552918      -0.00050396       0.01637045      -0.00831714
H        8.80352905       7.50788908       7.01855520       0.00726327       0.00615181      -0.00389845
O       10.87187260       6.54251437       0.91594292      -0.00329712       0.01612106       0.00539531
H       10.08599288       6.58908839       0.35517156       0.00004806       0.02130894       0.00216476
H       10.87709170       5.66149781       1.32567175      -0.00496465       0.01199885      -0.00146803
O        9.52072660       2.40474607      10.12945625      -0.01080054       0.00150325       0.00480658
H        9.19741578       3.29487006       9.91908243      -0.01322455       0.00140464       0.02223578
H        8.86470483       1.95717154      10.68918527      -0.00535905      -0.00696978       0.00914159
O        9.26553792       5.15591942       9.25563407      -0.01254305       0.01798099       0.01887639
H        9.00525776       5.83390765       9.90934045      -0.00776077       0.02624872       0.01226063
H        8.91982182       5.53233741       8.41820074      -0.00141495       0.01458485       0.01375492
O       11.97338650      -0.03771429       3.46063414       0.00470939      -0.00603753      -0.00435990
H       11.82355304      -0.54169621       4.29890649      -0.00028097      -0.00626436      -0.00221428
H       11.66628974       0.87993173       3.68056235      -0.00647324      -0.00917108      -0.00809544
O       10.24355568       3.90811194       2.00095172       0.00787830       0.00784814      -0.00424731
H       10.41886267       3.37806140       2.79850642       0.00276851       0.00747814      -0.00210612
H        9.36360733       4.28770387       2.13741688       0.01471210       0.02234583      -0.00355641
O        0.52570449       6.19069491       9.07099311      -0.00133249       0.00156671       0.01637679
H       -0.41525851       5.93894089       9.03517928      -0.00397022       0.01112764       0.01618955
H        0.64181299       6.97674208       8.51834654       0.00481637      -0.00505498       0.00871384
O        2.91426317       6.63452933       6.49142947       0.01771751      -0.00918017      -0.00445716
H        2.95294584       5.78257879       6.96601325       0.02705599      -0.00849475       0.00127097
H        3.84361590       6.93560056       6.55661094       0.01558642      -0.00408298      -0.01836630
O        0.92224255      -0.04743339       8.54919174       0.00021138      -0.02589894       0.02061847
H        0.25243514       0.61503832       8.17227967       0.00643885      -0.02251245       0.01948898
H        1.09530605       0.22774704       9.46750542       0.00755112      -0.01959777       0.01769957
O        2.29178764       0.71574327       5.83494863      -0.00367764      -0.00491953       0.01231731
H        2.18727857       1.71364604       5.83807972      -0.01330905      -0.00967769       0.00106653
H        2.76606903       0.51308331       5.00451444      -0.00262067      -0.00883612       0.00623080
O        9.50150748      10.19536633       2.01931678      -0.00330907       0.00746864      -0.01327856
H        9.27918453      10.10879127       2.97368718      -0.00542128       0.01258355      -0.01411197
H        8.87175524      10.81362827       1.58324021       0.00266266       0.01428299      -0.01668577
O        0.89116197       8.58564775       3.07076706       0.00189625      -0.00780957      -0.00565512
H        1.43275618       8.81858240       3.86439571       0.00236915      -0.00327630      -0.00271936
H        0.24752989       7.85922938       3.35039494       0.00460410      -0.00707460      -0.00323387
O        7.84802030       0.72656246      12.00151286       0.01416418       0.00064380       0.00773910
H        7.57133209       1.26982131      12.77684400       0.00008115      -0.00549973       0.00196416
H        7.04549953       0.64308189      11.45420083       0.01275129      -0.01558158      -0.00384860
O       10.50093519       6.99380519       4.02372563      -0.00258081       0.00211468       0.00258266
H        9.82689204       6.52932003       3.47795459      -0.00372054      -0.00439401       0.01200514
H       10.00538683       7.75532539       4.39654917       0.00026978       0.00838633      -0.00573224
O        2.59436457       6.14117791       3.67623262       0.00973305      -0.00162692      -0.00406731
H        2.51390187       6.23234657       4.64260758       0.01282353      -0.00059719      -0.00553342
H        2.30169066       5.24435758       3.42889405       0.00734345      -0.00486043      -0.00406611
O        5.02564856       3.62367786       1.57677453       0.01701935      -0.00558774       0.00770852
H        5.16137224       3.67308968       0.62589348       0.00854082       0.00622250       0.00393599
H        5.25445085       4.49593882       1.94636682      -0.00153884      -0.00542967       0.01095239
O       10.42801575       9.69989703      10.86467700       0.00656218       0.00135729      -0.00820661
H       10.77523805       9.75373076       9.96320380       0.00246347       0.02671371      -0.00762072
H        9.77082506       8.97962128      10.86569712       0.01495591      -0.00705367      -0.01927332
O        2.78347893      10.43528694       1.56449537      -0.00619191       0.00156414      -0.00216743
H        3.15352777      10.72662241       2.44836073      -0.00806697       0.00482511       0.00451468
H        3.29258618       9.60486013       1.38414843      -0.00807711       0.00518327       0.00331243
O        1.96505946       3.25435766       5.48009078      -0.02450022      -0.00747785      -0.01628840
H        2.42805752       3.28903150       4.62543061      -0.02364437      -0.00348593      -0.01677167
H        2.59767989       3.63602084       6.12973588      -0.02870117      -0.00265265      -0.01644225
O        6.33775670       3.39606808       7.18803357      -0.02350111      -0.00334704      -0.00290058
H        6.43596908       2.46948804       7.50968914      -0.01821270      -0.00448030       0.00326997
H        6.98196400       3.53549657       6.46150765      -0.02443455      -0.00529695       0.00006952
O        8.28763057       5.79021670       2.93863637       0.00169134      -0.01094004      -0.00060450
H        7.73785290       6.59237333       3.00780195       0.00668794      -0.00917386      -0.00307154
H        8.00267542       5.21779541       3.68266623      -0.00704180      -0.01106188      -0.00306672
O        1.28106274       3.61069220       8.97897170      -0.01627278      -0.01190478      -0.00622815
H        1.09705706       4.57562414       8.88759677      -0.01130672      -0.01100706      -0.00249036
H        0.67306716       3.17662928       8.36464513      -0.02841949      -0.01141762       0.00405235
O        6.85467107      11.36983695       4.54564729      -0.00188884       0.01621276       0.02171002
H        7.58984516      11.38567155       5.18678592       0.00757086       0.01750571       0.00916258
H        6.04571794      11.24993034       5.05824751       0.00722575      -0.00440029       0.03443234
O        1.38961254       8.59297929       7.52126703       0.01228710      -0.01674603       0.00342953
H        0.73099320       8.95242268       6.87604312       0.00523368      -0.01926928       0.00770791
H        1.88336518       7.88063793       7.03386557       0.01164089      -0.01567517       0.00159012
O        5.59719193       7.15802347       7.19230129       0.01606603      -0.00135511      -0.01581708
H        5.69120138       6.63302744       8.01971570       0.00907744       0.00090743      -0.00883767
H        5.69301464       8.08597461       7.43920638       0.01034081      -0.00354957      -0.01725960
O       10.33515843       4.81433391       5.81702077      -0.02870135       0.00397563       0.02035327
H       10.68216306       5.46228432       5.18041782      -0.00777096      -0.01469371       0.01501703
H        9.71101140       5.36568062       6.31877531      -0.03135417       0.02347992      -0.00517559
O        1.17446922       0.49250141      -0.00969496      -0.00166750      -0.00625309       0.00066391
H        0.98078624       1.49407615       0.09889479      -0.00549436      -0.00647788      -0.00023984
H        2.13541101       0.40218669       0.10582086      -0.00216764      -0.00587910       0.01396040
O        5.16667025       5.69462754       3.37827451       0.00759438      -0.00160775      -0.00120843
H        4.20777648       5.94246626       3.51078968       0.00508625      -0.00227955      -0.00433502
H        5.66790469       6.37891832       3.83226808       0.00861578       0.00372051      -0.02063997
O        3.90354528       8.02227529       1.27599626      -0.00438213      -0.00042060       0.01616654
H        3.93067289       7.81638009       2.22592041      -0.00161196       0.00680587       0.00817245
H        4.84388904       8.10207913       1.00571956      -0.00286244       0.00244525       0.01015060
O        7.16739613       2.06630502       2.93621890       0.00134758      -0.00632228      -0.00595070
H        6.95001936       1.30348264       3.53606321      -0.01011169       0.00564673       0.00286124
H        6.31495728       2.50340624       2.77108731       0.00737295      -0.00577497      -0.03626478
O        7.04667285       8.26619531       3.40424897      -0.00370703      -0.00790231       0.00815332
H        6.14894858       8.50061603       3.73569754       0.01371286      -0.00142303       0.00542451
H        7.68338267       8.76228400       3.95658021       0.01170303      -0.00251448       0.00312617
O        4.79315917       3.17673285       4.52982008      -0.02165856       0.00081746       0.00286879
H        5.21603851       3.05424262       5.38804556      -0.01146626      -0.01330731      -0.00217554
H        5.04989246       4.07715273       4.25772842      -0.00973005      -0.00554906       0.00692171
O        6.09454905       5.31480732       9.18425950      -0.01501197       0.01574379      -0.00899877
H        6.31993836       4.58833732       8.56628652      -0.02635749       0.01474617      -0.01182205
H        6.90686753       5.48827604       9.66958341      -0.00846537      -0.00268584      -0.01565919
O        1.40459138       8.21218748       0.25210235       0.00751840      -0.00363153      -0.00675423
H        0.77462129       7.44820810       0.36144528       0.00279620      -0.00104871      -0.01534609
H        2.25045558       7.91435457       0.65197915      -0.00172275      -0.00637116       0.00735374
O        8.54784688       7.33644614      10.74977200       0.01683466       0.04205526       0.00130057
H        7.89278028       7.49461501      11.46064061       0.01287840       0.04165414      -0.00291513
H        8.15396174       7.89389469      10.02404741       0.01495779       0.03261290      -0.00727089
O        2.73204051       9.78392742       9.81449610       0.01953146      -0.01149040       0.00644648
H        3.67796504       9.64424825       9.97564602       0.01286608      -0.01826315      -0.00084323
H        2.23671091       9.00297716      10.12084742       0.00879171      -0.00911224       0.01398732
O        0.82619611       3.01232005       0.19679139      -0.00160289      -0.00856683       0.00049089
H       -0.08137678       3.23432761       0.46501299       0.00202096       0.00064631       0.00849798
H        0.92940762       3.29381686      -0.74884269      -0.00622913      -0.00860496       0.00056787
O       10.88280099       2.23600975       4.34581204      -0.00426953      -0.00485916      -0.01058954
H       10.26266445       1.76221249       4.92154547      -0.00703362       0.00056347      -0.00822717
H       11.43941774       2.76697570       4.94465528       0.01587100      -0.02034777      -0.01541796
O        7.93708961       3.86024256       4.91767978      -0.01808723      -0.00238888       0.00786444
H        7.80832570       3.15027703       4.25030259      -0.01382689      -0.00054145       0.00415701
H        8.89475427       3.95941765       5.11348300      -0.01985963      -0.00719553       0.01910381
