147
Lattice="12.697187981864364 0.0 0.0 0.0 12.697187981864364 0.0 0.0 0.0 12.697187981864364" Properties=species:S:1:pos:R:3:forces:R:3 energy=-2048610.25 stress="0.00020949073950760067 -0.001250767963938415 0.0010785544873215258 -0.001250767963938415 0.00044993244227953255 1.4471189160758513e-05 0.0010785544873215258 1.4471189160758513e-05 -0.0006372741772793233" pbc="T T T"
Cf       4.33358139      10.22378845       6.42471647      -0.00925679       0.01042844      -0.01335663
Cf       1.85113645      12.60114587       4.29174761      -0.02197859       0.01658040       0.01555365
S        2.88606450      11.53080114       1.97684765      -0.01747715       0.00742411       0.01996124
S        3.91684879      10.92750707       3.73491848       0.00589508       0.04258555       0.01444742
O        2.86310807      13.01202549       2.22612163      -0.04211064       0.00337821       0.00973743
O        1.52097696      11.04529746       2.21508068       0.00550675      -0.02821562       0.01126150
O        3.55951044      11.11091625       0.79202644       0.00675392       0.01788600       0.01278293
S        0.17217296      11.22104563       6.40493933      -0.02342516       0.00564307       0.00361672
S        2.16083840      11.87253852       6.77470052      -0.01981653       0.00335820       0.00992665
O        0.06727112      11.51180976       4.91586603      -0.01253336      -0.00411269       0.00489688
O       -0.67065909      12.10592122       7.15684163      -0.01601136      -0.02515030      -0.00087422
O        0.07506299       9.80584565       6.65922152      -0.00638016      -0.01769638      -0.00262965
S        5.41934953      11.11184548       8.91655959      -0.02367669       0.00952425      -0.00972503
S        4.54003225      12.11189794      10.29788062      -0.03579462       0.00567454      -0.01464272
O        4.61096346       9.84397457       8.53470441      -0.01506650       0.00594687      -0.01373404
O        6.79788389      10.76107352       9.18144875      -0.02324390       0.01738569      -0.00146246
O        5.31648107      11.84418539       7.54586781      -0.01888028       0.01033735      -0.00960207
O       12.12220412       8.93604790      11.24151583       0.00305077      -0.01458997       0.01118052
C       11.39381948      10.47588338       9.60775400       0.00437528      -0.01495188       0.01060659
C       10.93698951      10.95880008      10.97726273       0.00745565      -0.01212674       0.01073195
C       11.66558376       9.00834651       9.88482773       0.00004987      -0.01523626       0.01231503
C       11.89338506      10.19953507      11.88585807       0.00640586      -0.01348311       0.01042093
H       10.66630807      10.63451814       8.81550991       0.00418001      -0.01344866       0.01107100
H       12.31004729      10.98751980       9.32055951       0.00569746      -0.01798931       0.00896138
H       11.00383540      12.04030509      11.09936828       0.01009664      -0.01211640       0.00941531
H        9.90275525      10.65717625      11.15033946       0.00703627      -0.00943950       0.01238959
H       10.74834825       8.41224686       9.78460796      -0.00196213      -0.01235533       0.01511011
H       12.42552463       8.58434190       9.22409790      -0.00270149      -0.01907180       0.01124290
H       12.84588187      10.73421872      11.98609113       0.00784224      -0.01559103       0.00895461
H       11.50497892      10.00911602      12.88853892       0.00667721      -0.01120231       0.01098472
O        6.80158667       8.26471131       6.98860603       0.00079966       0.00503737      -0.00883500
C        8.94785358       7.32251506       6.96261092      -0.00170076       0.00007920       0.00487605
C        7.93932250       6.17565515       6.99840204      -0.00385796       0.00185072       0.00146481
C        8.11778113       8.45190555       7.54221749      -0.00263697       0.00219139      -0.00046127
C        6.65791430       6.89254726       6.58707568      -0.00228420       0.00332806      -0.00192618
H        9.85824468       7.13413790       7.53240672      -0.00497629      -0.00113065       0.00955777
H        9.21852495       7.56069643       5.93091554       0.00374676      -0.00118326       0.00603297
H        8.17125994       5.34728756       6.32954418      -0.00311493       0.00162008       0.00209150
H        7.84901499       5.77199935       8.00924041      -0.00712279       0.00154594       0.00118569
H        8.05799689       8.39489433       8.63465176      -0.00953528       0.00257519      -0.00075293
H        8.46540041       9.44670789       7.27171674       0.00110337       0.00128424       0.00079902
H        6.52713815       6.86309772       5.49981696      -0.00294292      -0.00148910      -0.00161862
H        5.76624212       6.48717834       7.06287908      -0.00309870       0.00726289       0.00016415
O        7.88832614      12.41931270       1.58717854      -0.00955898       0.00059906      -0.00857842
C        8.07121444      10.26865842       0.55957840      -0.00721881       0.00030792      -0.00728786
C        6.71538625      10.43931727       1.26256564      -0.00634971      -0.00212467      -0.00482622
C        8.77994953      11.61563734       0.81618635      -0.01064656       0.00320959      -0.01228106
C        6.56840480      11.95029961       1.28958419      -0.00921929      -0.00226384      -0.00416498
H        8.63788189       9.42401486       0.95226758      -0.00381966       0.00323635      -0.00610989
H        7.93177902      10.11062911      -0.51008604      -0.00850426      -0.00292203      -0.00654343
H        5.89300614       9.95829379       0.73920681      -0.00626153      -0.00320411      -0.00407375
H        6.76519265      10.05198834       2.28227333      -0.00424849      -0.00263330      -0.00505263
H        9.70971646      11.51983800       1.38202222      -0.00764212       0.00713900      -0.01676220
H        9.00765125      12.12599644      -0.12521900      -0.01777224       0.00287548      -0.01427114
H        6.23890205      12.32733880       0.31298585      -0.01349302      -0.00291726      -0.00294280
H        5.90076079      12.32878741       2.06304366      -0.00721732      -0.00411375      -0.00159085
O        3.60395765       7.84410335       6.22953867       0.00461230       0.01066199      -0.01529480
C        1.59536471       6.71059579       5.64436203      -0.00649607       0.01963344       0.00822420
C        2.18971227       7.41981021       4.42886912      -0.00347027      -0.00810978      -0.00634390
C        2.37036643       7.32197775       6.81088589       0.00106056       0.03271108      -0.00452185
C        3.64541798       7.48375823       4.82966031      -0.00170887      -0.00860301      -0.01075814
H        0.52419180       6.86430940       5.75367781      -0.00475749       0.03145672       0.00812476
H        1.78852072       5.63610073       5.57734394      -0.01649230       0.01718971       0.02690518
H        2.03360718       6.89512325       3.48827336      -0.00977598      -0.02909403       0.00598104
H        1.78465573       8.42974175       4.33232169       0.00310566      -0.00755098      -0.02633614
H        1.83882328       8.15692969       7.26558820       0.00891319       0.04522297      -0.01877517
H        2.64587186       6.59690134       7.57863738      -0.00559843       0.04540762       0.00937474
H        4.14598805       6.51435694       4.73236420      -0.00661863      -0.01217669       0.00201905
H        4.22770578       8.24408426       4.30780821       0.00128521      -0.01877484      -0.02144773
O        7.73052542       3.02850728       8.84077095       0.00187364      -0.00329769       0.00257782
C        8.50969074       0.80451132       8.60501343      -0.00295389      -0.00550383       0.00754720
C        9.65703242       1.77251013       8.32653112      -0.00089997      -0.00889105       0.00421062
C        7.30378448       1.71310542       8.42557837      -0.00102571      -0.00335872       0.00626529
C        9.14794373       3.02198839       9.02777020       0.00224411      -0.00522217       0.00003330
H        8.47907214      -0.05807449       7.94327338      -0.00537889      -0.00726259       0.01000819
H        8.55652004       0.42811509       9.62927972      -0.00303595      -0.00297956       0.00856137
H       10.62667096       1.43361192       8.68797312      -0.00185782      -0.01004364       0.00498025
H        9.74905989       1.94234603       7.25011784      -0.00114972      -0.01285539       0.00347757
H        7.00648477       1.76443966       7.37091072      -0.00178273      -0.00543801       0.00632823
H        6.43871595       1.41761220       9.02013446      -0.00139737       0.00008260       0.00749469
H        9.37489430       2.98057420      10.10268005       0.00396360      -0.00121267      -0.00018573
H        9.55310259       3.95921065       8.63566222       0.00339204      -0.00745082      -0.00444467
O       10.95687198       4.28988751       0.46997165      -0.00089151       0.00060865      -0.00301551
C        8.97573913       3.51223843       1.44808183       0.00042260       0.00010324      -0.00207657
C        9.65059893       2.31658026       0.77527477      -0.00053331       0.00002569      -0.00302883
C        9.59223865       4.66616095       0.67708069      -0.00098261      -0.00010958      -0.00345206
C       11.04321212       2.85561989       0.44295394      -0.00163442       0.00067785      -0.00778732
H        7.88906195       3.47996888       1.38491866       0.00035161      -0.00013530      -0.00008584
H        9.25119684       3.56919119       2.50432012       0.00252432       0.00067138      -0.00264060
H        9.67442244       1.43443298       1.40878932       0.00192570       0.00046313      -0.00244224
H        9.10766639       2.04990842      -0.13340135      -0.00304574      -0.00109719      -0.00113258
H        9.08590139       4.80056593      -0.28874721      -0.00141820      -0.00167018      -0.00343519
H        9.58914817       5.61975857       1.20729015      -0.00153854       0.00049987      -0.00451025
H       11.78870356       2.55348630       1.18570792       0.00200906      -0.00151502      -0.01243046
H       11.40070913       2.52983062      -0.53875865      -0.00653125       0.00332347      -0.01045746
O       12.24216328       2.73896057       5.62255443       0.02282985      -0.01097099      -0.01283321
C       12.00977905       4.15827350       3.77039236       0.01066843      -0.00436291      -0.00561857
C       11.14825734       4.72142311       4.89976477       0.01123518      -0.01250270      -0.00104550
C       12.09859247       2.70449156       4.20640563       0.01698160      -0.00561616      -0.01228088
C       11.70927410       3.98726820       6.11458555       0.01511750      -0.01681080      -0.00517735
H       11.59495897       4.29906658       2.77398974       0.00799157      -0.00177564      -0.00402743
H       13.00362057       4.61386359       3.79390827       0.00922820      -0.00108790      -0.00562795
H       11.20561543       5.80447470       4.99860964       0.00912169      -0.01280946       0.00417186
H       10.09930051       4.45644920       4.73927541       0.01154450      -0.01391113      -0.00057697
H       11.18715960       2.15570357       3.92699708       0.01817942      -0.00783981      -0.01124394
H       12.96059345       2.16960307       3.78042992       0.01770106       0.00058277      -0.01899032
H       12.52678736       4.54716826       6.57859106       0.01170450      -0.01514220      -0.00142612
H       10.95819481       3.77986757       6.87695293       0.01603240      -0.02583840      -0.00697535
O        5.77494087       3.49631194       5.33375610      -0.00080103       0.00973570       0.00237004
C        4.08279204       2.76736662       6.81079934       0.00623941      -0.00340205       0.00501841
C        3.66894732       2.40998677       5.38701907       0.00969666      -0.01168003       0.00616994
C        5.11046114       3.85408808       6.55274393      -0.00101268       0.00350142       0.00393370
C        4.97861976       2.54740434       4.61178786       0.00650769       0.00319955       0.00334081
H        3.25264100       3.10443156       7.42956381       0.00353992      -0.00712603       0.00336742
H        4.53504184       1.89997089       7.29523409       0.01091079       0.00088987       0.00759792
H        3.30214258       1.38194322       5.37990857       0.02710497      -0.01779737       0.00669858
H        2.89204610       3.08002714       5.00819505      -0.00051169      -0.02407333       0.00548317
H        4.60819116       4.82275657       6.42071696      -0.00680390       0.00088614       0.00626822
H        5.86314430       3.94792773       7.33560236      -0.00025210       0.00663843       0.00278527
H        5.51139506       1.59117798       4.57741043       0.01532236       0.00839734       0.00093373
H        4.83695410       2.89607345       3.58613979       0.00003380       0.00314431       0.00404441
O        8.12360901       9.80364784       4.66663955       0.01769295       0.00424880       0.00343256
C        7.87194972      12.13945305       4.94006115       0.01313193       0.00482041      -0.00120984
C        9.35377523      11.79305203       5.07958559       0.01298824       0.00598264       0.00199142
C        7.23173744      10.78495158       5.18406926       0.01347312       0.00425565      -0.00197256
C        9.41837646      10.39959782       4.46481427       0.01477796       0.00843102      -0.00202540
H        7.52741041      12.88724381       5.65435309       0.01150376       0.00456123      -0.00153005
H        7.65844650      12.48354614       3.92701405       0.01481639       0.00511509      -0.00143254
H       10.01616692      12.49321497       4.57362929       0.01447727       0.00766407       0.00621280
H        9.65155804      11.76456463       6.12890089       0.00990662       0.00254298       0.00247452
H        7.07565641      10.61349552       6.25803080       0.00916369       0.00518225      -0.00259525
H        6.27716313      10.67919924       4.64987036       0.01557475       0.00117300      -0.00485766
H        9.61224917      10.44222385       3.38823288       0.01020578       0.01220205      -0.00286829
H       10.17531781       9.76167326       4.92762594       0.01859903       0.00851774      -0.00731096
O        4.30786365       5.57314091      11.23007196      -0.00110000       0.00975034       0.00102387
C        1.96594809       5.70322611      10.94008675      -0.00083494       0.00809200      -0.00199842
C        2.53460035       7.12052226      11.00183853      -0.00161189       0.00857645      -0.00417480
C        3.09356620       4.90477337      11.58198829      -0.00126779       0.00959528       0.00062397
C        4.00215095       6.87140427      10.68942424      -0.00080508       0.00883770      -0.00074036
H        1.01588493       5.58816972      11.46012731      -0.00105719       0.00869001      -0.00247201
H        1.82562240       5.39069509       9.90086669      -0.00015479       0.00663432      -0.00177929
H        2.06566096       7.82064234      10.31302660      -0.00039877       0.00641970      -0.00702430
H        2.41643706       7.52729981      12.00807645      -0.00422558       0.01074588      -0.00543043
H        2.98738144       4.89533584      12.67524784      -0.00246537       0.01104905       0.00051904
H        3.15347865       3.86852948      11.24012826      -0.00008777       0.00899452       0.00223771
H        4.18349239       6.85903703       9.60661445       0.00156862       0.00805067      -0.00034148
H        4.67634697       7.60730272      11.13007619      -0.00202444       0.00971729      -0.00025707
