147
Lattice="17.30384406573465 0.0 0.0 0.0 17.30384406573465 0.0 0.0 0.0 17.30384406573465" Properties=species:S:1:pos:R:3:forces:R:3 energy=-2123823.25 stress="-0.0006540374015457928 -1.6889247490325943e-05 2.8238287086423952e-05 -1.6889247490325943e-05 -0.00032132427440956235 -0.0004838180320803076 2.8238287086423952e-05 -0.0004838180320803076 -0.0009521277970634401" pbc="T T T"
Dy       8.33418755      15.99060853       8.98708374       0.01081201      -0.01347023       0.00957717
Dy       1.78111428      15.71463592       3.71706295       0.01036745       0.00546096      -0.00606045
O       11.55168490      17.28046813      11.17876495      -0.00965238       0.02227736       0.01633750
O       10.32370600      15.36751393       9.66298397       0.00826299      -0.00038683       0.02549529
O        8.80982915      17.04389856      10.85150527      -0.00946760      -0.00769556       0.01044244
O       10.27816164      15.30595899      12.37196962      -0.00031370       0.01598227       0.02485800
Cr      10.32083531      16.27348225      11.11549420      -0.01278985       0.00184901       0.01815683
O        5.92721782      13.54364112       6.44383137       0.00880837      -0.01808310       0.02487594
O        6.61280556      16.01546604       7.56964805       0.00594866      -0.01653075       0.01643145
O        7.97447964      14.95660960       5.49951343      -0.02305222       0.00197059      -0.01184297
O        8.15990413      14.02469248       7.97910297       0.03278673      -0.00008643      -0.01719856
Cr       7.09646493      14.57215969       6.77938670       0.00959227      -0.00649670       0.00627917
O        3.78052317      15.00373156       2.87778799       0.01671142       0.02040124       0.00426966
O        5.11959909      16.96665029       1.51706077       0.01040828      -0.00135899      -0.00319362
O        5.64798883      16.60890322       4.09885995      -0.00283933       0.04061043      -0.00351834
O        3.16393270      17.39841229       3.39023442       0.00064695       0.01485872      -0.03786731
Cr       4.55536873      16.52246235       2.93625222      -0.00879228       0.01869753      -0.02878286
Cl       3.20711787      17.91429805      11.34791222       0.01344709      -0.00642246       0.01742932
Cl       1.31283487      17.48006095       9.21106754       0.02775607       0.03012614       0.00074604
Cl       2.31450581      15.22454308      10.74651637      -0.02350645       0.01338685      -0.01113489
Cl       4.07471258      16.60153529       8.90064607       0.01383847       0.00043683       0.01602972
C        2.74039333      16.80129817      10.04375785       0.00521356       0.01254268       0.00452437
Cl      11.78759315      13.46450018       8.46812303       0.01335663       0.01483554       0.00198215
Cl      11.88793595      11.68010337       6.16901343      -0.00195491       0.02051896      -0.00176299
Cl      13.17228544      10.92510562       8.66019534       0.00157595       0.00942141      -0.00737265
Cl      14.28565457      13.06992440       7.04117139       0.00650528       0.00785504      -0.00589907
C       12.76052587      12.29530862       7.60157502       0.00536299       0.01313585      -0.00398161
Cl      14.58050206      12.54355751      11.78440755      -0.00013778       0.00617939      -0.00472537
Cl      13.47494249      10.88433612      13.88761275       0.00254554       0.00447504      -0.00507808
Cl      16.33437581      11.33358904      13.75899234       0.00068486       0.01586281      -0.00004521
Cl      15.02833059       9.67640116      11.76678773       0.01159915       0.00886384      -0.00053155
C       14.84711235      11.11671825      12.79606793       0.00354758       0.00887373      -0.00255302
Cl      -0.52102726       6.40205890       2.40043439       0.00899634      -0.01360465       0.00640574
Cl       0.61573004       7.38129150      -0.06704015      -0.00945893      -0.01245806      -0.00158769
Cl       0.50209433       4.52141237       0.47390052       0.00611705      -0.01197389       0.00386226
Cl       2.33647363       6.21385101       1.95161099       0.00653657      -0.00080596      -0.00969769
C        0.73646072       6.12483500       1.19096887       0.00299641      -0.00946733      -0.00034601
Cl       7.15821063       7.42218716       8.18497876      -0.00238019       0.00864354      -0.00173348
Cl       9.09135440       5.28129521       8.40512726      -0.00303200       0.00873896       0.00612703
Cl       9.29165870       7.19147362       6.23835996       0.00437033       0.00891590       0.00676870
Cl       7.13393684       5.24939848       6.26766078       0.00560647       0.00816119      -0.00076285
C        8.16285491       6.28437273       7.27978635       0.00107845       0.00881772       0.00268843
Cl      16.07512245       6.98720661       5.78347210      -0.00490751      -0.00468194       0.00261268
Cl      15.31748312       9.72678866       6.38323407      -0.00546555      -0.00499037       0.00102207
Cl      14.60142007       8.55543399       3.85048902       0.00250381      -0.00330490      -0.00169647
Cl      17.39323604       9.18300668       4.45120162      -0.00005767      -0.00477899       0.00733624
C       15.85452038       8.61421529       5.12428176      -0.00184695      -0.00435866       0.00214414
Cl       2.97042529       9.82542088      12.63263381      -0.00513057      -0.00079221       0.00201106
Cl       3.32732058       9.58361916       9.76019864      -0.00464252       0.00412655       0.00244275
Cl       4.28557566      11.93948360      11.15381437      -0.00341853       0.00094387       0.00589413
Cl       1.43394890      11.49870315      10.83030355      -0.00313860       0.00370499       0.00548816
C        3.00190522      10.70554053      11.09275902      -0.00410908       0.00197954       0.00398692
Cl       9.99076683      -0.16048135       6.89971293       0.00148055      -0.01799992       0.00446759
Cl       7.65132042       0.73301832       5.41012783       0.00043666       0.00238150       0.01900047
Cl       9.79978289       2.58943347       6.00186087       0.01199421      -0.01250806       0.01966423
Cl       8.10650030       1.57540300       8.15584464       0.01656446      -0.01504782       0.02017963
C        8.86130721       1.20382129       6.55339936       0.00710325      -0.00984233       0.01624334
Cl      14.29935148      14.23452110      15.01110545       0.02050033       0.00222898      -0.01256359
Cl      13.12435849      16.36055134      13.42851470       0.01308158       0.01385069       0.00652862
Cl      14.02990980      16.89628816      16.13166375       0.01188076      -0.00066727       0.01130918
Cl      11.67092491      15.25814847      15.66962559       0.01890749      -0.00837360      -0.00219524
C       13.26434714      15.70641469      15.03449666       0.01713578      -0.00160357      -0.00042628
Cl      14.52124411      12.40068943       3.57779320       0.02138434       0.00042342      -0.00186169
Cl      16.66638368      14.73999865       3.99875790       0.01448476      -0.00367570       0.00022453
Cl      14.13945801      12.89499998       0.78866748       0.00637943      -0.00275692       0.00050956
Cl      16.05963971      10.96823780       1.64596109       0.00697809      -0.00482863      -0.00777911
C       14.87911663      12.07726837       2.01732534       0.01158163      -0.00246337      -0.00352238
Cl       8.77668840       4.38999515       0.24970236       0.00116384       0.00344050       0.00167322
Cl       7.59840341       3.39420263       2.70897020       0.01405213      -0.00143641       0.00533092
Cl       6.08802387       5.17022698       0.98727815       0.00092751      -0.00821650       0.01083516
Cl       8.35642044       6.18488204       2.48769730       0.00126956       0.00144267       0.00273451
C        7.70175767       4.77579748       1.60464971       0.00445862      -0.00108100       0.00531036
Cl      14.79929483       2.22034382       1.22989342      -0.00851259       0.00098791       0.00463039
Cl      13.18015782       2.00216954       3.62610885      -0.01866442      -0.01443471      -0.00410107
Cl      15.78023481       3.25427616       3.75450070      -0.01963553      -0.01517665       0.01546419
Cl      15.56620524       0.38369860       3.34280444      -0.01713493      -0.01165348      -0.00409909
C       14.83126282       1.96859325       2.99238396      -0.01631342      -0.01101020       0.00269256
Cl      14.43254999       8.51189834      16.88393153      -0.02419798      -0.00799698       0.00225097
Cl      11.97623433       6.98757942      16.96360192      -0.00193739      -0.04307293      -0.00982581
Cl      14.51859217       5.60971082      16.86146309       0.01669967      -0.00535840      -0.01896468
Cl      13.56746830       7.05316386      14.53577647      -0.00262753      -0.00246852      -0.00876081
C       13.61706987       7.02443633      16.30697311      -0.00285973      -0.01454641      -0.00929039
Cl       5.98414341       8.24015149       4.40856208      -0.00415406       0.00400174      -0.00772375
Cl       3.82788304       8.03427516       6.33805055       0.00496769       0.01049861       0.00231528
Cl       3.43978040       9.50712283       3.87043375      -0.00717485      -0.00026874      -0.00137511
Cl       5.18654793      10.57209166       5.92962828       0.00228584       0.00916505      -0.01404417
C        4.62231229       9.10513267       5.15273433      -0.00133307       0.00616945      -0.00489002
Cl       8.90837296       2.99876228      13.48944226      -0.01077561      -0.00630951      -0.00395080
Cl      10.61259176       4.37450944      11.59325238      -0.01014265       0.00605901       0.00633675
Cl       9.87685514       5.67100657      14.08004461      -0.00902073      -0.01179352       0.01460522
Cl       7.89041718       5.27713148      12.00598995      -0.00887942       0.00498807       0.01195893
C        9.31200759       4.57242211      12.79864737      -0.01004043      -0.00209302       0.00726575
Cl       6.59420530      13.76616783       0.45022695      -0.00639896      -0.00367540      -0.01312703
Cl       5.30230417      11.95969600       2.32198601      -0.02521187      -0.00131667      -0.02570371
Cl       7.21421942      13.90544800       3.28270681      -0.02764469      -0.00516427      -0.00974703
Cl       8.11984563      11.64864998       1.74369034      -0.02246165      -0.00753820      -0.00382958
C        6.80552709      12.84910931       1.96621459      -0.02112101      -0.00422978      -0.01278137
Cl       8.19683777       9.37041201      11.37902377      -0.00200796       0.01436137      -0.00425592
Cl       9.14003186      10.58704227       8.91854025      -0.00258470       0.01871803      -0.00236428
Cl      10.57923133       8.34912560      10.08508525       0.00071499       0.02134174      -0.00226935
Cl      10.62950511      10.95352707      11.36722297      -0.00733650       0.02171075      -0.00065482
C        9.63535643       9.82232182      10.42763872      -0.00278033       0.01909681      -0.00255690
Cl       1.41591271       2.28096483      14.96621334       0.02424532      -0.01690012      -0.02377704
Cl       3.92966327       2.92533924      13.65942927       0.02319658       0.01607291      -0.01083738
Cl       3.64826205       3.32333519      16.50499000       0.00619626      -0.00348878      -0.01013798
Cl       2.22060920       5.04231108      14.64694736      -0.00271256      -0.00799793      -0.00731097
C        2.80265915       3.39667692      14.94970773       0.01267066      -0.00351845      -0.01340890
Cl       3.04393015      13.46202186       5.07151160       0.00313967       0.00891234       0.00274011
Cl       1.30268699      14.80694103       6.90831863       0.01642658       0.02602705       0.00119051
Cl       3.29006802      12.96460522       7.92636870      -0.01208305      -0.00270621       0.00089681
Cl       1.00538159      11.93220588       6.49515110      -0.02270979       0.03326499      -0.00815254
C        2.16718799      13.25435921       6.62967701      -0.00492874       0.01583785      -0.00072408
Cl      11.30797961      11.18141919      16.50466074       0.00565401      -0.00994024       0.00121133
Cl      10.29729263       9.28100550      14.55635855       0.01015351      -0.00911921      -0.00114834
Cl       8.58260026      11.37569040      15.55894963       0.00870669      -0.00667340      -0.00550854
Cl       9.37312018       9.17814752      17.28946338       0.00204657      -0.00740129      -0.00384536
C        9.87547711      10.25329495      15.97197513       0.00605302      -0.00852818      -0.00282157
Cl       5.87272878       8.77764410       0.66955033      -0.00844520      -0.01111783      -0.01113093
Cl       4.93515113      10.52249178      -1.43405641       0.00894426       0.00066328      -0.00855142
Cl       3.88046835       7.83216452      -1.19886378      -0.00735730       0.00659651      -0.02070865
Cl       6.59906272       8.23396717      -2.09225269      -0.00219414      -0.00594169      -0.00971508
C        5.32947339       8.84438946      -1.01119124      -0.00243649      -0.00237113      -0.01247406
Cl       1.14860307       4.11979247      11.03766004       0.01579235      -0.00762969      -0.01484138
Cl       1.51515996       6.17686845       9.02186453       0.00374645       0.00052754      -0.00839800
Cl       3.38211173       5.96101072      11.22649342       0.00706351       0.00034007      -0.01061848
Cl       0.68353904       6.90709427      11.70301899       0.00185937      -0.01558173      -0.00435227
C        1.68163526       5.78670382      10.75223473       0.00738788      -0.00500969      -0.01012104
Cl      10.18764439      16.62501973       3.31101243      -0.01815212      -0.01146844      -0.00656860
Cl      10.89906668      13.88439974       2.73132982      -0.00987694      -0.01165402       0.00467636
Cl      12.41103518      15.38179871       4.69808510      -0.01513350       0.00093777      -0.00150317
Cl      12.63450272      16.04048656       1.88076662      -0.01584625      -0.01028790      -0.00308627
C       11.52718077      15.49093750       3.15708736      -0.01492362      -0.00800344      -0.00167865
Cl       3.07292889      15.41056225      -0.26683673       0.00550038      -0.00833088      -0.01490664
Cl       1.49167735      13.53858905       1.26925494       0.00178345       0.01339895       0.00372523
Cl       0.50717997      14.48732176      -1.29212970      -0.00101852       0.00975550       0.01039231
Cl       0.61704250      16.27854783       0.99343726       0.02161327       0.02165806      -0.00001413
C        1.46045229      14.91795766       0.12611326       0.00487009       0.00956535      -0.00038958
Cl       1.04672636       0.74846206       5.49511759      -0.01534772      -0.01653218      -0.01349423
Cl       1.36681921       3.52712549       6.24814365      -0.01721977      -0.02669853       0.03320894
Cl       2.01728077       2.71918981       3.55334503      -0.01277214       0.01619913       0.02447248
Cl       3.72113934       1.92130141       5.76893040      -0.01562274      -0.02398323       0.01058123
C        2.09367454       2.25187602       5.23642664      -0.01514259      -0.01339152       0.01458794
Cl      12.93282442       6.40748474       7.90916116      -0.00935483      -0.01595649       0.01028278
Cl      15.26604841       7.54728027       9.19623851      -0.01177150      -0.00651258       0.00460238
Cl      15.26011770       4.75119657       8.41991833      -0.00377873      -0.00756824       0.01046646
Cl      13.61524962       5.65643838      10.62567120      -0.00409263      -0.00911152       0.01026604
C       14.26588213       6.09208983       9.03506275      -0.00749835      -0.00949639       0.00920421
