150
Lattice="12.94077466865106 0.0 0.0 0.0 12.94077466865106 0.0 0.0 0.0 12.94077466865106" Properties=species:S:1:pos:R:3:forces:R:3 energy=-979343.75 stress="0.0005276073352433741 -0.00021286996343405917 -0.0011212763492949307 -0.00021286996343405917 -0.0008277895394712687 -0.0006707151187583804 -0.0011212763492949307 -0.0006707151187583804 0.000743374926969409" pbc="T T T"
Er       7.41789872      11.90985780      11.20996753       0.00298998       0.00474960       0.00310880
Er      10.03675471      11.82467367       7.37314050      -0.00783607       0.00127038       0.01386026
P        7.31836266      11.74333198       8.35714616      -0.01031524      -0.00701313       0.00584105
O        6.54284733      10.46918546       7.88537965      -0.00758219      -0.00833556       0.00655700
O        8.51118742      11.21079097       9.23123559      -0.00903697      -0.00518095       0.00678985
O        6.48071187      12.58941408       9.31298363      -0.01183078      -0.00780469       0.00433315
O        7.95385468      12.46974107       7.17614414      -0.00918290      -0.00597247       0.00674418
H        5.61327332      10.55782124       7.50743940      -0.00697932      -0.00740419       0.00350903
P        5.49408498      11.72626695       1.08161666       0.01496285      -0.03381596      -0.00490308
O        5.18185491      11.87410660      -0.47978421       0.01691197      -0.02646783       0.00554723
O        6.00727164      10.36516663       1.36424547       0.00448646      -0.00908650       0.01142540
O        3.84481826      11.67861736       1.75946840       0.01334876      -0.00511364      -0.00565028
O        6.10131067      12.97194386       1.57176238       0.02479996      -0.01673630      -0.00414042
H        4.83761142      10.99502465      -0.93903127       0.01293358      -0.02874041       0.00202328
P       11.55031697      10.40831619       5.28617495       0.00853279       0.02190323       0.01221853
O       10.76584899       9.79811487       6.69351250       0.01890613       0.00865847       0.01219755
O       11.07996907      11.89701701       5.51412776      -0.01695088       0.01384377       0.01127860
O       10.91499822       9.74744801       4.11207222       0.01848477       0.01078254       0.01162910
O       13.01808181      10.23227729       5.52534761       0.01032877       0.04686698       0.01051262
H       10.11488252       9.05225637       6.47602249       0.02027457       0.00920374       0.00947745
S       10.39314004       1.73878839       2.78932927       0.00142437       0.00186062      -0.00269490
O       10.21698530       2.84718418       1.79789614       0.00469840       0.00435555      -0.00062370
C        8.84723148       1.57123016       3.69878253      -0.00111723       0.00025471      -0.00721204
C       11.35549739       2.41989723       4.15862720      -0.00228110      -0.00348660       0.00228447
H        8.10296752       1.17183118       3.01073848       0.00024914       0.00154983      -0.00911748
H        8.53837274       2.56100956       4.03986469      -0.00152678      -0.00062349      -0.00540793
H        9.00156901       0.86602848       4.51729505      -0.00287827      -0.00160991      -0.00869098
H       11.49995178       1.63257367       4.90061748      -0.00877767      -0.00581498       0.00104564
H       10.82040962       3.28328501       4.55821574      -0.00095040      -0.00241865       0.00182344
H       12.31430054       2.72982475       3.74797739       0.00092909      -0.00656095       0.00735080
S        9.95968230      11.93872801       0.66603291      -0.00597057      -0.00359356       0.01687965
O        9.24144713      11.33419642      -0.56524051      -0.01634091       0.00222969       0.02114278
C       11.41214782      10.92554400       0.92412290      -0.00579524      -0.00724649      -0.00786000
C        9.03498431      11.35806131       2.07266415       0.00709501      -0.00896111       0.02222210
H       12.13101386      11.14090837       0.13633599      -0.01522321      -0.00094064      -0.01463699
H       11.12069363       9.87692801       0.94497010      -0.00880460      -0.00662407      -0.01613658
H       11.80061503      11.19273147       1.90749885       0.00612444      -0.01769126      -0.01027241
H        9.64317913      11.48707344       2.96829363       0.01748674      -0.01207233       0.01561157
H        8.82730228      10.29877954       1.92978479       0.00380005      -0.00807706       0.02063487
H        8.11152675      11.93138705       2.11494487       0.00870521      -0.00801791       0.03227178
S        2.61644655       2.68280880      10.14873295       0.00171363      -0.00031781      -0.01288021
O        3.08400646       3.27145175      11.44363187      -0.00388259      -0.00206673      -0.00978875
C        3.63331677       1.23217051       9.83671230       0.00045019      -0.00178534      -0.00879023
C        3.30548679       3.72132666       8.84820532       0.01009744      -0.00094557      -0.00852871
H        3.46771776       0.55211568      10.67011598      -0.00741632      -0.00419564      -0.01247093
H        4.68362952       1.51208594       9.78568502       0.00143972      -0.00394686       0.00025534
H        3.32323086       0.75873723       8.90582186       0.00733093       0.00127223      -0.01269673
H        3.19547896       3.25874170       7.86767948       0.01618444      -0.00071336      -0.00926752
H        4.36254376       3.88256430       9.05939924       0.00869292      -0.00085417      -0.00139263
H        2.76539376       4.66670711       8.88286132       0.01042469      -0.00064394      -0.01327964
S        3.72164179       3.84145787       4.40681477      -0.01400840       0.01525760      -0.00731230
O        4.50919970       3.75579845       5.67196775      -0.02672434       0.03921539       0.00214481
C        2.41800564       2.59276771       4.54205256      -0.00643882       0.00916982      -0.00250449
C        4.63066273       3.01318364       3.09104111       0.00699782       0.00278717       0.01625049
H        1.82478063       2.84723413       5.41868419      -0.02563492       0.02376056      -0.02033751
H        2.88292383       1.61575134       4.66446230      -0.00352395       0.01488450       0.02777319
H        1.79476166       2.62465636       3.64804002       0.01006118      -0.01647302      -0.01411975
H        3.98458835       2.96152406       2.21312287       0.02032778      -0.00669745       0.00746459
H        4.93528274       2.01962585       3.41536297       0.00299004       0.00646250       0.03056295
H        5.49300955       3.63052386       2.85114777       0.00978798       0.00187679       0.02463535
S        7.63060513       5.29870169       2.51262113       0.00444335       0.00304268      -0.00293612
O        8.01057965       4.69796643       3.83096280       0.00139552       0.00383991      -0.00151944
C        9.09768846       6.10067652       1.83275589       0.00709969       0.00005707      -0.00018477
C        6.70962137       6.80006831       2.89983945       0.00491756       0.00392050      -0.00671715
H        9.83155441       5.30175524       1.72489348       0.00518301      -0.00184183       0.00093627
H        9.45544239       6.87675556       2.50872382       0.00790210      -0.00131163       0.00099362
H        8.83433052       6.50644715       0.85413135       0.01049308       0.00158894      -0.00044543
H        6.50196688       7.34922363       1.98271717       0.00610907       0.00274757      -0.00769146
H        7.29111890       7.39714943       3.60379411       0.00427860       0.00498217      -0.00712462
H        5.76926545       6.47567533       3.34296681       0.00428501       0.00507851      -0.00734765
S       10.76232772       1.93334686       9.10136722      -0.01013091       0.00248009       0.01248384
O       10.98444868       0.56297595       8.47443093      -0.01307029      -0.00177753       0.02059165
C        9.16269035       2.46377525       8.50962119      -0.00854647       0.00205519       0.00801821
C       11.79244457       3.04599506       8.15125459      -0.00690854      -0.00560686       0.00695130
H        8.41913121       1.80796654       8.96010632      -0.00977962       0.00462228       0.00990814
H        9.12401201       2.37923004       7.42345079      -0.00716579      -0.00211912       0.00825635
H        9.00448772       3.49389574       8.82893757      -0.00785861       0.00332372       0.00424324
H       11.58217886       4.06401949       8.48035032      -0.00533950      -0.00344573       0.00116719
H       11.57139667       2.92144272       7.09147158      -0.00633447      -0.01099925       0.00744790
H       12.82722911       2.78886503       8.36943776      -0.00766939      -0.00651647       0.00931489
S        7.63671805       2.10908383      12.92518279      -0.00057751       0.00453097      -0.00545198
O        7.76130232       0.93165649      11.92618432      -0.00019113       0.01286197      -0.01441783
C        6.06092037       2.82811208      12.51791141      -0.00392884       0.00270289       0.00519562
C        8.71975841       3.31536964      12.19506685      -0.00742590       0.01412371       0.00199679
H        5.29965000       2.11073037      12.81464661      -0.00149935      -0.00036098       0.00409978
H        6.01279990       3.01598896      11.44625892      -0.00907572       0.00782969       0.00628459
H        5.92418981       3.75689644      13.07397825      -0.00350550      -0.00012997       0.01002011
H        8.58437161       4.26068301      12.71337074      -0.01288063       0.00999609       0.00772341
H        8.46131959       3.43246598      11.14438801      -0.00834097       0.01972122       0.00263608
H        9.73217760       2.95152491      12.35317492      -0.00513418       0.01962321      -0.00067470
S        9.65587572       6.74333130       5.52204099       0.00125599       0.01069236       0.00138152
O        9.08685706       7.91218579       6.30361891       0.01235557       0.01062387       0.00918227
C        9.07591427       5.30800601       6.42825595       0.00314507       0.00833082      -0.00059640
C       11.39534267       6.62640895       5.99238704       0.00389057       0.00436712      -0.01110771
H        8.00044749       5.25093131       6.27963718       0.00247550       0.00974204       0.00385223
H        9.33947618       5.43290152       7.47987552       0.00769541       0.00453925      -0.00130321
H        9.52360413       4.41473005       5.99703904       0.00033709       0.00919648      -0.00542309
H       11.80184431       5.70094808       5.58376152      -0.00032223       0.00466605      -0.01582869
H       11.47758896       6.63919138       7.08024058       0.01064527       0.00196296      -0.01160167
H       11.90535443       7.48486432       5.55644132       0.00157847       0.00494719      -0.01267998
S        3.49483289       6.20546572       0.25831648      -0.00695074      -0.00747627       0.00291193
O        4.74889890       5.57299497       0.77205231      -0.00611627      -0.00577533       0.00398749
C        3.18137151       7.61474656       1.34984656      -0.01006977      -0.00790524       0.00275362
C        2.11345714       5.20482338       0.83068798      -0.00478178      -0.01144376       0.00079089
H        4.02307964       8.29692786       1.23456774      -0.01157816      -0.00614081       0.00151956
H        3.11904898       7.24497126       2.37485649      -0.00835138      -0.00726952       0.00315015
H        2.25462647       8.10834097       1.05653803      -0.01141222      -0.00993184       0.00332753
H        1.18394596       5.72789244       0.60650372      -0.00631900      -0.01390054       0.00109480
H        2.22031780       5.04804970       1.90556803      -0.00449518      -0.01260221       0.00061093
H        2.16425412       4.27272289       0.27145131      -0.00196532      -0.01044475      -0.00063485
S        5.41782148       8.58799082      11.67757611       0.00554398      -0.01853442       0.00648028
O        4.66153267       9.82046149      11.16610438      -0.00566509      -0.02228659       0.01646888
C        7.12952075       9.11680736      11.69929243       0.00403035      -0.01307871       0.00070615
C        5.55546245       7.45538266      10.30719123      -0.00077492      -0.00927511      -0.00171250
H        7.22043901       9.80732565      12.54325958       0.00905549      -0.02040169       0.00521494
H        7.36795066       9.51596654      10.70168121      -0.00184862      -0.00317811       0.00357869
H        7.77749777       8.25690335      11.87954255       0.00442846      -0.01579495      -0.01262417
H        6.25311374       6.68083396      10.62899708      -0.00261255      -0.01375706      -0.00970419
H        5.93329990       7.98660599       9.43329963      -0.00222418      -0.00439379       0.00054009
H        4.56835709       7.03784212      10.12348242      -0.00286224      -0.00479900      -0.00139484
S        3.62709080      11.58158807       3.29111334      -0.00312476      -0.00023920      -0.01601401
O        4.17144935      12.66125834       4.05136695      -0.00877985       0.00925389      -0.01105422
C        1.88622274      11.46938489       3.44116234      -0.00177515       0.00296990      -0.03049443
C        4.26291985      10.04016379       3.83293752      -0.00354451       0.00756186       0.00324331
H        1.49311900      12.47330630       3.29334590       0.00189645       0.00245172      -0.04461151
H        1.62470226      11.10335871       4.44608690      -0.01562223       0.01172286      -0.03086969
H        1.50326843      10.77089209       2.70115209       0.00788259      -0.00131646      -0.03218833
H        3.64263552       9.24979575       3.41680554       0.00609741       0.00247794      -0.00234066
H        4.20889736      10.08195465       4.92580371      -0.01644548       0.01081208       0.00200054
H        5.28335708       9.96325590       3.46205088       0.00135222       0.00943204       0.01622251
S        3.70567451       8.99750977       7.76299125      -0.00782807      -0.00128376      -0.00303221
O        4.12720477      10.24294309       6.99596963      -0.00321285      -0.00007105       0.00141031
C        3.87553620       7.62568107       6.61072568      -0.01346153       0.00281793      -0.00865391
C        1.92281949       9.05817570       7.87358398      -0.00743371       0.00647232      -0.00176470
H        4.92475091       7.60373651       6.31695967      -0.01359318       0.00007089      -0.00899681
H        3.22755312       7.76794411       5.74624991      -0.01273245       0.00899943      -0.00812370
H        3.63359999       6.69310398       7.12161984      -0.01633060       0.00118300      -0.01309982
H        1.58932549       8.09957808       8.27623769      -0.01120064       0.00724740      -0.00300762
H        1.45957223       9.27700096       6.90752243      -0.00626987       0.01172997      -0.00124815
H        1.69121717       9.84946875       8.58431416      -0.00355735       0.00629297      -0.00023288
S        9.79903623       6.43249152      10.43977892       0.01438832       0.00194743      -0.00981671
O        8.52203381       6.32702266      11.21994133       0.01306748      -0.00311863      -0.01250911
C       11.05053540       7.01670084      11.59660976       0.01241875      -0.00685546      -0.00375804
C        9.69798161       7.92511971       9.44844778       0.01650055       0.00907266       0.00153798
H       11.19252314       6.23600454      12.34132439       0.00820074      -0.01079279      -0.00716040
H       10.68697616       7.93298697      12.06365607       0.01299995      -0.00842170      -0.00017989
H       11.97731676       7.19402593      11.05241741       0.01421188      -0.00629980      -0.00051951
H       10.61967819       8.03475437       8.87584222       0.01811962       0.01452028       0.00510912
H        9.53800683       8.78974627      10.09050398       0.01359869       0.00371894       0.00804260
H        8.87619459       7.80344720       8.74442617       0.01838458       0.01378040      -0.00128125
