149
Lattice="12.64725916672256 0.0 0.0 0.0 12.64725916672256 0.0 0.0 0.0 12.64725916672256" Properties=species:S:1:pos:R:3:forces:R:3 energy=-2372385.25 stress="-0.00028194673359394073 -0.00041553568735253066 -0.00045905468869023025 -0.00041553568735253066 0.0011748846154659986 0.0006529841048177332 -0.00045905468869023025 0.0006529841048177332 0.001890092622488737" pbc="T T T"
Es       3.32096930      13.47192618       0.45284858       0.00502524       0.01399423       0.00985837
Es      -0.87516261      13.14211696       5.35858123      -0.00805528       0.01516318       0.00729585
O        6.64214013       4.14734530       5.16005305       0.00067759       0.00539087      -0.00477481
O        7.06703893       3.95752932       8.02249229      -0.00023210       0.00887430      -0.00676274
O        7.64282851       6.43945072       6.72925513      -0.01391604       0.01098633      -0.00553560
O        9.31649847       4.09740340       6.25920992       0.00172925       0.01905197      -0.00307149
Mo       7.67349015       4.66931225       6.54387701      -0.00204206       0.01157095      -0.00616717
O        5.66261117      -1.49929315      10.53295997      -0.04368508      -0.02220273       0.00880787
O        5.32661277       1.04095478       9.32863236       0.00090837      -0.01935363      -0.00326276
O        5.36541817       0.83440926      12.30159734      -0.00049841      -0.01203555      -0.00101912
O        3.15231377       0.01979496      11.08437798      -0.01662707       0.02540907       0.00754321
Mo       4.94354469       0.07105577      10.68530125      -0.01868773      -0.00892942       0.00694525
O       13.61154856      -0.02853089       9.03100186       0.00880158      -0.03269863      -0.01907742
O       12.40542053       2.50342297       9.25251672       0.01613186      -0.03132463       0.02916658
O       11.15741482       0.36963710       7.56366017       0.00002217      -0.00124204       0.00461328
O       13.33738669       1.52745164       6.52611100      -0.00433302       0.00545406       0.00825030
Mo      12.66631040       1.14622866       8.20414983       0.00666150      -0.01638791       0.00755334
O       11.16607660       9.52524200       7.78894267       0.00533833       0.00002742      -0.00693530
C       10.02540230       8.62863531       7.64161305       0.00535280       0.00026541      -0.00490054
C        8.76467066       9.25947518       8.19216024       0.00442803       0.00053877      -0.00652844
C        9.90336037       8.25841906       6.18484574       0.00699770      -0.00052728      -0.00550288
H       10.24255695       7.71955740       8.21171263       0.00472924       0.00067979      -0.00396970
H        7.95251415       8.54144204       8.07190384       0.00557081      -0.00104943      -0.00487338
H        8.85444872       9.49529047       9.25499348       0.00360952       0.00390517      -0.00701681
H        8.51797274      10.17938507       7.65873059       0.00268417      -0.00204298      -0.00982893
H        9.06821063       7.55004052       6.09478575       0.00218579       0.00609082      -0.00854595
H       10.80757675       7.76557064       5.83468572       0.00607394      -0.00563912      -0.00205265
H        9.71871585       9.14534498       5.57475249       0.01368132       0.00097476      -0.00568820
H       11.03544696      10.08661545       8.55976989       0.01333116      -0.00525729      -0.00158748
O        2.07990774       8.70160497       0.99203946      -0.00546613       0.00507027      -0.01120921
C        2.85960501       9.58228874       1.78628213      -0.00674975      -0.00054386      -0.00388431
C        3.77002732       8.83484979       2.74260969      -0.01003081      -0.00813621      -0.00603241
C        3.62116003      10.45527035       0.80664148      -0.00295487       0.00537543       0.00430083
H        2.19354564      10.23525031       2.37903928      -0.00774217      -0.00388095      -0.00090253
H        4.35021059       9.51624907       3.36730897      -0.01198493      -0.01292457       0.00093479
H        3.18292899       8.19893466       3.40693784      -0.01299649      -0.01283386      -0.01320713
H        4.46771112       8.19998368       2.19411317      -0.00804844      -0.00451774      -0.00817415
H        4.23533668      11.19460956       1.33563392      -0.00346445       0.00097267       0.01127671
H        2.94373154      10.97524286       0.11925553      -0.00118446       0.01099077       0.00645700
H        4.28004848       9.85138878       0.17809579      -0.00245088       0.00874612       0.00100503
H        1.71177779       7.97860569       1.52097143      -0.01120638       0.00418824      -0.01582201
O       -0.48095398      10.75344320       5.61154152      -0.00185165       0.01065443      -0.00385523
C        0.81455098      10.20485403       5.27527683       0.00123143       0.01539008      -0.00067982
C        1.90562698      11.06512571       5.87987385      -0.00284952       0.01679039       0.00459039
C        0.90486049       8.74410342       5.67707974       0.00386081       0.01449442      -0.00383809
H        0.86268033      10.27643535       4.18203832       0.00495322       0.01813866      -0.00012326
H        2.89713961      10.71384847       5.58261760      -0.00106272       0.01949652       0.00848472
H        1.78685386      12.10871322       5.56762291      -0.00360740       0.01715904       0.00666072
H        1.84651913      11.05378837       6.97034854      -0.00719548       0.01642725       0.00417024
H        1.87674867       8.33765488       5.39681221       0.00574066       0.01826879      -0.00294948
H        0.13011970       8.15468021       5.18989759       0.00626022       0.01468429      -0.00786597
H        0.78719892       8.63172863       6.75521437       0.00090094       0.01098349      -0.00444025
H       -0.83355731      10.35252500       6.45069901      -0.00196415       0.00919148      -0.00463414
O       12.89229451       6.44243856       1.64277011       0.01640075       0.01815057       0.01072621
C       11.70165164       7.16853726       2.00166493       0.00631326       0.00713734       0.00192024
C       11.42349958       8.26312773       0.98678007      -0.00224619      -0.00140530      -0.00549775
C       10.51122368       6.24611679       2.19323729       0.01585567      -0.00563848       0.00153087
H       11.95807556       7.62304169       2.96256105      -0.00308219       0.01558447       0.00059158
H       10.61589741       8.90618234       1.33686507      -0.01111554      -0.00925078      -0.01143181
H       12.31517887       8.86472130       0.81410743      -0.00845572       0.00801130      -0.00510378
H       11.10818421       7.82478678       0.03630253       0.00620843      -0.01042509      -0.00461026
H        9.65395054       6.82310352       2.54629141       0.00745152      -0.01332082      -0.00566917
H       10.71956603       5.47643259       2.93525192       0.02148119       0.00090845       0.00698924
H       10.23095875       5.77054964       1.24910033       0.02514081      -0.01363762       0.00251766
H       12.76640920       6.08265533       0.75712561       0.02223168       0.00832152       0.01385713
O       12.04587959       0.95664520       2.73654077       0.00378639       0.00780225       0.00358158
C       11.38724043       2.03319920       1.99011452       0.00655852      -0.00091372      -0.00843689
C       12.35814905       2.65386837       1.00310089       0.00621879      -0.00479582      -0.01044151
C       10.13599045       1.53039937       1.31186211       0.00523812       0.00056350      -0.00258905
H       11.12729022       2.75011416       2.77238197       0.00530711       0.00996530      -0.00890228
H       11.85868607       3.46185335       0.46704866       0.00884412      -0.00448196      -0.01184385
H       13.23102700       3.06534708       1.50987172       0.00902276      -0.00711264      -0.01315695
H       12.67977326       1.92942464       0.24345582       0.00186431      -0.00908634      -0.00944695
H        9.65850338       2.34976435       0.77204392       0.00435841      -0.00324562      -0.00582270
H        9.42554529       1.13136588       2.03292187       0.00482871       0.00267447       0.00014696
H       10.38207794       0.75872534       0.57784847       0.00400500      -0.00417881       0.00114152
H       12.21512009       0.23357788       2.12426869       0.00514315       0.00256568       0.00731769
O        7.34445219       2.06203794       3.90141747      -0.00709048       0.00201696      -0.00441778
C        7.65882495       1.01270958       4.77760000      -0.00693908       0.00335783      -0.00294936
C        9.17036799       0.96800545       5.03433591      -0.00761855       0.00729135       0.00169010
C        6.90712420       1.04502672       6.10547425      -0.01105040       0.00306753      -0.00509548
H        7.39359044       0.08273965       4.25189262      -0.00281617       0.00299382      -0.00283474
H        9.41220932       0.16611313       5.75094381      -0.00745643       0.00801465       0.00258857
H        9.70907793       0.77473197       4.09344264      -0.00392392       0.00878965       0.00314870
H        9.51657945       1.92540385       5.46261642      -0.01028932       0.00810903       0.00209560
H        7.02267960       0.09379185       6.62924072      -0.00820190       0.00463665      -0.00221717
H        5.84406399       1.21258476       5.94125586      -0.01145640      -0.00245609      -0.00876723
H        7.26027227       1.83666509       6.76780386      -0.01615436       0.00660613      -0.00671096
H        7.12394379       2.91656606       4.43302913      -0.00298325       0.00404979      -0.00486782
O        6.83204123      10.03813222       2.11734258      -0.00145346      -0.01087586      -0.00829200
C        7.95027220      10.05800641       1.22856310      -0.00154585      -0.00693408      -0.00817358
C        7.89188878       8.86659971       0.28609327       0.00055592      -0.00451797      -0.01177227
C        8.03270892      11.36826100       0.46656235      -0.00173796      -0.00482726      -0.00504258
H        8.81141437       9.96531868       1.89763108      -0.00164950      -0.00769641      -0.00803402
H        8.76631935       8.83447274      -0.36436286       0.00137390      -0.00237601      -0.01093033
H        7.83527278       7.93232059       0.84477444       0.00023039      -0.00650755      -0.01487643
H        7.01231531       8.95601424      -0.35660236       0.00117928      -0.00268518      -0.01242331
H        8.99178098      11.44838835      -0.05035880      -0.00157723      -0.00426749      -0.00538681
H        7.92041716      12.21686494       1.13972650      -0.00127951      -0.00629112      -0.00261258
H        7.24804909      11.41977394      -0.29031511      -0.00409345      -0.00250681      -0.00293502
H        6.04225330      10.07268266       1.57001466      -0.00071353       0.00338040      -0.00869104
O        2.16753468       4.97276492      10.28923929       0.02124155      -0.00422275       0.01344252
C        2.62315438       4.20581113       9.15654247       0.00888088      -0.00972950       0.01233184
C        1.97501227       4.72199855       7.87980718      -0.00612712      -0.01590723       0.01733452
C        4.13628553       4.20237543       9.09001183       0.00885642      -0.00995027      -0.00528705
H        2.24900904       3.19688074       9.35082778       0.01048037      -0.00881761       0.02112854
H        2.28360165       4.11890107       7.02404366      -0.01686866      -0.01978719       0.01600935
H        0.88966570       4.67702617       7.95975175      -0.00537699      -0.01532080       0.03123658
H        2.27422276       5.75753428       7.69364599      -0.00844888      -0.01645733       0.00933236
H        4.52124742       3.54845685       8.30955235      -0.00067480      -0.01150437      -0.00923011
H        4.56664033       3.85932433      10.02968063       0.01930944      -0.00850265      -0.00894684
H        4.52729335       5.20265204       8.88385405       0.00560658      -0.00974324      -0.01124372
H        2.68861649       5.78023575      10.29605591       0.01220643       0.00202462      -0.00477712
O        4.05385247       3.06651459       1.25055927       0.01429349       0.00924748       0.02040729
C        3.45475373       2.93279957       2.56799037       0.00667460       0.00795827       0.01724249
C        4.15337293       1.85086396       3.36349095      -0.00820681      -0.00348490       0.01681757
C        3.42397450       4.27670531       3.26725327       0.01412083       0.00444645       0.02558151
H        2.42774110       2.60773675       2.33908504       0.00476125       0.01795579       0.01103338
H        3.65260040       1.70232485       4.31986808      -0.01200552       0.00500688       0.01661153
H        4.14813475       0.88685109       2.83277263      -0.02372094      -0.00390860       0.01711992
H        5.19840228       2.11040007       3.56000717      -0.00404030      -0.01817524       0.01627826
H        2.83758549       4.20520580       4.18345655       0.00930803       0.00221318       0.02274211
H        2.96966100       5.02502244       2.61755028       0.02103187       0.01113635       0.02809232
H        4.43672558       4.57738184       3.54490242       0.01508743      -0.00322071       0.03200427
H        5.01479609       2.98137786       1.31841818       0.01391077       0.01154138       0.02567384
O        5.18943496       9.54886398       6.47489504       0.01045692      -0.00784695      -0.00176388
C        4.46445075       8.44828708       7.03750342      -0.00096995       0.00066441       0.00040227
C        4.69708396       7.19584986       6.21304450      -0.02002252      -0.00143260      -0.00246799
C        4.81996080       8.25851969       8.50486271       0.00490442      -0.00660101      -0.00162578
H        3.42097895       8.76682234       6.97436329       0.00243020       0.01336311       0.00620614
H        4.14723679       6.34034677       6.60616357      -0.02737992       0.00444397       0.00072068
H        4.40762680       7.35165591       5.17397729      -0.02490263       0.00299358      -0.00066348
H        5.76241896       6.93474115       6.24414936      -0.02245364      -0.01134819      -0.00910962
H        4.10809383       7.57832245       8.97824108       0.00021718      -0.00036424       0.00051810
H        4.80496526       9.21205515       9.03395666       0.01659450      -0.00753179       0.00076890
H        5.81116875       7.80990853       8.59641229       0.00098021      -0.01669347      -0.00818125
H        6.11729991       9.29134540       6.46913701       0.00672677      -0.02175393      -0.01004789
O        9.30800765       4.07730813      11.88013602      -0.00485668      -0.00063145      -0.00487250
C        9.81025970       3.63647865      10.58978140      -0.00323067      -0.00003186      -0.00408483
C        9.00326155       2.46071408      10.07258227      -0.00159651      -0.00067645      -0.00593582
C        9.83611459       4.79956656       9.61692775      -0.00191510       0.00042582      -0.00381398
H       10.83287617       3.31531808      10.79149655      -0.00352812      -0.00067770      -0.00241542
H        9.48221995       2.04835670       9.18347301       0.00180614      -0.00137405      -0.00408132
H        8.93882868       1.67529648      10.82908554      -0.00338404      -0.00025331      -0.00576909
H        7.99880074       2.77254724       9.77378881      -0.00089672      -0.00129834      -0.00922698
H       10.23808605       4.48336884       8.65302806      -0.00189710       0.00127740      -0.00424504
H       10.44390093       5.61414154      10.01524578      -0.00215437       0.00040942      -0.00309242
H        8.82021752       5.15663339       9.43246183      -0.00174689       0.00087822      -0.00466861
H        8.37636329       4.28179945      11.75241127      -0.00414895       0.00282614      -0.00654000
