149
Lattice="12.644906991728611 0.0 0.0 0.0 12.644906991728611 0.0 0.0 0.0 12.644906991728611" Properties=species:S:1:pos:R:3:forces:R:3 energy=-3396778.75 stress="-0.0001450865966035053 -0.0010426058433949947 -0.0002219322050223127 -0.0010426058433949947 0.001342247473075986 -1.0582545371562446e-05 -0.0002219322050223127 -1.0582545371562446e-05 0.0007212918717414141" pbc="T T T"
Es       1.99442958      10.56005926      -0.92810025       0.00231963      -0.00916965      -0.00008762
Es      -1.81560729      11.94173735       5.35822998      -0.00892821      -0.00029176       0.01148547
O        7.71659266       8.81027698       4.69150017       0.00083387       0.00089979      -0.00422329
O        6.61777661      11.43587710       5.19314739      -0.01314247      -0.00829244      -0.00603969
O        9.14858618      11.25326878       3.71528016      -0.00938895      -0.00038362       0.00553012
O        9.18918883      10.78891639       6.39121585      -0.01457448      -0.00171855      -0.00059164
W        8.07652794      10.52144028       4.98473863       0.00239867      -0.01115137      -0.00317248
O        5.42948960      12.49227807       9.55335728      -0.01498556       0.03923762       0.02250868
O        4.27224659      11.35124821      12.03764382       0.00754312      -0.00438508      -0.00241840
O        5.70583850       9.67938343      10.14325148       0.01130044       0.03125191      -0.03124911
O        2.99346587      10.71933977       9.70080285       0.00092089       0.03261171      -0.00222600
W        4.68403541      11.07782116      10.28909273      -0.00958800       0.04276088      -0.00528848
O       13.36020285       8.59822701      10.95224448       0.02062553      -0.00438643      -0.01670556
O       12.00831263       9.64974357       8.52837506      -0.01217297       0.00605604       0.01042765
O       12.52036072      11.21460967      11.01727744      -0.00762793      -0.01651788       0.02013335
O       10.51538168       9.04647566      10.94702447       0.01072693      -0.03402275       0.01697522
W       12.03803023       9.61639740      10.31829808       0.00917691      -0.01026273       0.00456511
O        8.36282135       5.77483518       7.83655998      -0.00110549      -0.00179160      -0.00351921
C        9.27416142       6.84713288       8.10011291      -0.00015271      -0.00365973      -0.00125539
C       10.20134900       7.06334122       6.90988386       0.00211167      -0.00203966       0.00060964
C        8.55202079       8.12478460       8.48460336       0.00017595      -0.00323504       0.00002995
H        9.87253218       6.50982680       8.95477745      -0.00144225      -0.00509796      -0.00076765
H       10.94488592       7.82376363       7.15118318       0.00309698      -0.00391251       0.00394103
H       10.70915555       6.13248822       6.64595398       0.00076834      -0.00246060      -0.00120444
H        9.62579133       7.40668615       6.04667906       0.00412387       0.00128448       0.00060129
H        9.26862822       8.90224926       8.74300240      -0.00001688      -0.00382040       0.00281607
H        7.89077197       7.97383544       9.33612307      -0.00171460      -0.00565610      -0.00181544
H        7.95631993       8.48629927       7.64676018       0.00190257      -0.00111882      -0.00027959
H        7.68009070       6.11912933       7.22738730      -0.00003080      -0.00070862      -0.00452389
O        1.87633893       9.06163162       1.00784037       0.00370532      -0.00165838      -0.00200057
C        2.65066855       8.99491288       2.22144822      -0.00482130      -0.00484700       0.00371864
C        3.40427984       7.67730759       2.31969750      -0.00477973      -0.00504273       0.00549233
C        3.54824103      10.20679911       2.22540498      -0.00415993      -0.00534350       0.01501330
H        1.94152401       9.05025502       3.05527558      -0.01086590      -0.00887783      -0.00100827
H        3.87442870       7.59756794       3.30139926      -0.01282302      -0.00726637       0.00964543
H        2.72346681       6.83537155       2.19218173      -0.00233163      -0.00602809      -0.00157011
H        4.19825953       7.60474623       1.57508778       0.00021000      -0.00163367       0.01024008
H        4.21874534      10.22119686       3.08394821      -0.01075365      -0.01187699       0.02088138
H        2.95461236      11.12453911       2.22828747      -0.00421393      -0.00569384       0.01693373
H        4.15126438      10.22187291       1.31816145       0.00182776      -0.00057246       0.01899883
H        1.18608930       8.35866142       1.01363301      -0.00021389       0.00147036      -0.00655229
O       -0.31313977      10.46286056       6.25170877      -0.00706574       0.00059105       0.00515446
C        0.92388837      10.06911904       5.64772081      -0.00408751       0.00241953       0.00785570
C        2.06728063      10.92752517       6.15545482      -0.00657487      -0.00173956       0.00981006
C        1.16131816       8.58476031       5.87158869       0.00005306       0.00493467       0.00758570
H        0.78776970      10.26037619       4.57299879      -0.00427077       0.00384083       0.00630063
H        2.99938634      10.67644226       5.64575492      -0.00616914       0.01068437       0.01102200
H        1.84677883      11.97769887       5.96206262      -0.01021990       0.01668996       0.00597736
H        2.21794896      10.79241612       7.22822334      -0.00938231       0.01033797       0.00897044
H        2.08807142       8.27119412       5.38765809       0.00037128       0.00696721       0.00785430
H        0.33525666       7.99370514       5.47530210       0.00099817       0.00518218       0.00690059
H        1.24534890       8.38333546       6.93975747      -0.00044357       0.00448466       0.00668350
H       -0.42673458      10.10793141       7.25854251      -0.00659896       0.00179178       0.00597070
O       12.63450789       7.10331149       1.27279175      -0.00871307       0.01465039      -0.02023721
C       11.49087957       7.32495731       2.13136783      -0.00411531       0.00989324      -0.01167881
C       11.07116618       8.78167470       2.10096534      -0.01003955       0.00799561      -0.00385804
C       10.36767677       6.38338917       1.74437233      -0.00298476       0.00675920      -0.00633991
H       11.84892115       7.07004788       3.13332843       0.00231971       0.00874235      -0.01410508
H       10.21735487       8.95481807       2.75886214      -0.00464492       0.00003850       0.00447676
H       11.88631400       9.42761766       2.43455547      -0.01158811       0.01093044      -0.00777101
H       10.78958687       9.07349009       1.08629296      -0.02097227       0.01155324       0.00061899
H        9.49996475       6.54754027       2.38390649       0.00420623      -0.00368356       0.00568520
H       10.68196726       5.34264459       1.82850741       0.00449363       0.00806431      -0.02027389
H       10.06311333       6.57121177       0.71207548      -0.01801234       0.01282562      -0.00060555
H       12.31022284       6.96647230       0.37353363      -0.01548016       0.00304941      -0.01590285
O       11.04901834       0.17263153       2.94384411       0.00071533      -0.00432080       0.01397208
C       11.02600733       1.41148867       2.20990077       0.00467874      -0.00856043       0.00753832
C       12.19210558       1.40001512       1.23706620       0.00645381      -0.01558948       0.00992215
C        9.70167221       1.61826150       1.49833729       0.00617725      -0.01151519       0.00319710
H       11.17551853       2.21192811       2.94302142       0.00415999      -0.00459528       0.00352037
H       12.25075267       2.35306912       0.70790984       0.00808150      -0.01925910       0.00345539
H       13.12836594       1.23649329       1.77206535       0.00546007      -0.01275580       0.01200478
H       12.07432101       0.59910311       0.50228020       0.00632351      -0.02004068       0.01436532
H        9.75326495       2.52452582       0.89267632       0.00876770      -0.01693489      -0.00516104
H        8.85736639       1.70742056       2.18306681       0.00484294      -0.00373251       0.00050682
H        9.49825310       0.78306726       0.82727936       0.00591365      -0.01771343       0.01056624
H       10.19226599      -0.30959435       2.88845118       0.00110663      -0.00540535       0.01129998
O       10.42189306       1.80703355       5.53202768      -0.00770712      -0.00140029       0.01954222
C        8.96029572       1.77435102       5.63627228      -0.00857963      -0.00238608       0.00649749
C        8.56076348       1.26185979       7.00091202      -0.02002436       0.00020322       0.00346732
C        8.39254379       3.14109848       5.32018217      -0.00720924      -0.00411582      -0.00296913
H        8.67680223       1.04727266       4.86469032      -0.00075553      -0.00509825       0.00564545
H        7.48574675       1.09480163       7.05501691      -0.02040026      -0.00041141      -0.00679298
H        9.04675540       0.30561805       7.21917854      -0.02194976       0.00096264       0.01032322
H        8.83298284       1.99039365       7.76613581      -0.02900600       0.00259228       0.00420601
H        7.30435524       3.10326185       5.35650534      -0.00762969      -0.00566476      -0.01360765
H        8.70188545       3.48127899       4.33169701       0.00155409      -0.00663147      -0.00095028
H        8.71237060       3.87593790       6.06438935      -0.01600470      -0.00098564      -0.00226119
H       10.75759972       2.37496795       6.23427402      -0.01328940      -0.00261992       0.02335545
O        6.69559241      11.46145295       1.44030123       0.00577277       0.01579159      -0.01683134
C        7.67191349      10.55790962       0.91442494       0.00337872       0.01078987      -0.01201659
C        7.16324347       9.12055184       0.94850853      -0.00095412       0.01246965      -0.01107487
C        8.11128417      10.96924681      -0.47882221       0.00874463       0.00539154      -0.01229495
H        8.50994811      10.64267642       1.60951630       0.00138009       0.00973553      -0.00993294
H        7.94609358       8.43805252       0.60942809      -0.00252657       0.00952188      -0.00802123
H        6.86956536       8.84337974       1.96284923      -0.00515114       0.01345401      -0.01216485
H        6.31393184       9.00551538       0.27053628       0.00096406       0.01372663      -0.01334451
H        8.92052708      10.33326672      -0.84224676       0.01835321       0.01177865      -0.00081769
H        8.43952472      12.00921564      -0.48589830      -0.00300937       0.00873551      -0.01778574
H        7.28864417      10.86397920      -1.18908914       0.01600789      -0.00859883      -0.01788782
H        5.99796791      11.55009178       0.77778004       0.00348067       0.01013587      -0.01603554
O        4.55719921       2.05369572       8.30060038       0.00639164       0.01730472      -0.03011990
C        3.92763205       3.12864425       8.95407190       0.00883529       0.01490110      -0.00305045
C        2.66514855       2.72024869       9.71134932       0.01825851      -0.00898260      -0.00741178
C        4.88540683       3.89028787       9.86599997       0.00818384      -0.00354773      -0.00374103
H        3.62247013       3.79793412       8.14228416      -0.00373811       0.02077734       0.00539267
H        2.10557446       3.60675052      10.02008349       0.01062569      -0.01803230       0.00819796
H        2.02794138       2.09690348       9.08262067       0.01740143      -0.00912198      -0.00705405
H        2.91948050       2.16843189      10.61744141       0.02927425      -0.01355375      -0.01114462
H        4.42420814       4.81329272      10.22522561       0.01152808      -0.01674374       0.01908120
H        5.80186124       4.13779517       9.33036519       0.00621429       0.00985949      -0.00391872
H        5.14083080       3.28315167      10.73731667       0.02343710      -0.01938935      -0.01715797
H        4.82807219       1.33424530       8.91651466       0.00733417       0.01777336      -0.03305314
O        3.27636816       4.18181963       0.47082267       0.00824672      -0.00660938      -0.00424904
C        3.18638298       3.09095430       1.38719186       0.00449635      -0.00510404      -0.00236923
C        4.37071413       2.15065314       1.24651462       0.00514781      -0.00617725       0.00179735
C        3.01040305       3.59599792       2.81169214       0.00251766      -0.00141999      -0.00361383
H        2.27623806       2.56983292       1.08186557       0.00520271      -0.00449029      -0.00308713
H        4.28769158       1.30544969       1.93118167       0.00376450      -0.00631404       0.00150694
H        4.44348311       1.75839692       0.23268363       0.00753620      -0.00615772       0.00198868
H        5.30035921       2.67445373       1.48519579       0.00459185      -0.00652233       0.00476924
H        2.85502209       2.76744662       3.50530662       0.00166960      -0.00121969      -0.00364808
H        2.15628515       4.27095238       2.87343156       0.00253333      -0.00126408      -0.00596301
H        3.90227813       4.13735917       3.13761289       0.00242697      -0.00097034      -0.00259026
H        4.09963594       4.64721075       0.64720691       0.01382170      -0.01501177      -0.01072291
O        6.50359666       6.86153874       5.97206520      -0.00076360      -0.00287062      -0.00372799
C        5.17104948       7.29880297       6.22066904      -0.00011265      -0.00247099      -0.00338346
C        4.39577781       6.08976029       6.70305530       0.00119939      -0.00153846       0.00095838
C        5.11360069       8.44634804       7.21673154       0.00115279       0.00026900      -0.00566173
H        4.74166850       7.64423640       5.26802620      -0.00140098      -0.00443050      -0.00325507
H        3.34854768       6.34091444       6.87925319       0.00119075      -0.00185366       0.00099459
H        4.45086441       5.27661285       5.97853890       0.00115709      -0.00410596       0.00325896
H        4.82571728       5.73426863       7.63987577       0.00205822       0.00123467       0.00139500
H        4.07856630       8.74266312       7.40370528       0.00144914       0.00032755      -0.00457318
H        5.64598141       9.32392435       6.84422067       0.00032699      -0.00023417      -0.00887750
H        5.55256893       8.16084154       8.17212427       0.00360642       0.00187082      -0.00614101
H        6.97730434       7.58315200       5.48372553       0.00006521      -0.00273430      -0.00513326
O       10.62893659       3.65782798      11.20887134       0.00317365       0.00509751       0.00279716
C       11.29761846       2.77768501      10.29968132       0.00303184       0.00269851       0.00450385
C       10.61654098       1.42149150      10.23909535       0.00240549       0.00286555       0.00700084
C       11.43324694       3.43677140       8.93423173       0.00280848      -0.00050333       0.00296587
H       12.29397218       2.65027699      10.73002293       0.00282586       0.00329617       0.00477988
H       11.17062375       0.73240627       9.60042815       0.00298062       0.00079148       0.00984669
H       10.57190458       0.96848013      11.22703093       0.00033844       0.00553425       0.00817585
H        9.59778465       1.51069753       9.85662926       0.00322957       0.00158981       0.00463724
H       11.99397520       2.79024446       8.25385201       0.00421020      -0.00156435       0.00503016
H       11.95967668       4.38762348       9.01636777       0.00144900       0.00047252       0.00085294
H       10.44652469       3.63897887       8.50514988       0.00250491      -0.00306024       0.00215851
H        9.79799971       3.92205972      10.79979122       0.00227835       0.00272948       0.00398120
