146
Lattice="12.116717623919715 0.0 0.0 0.0 12.116717623919715 0.0 0.0 0.0 12.116717623919715" Properties=species:S:1:pos:R:3:forces:R:3 energy=-721825.4375 stress="0.00013002977357245982 0.0001365828502457589 -0.00040356464160140604 0.0001365828502457589 0.0018226334359496832 0.0002895365032600239 -0.00040356464160140604 0.0002895365032600239 0.0006735268398188055" pbc="T T T"
Eu       6.12479819      11.72269226       9.22328058       0.00254068      -0.00234073       0.00425285
Eu       6.18569310      11.01716897       1.67955161       0.00255084      -0.00428620       0.00191373
P        4.47793570       9.95798342       7.68995483       0.00357966       0.01113125      -0.00697440
O        4.04692265       8.64309379       8.47963906      -0.00166784       0.00439072      -0.02390733
O        4.00834793      11.18548655       8.54733670       0.00370234       0.00369322       0.00261590
O        3.93378698       9.92146352       6.29407815       0.00228715       0.02906086      -0.01185465
O        6.02138700      10.06586490       7.81938612       0.00176167       0.00676492      -0.00575750
H        3.42648272       8.09554028       7.93281544      -0.00274316       0.00923680      -0.02881560
P        7.83598083      10.60960793      11.31991829       0.00244105      -0.00478751       0.00912754
O        8.15832855       9.09811232      11.17766758       0.00277570      -0.00682510       0.00393273
O        6.25269482      10.73075190      11.32977456       0.00374502      -0.00437709       0.00399871
O        8.28317530      11.39931466      10.08172218       0.00430486      -0.00506951       0.00137332
O        8.26639821      11.18700194      12.66480569       0.00369304      -0.00631538       0.00105914
H        9.14216656       8.76094178      11.08605443       0.00362632      -0.00357295       0.00571281
P        8.09101600      10.24064860       3.66662522       0.01660019      -0.00906239       0.01607166
O        9.53654806      10.45322547       3.00004874       0.00277251      -0.00662223       0.00383526
O        7.25678966       9.38905040       2.66532541      -0.00310671      -0.00817281       0.00032860
O        7.35523527      11.61700124       3.59554800       0.00173418       0.00575107       0.00071537
O        8.29788830       9.64187624       5.01068970       0.00213017       0.00396673      -0.00428009
H        9.42441995      10.72788222       2.07085621       0.00346141      -0.00893641      -0.00161809
O        5.30103722       4.22657261       8.87159249      -0.00948763      -0.00519148      -0.00072607
C        4.12840467       4.57905170       8.11321797      -0.00803662      -0.00963560      -0.00526075
H        3.39195192       3.78806542       8.24226789      -0.00999956      -0.00646731       0.00205807
H        4.36788764       4.67507692       7.05323215      -0.00646095      -0.02109505      -0.00589496
H        3.70915159       5.51763713       8.47659417      -0.00607860      -0.00473952      -0.01542383
H        6.05592586       4.79589457       8.53762123      -0.00946607      -0.00477096      -0.00128111
O       10.32118020      10.05674193       8.54278769      -0.00585929      -0.01116294      -0.00898296
C       10.32258998      10.79842855       7.33520586      -0.00556747       0.00340721      -0.00003058
H       10.82433037      11.76659130       7.45044112      -0.00708729       0.00220174       0.01147768
H        9.31210534      10.94731396       6.94182521      -0.00444329       0.00516637      -0.00070941
H       10.86544642      10.20779590       6.59914036      -0.00259957       0.01160455      -0.00508317
H        9.71370559      10.50077563       9.14998817      -0.00532332      -0.01425265      -0.00224742
O        4.34137921       8.29626049       4.34991443      -0.01937076       0.00827548       0.00745923
C        5.33169388       7.29928372       4.61866498      -0.01159434       0.01423764       0.00906386
H        5.21212423       6.91362150       5.63468644      -0.01418564       0.01011476       0.00694048
H        6.34246069       7.69362420       4.49647550      -0.01480946       0.02309458       0.01578818
H        5.17129840       6.47268911       3.92598875      -0.00167008       0.01623878       0.00500251
H        4.32512888       8.96456066       5.10109977      -0.01481820       0.01536802       0.00138485
O        2.65239834       2.41774191       3.31151841      -0.01484466      -0.00937487       0.00579792
C        3.41337135       2.11364992       4.47479957      -0.00796166      -0.00814152       0.00189951
H        4.38655912       2.61508000       4.46514749      -0.01236510       0.00019568      -0.00075220
H        3.57432831       1.03690351       4.51290174       0.00110968      -0.00677294      -0.00236581
H        2.88714249       2.40162900       5.38873733      -0.00645974      -0.01578431       0.00523129
H        2.44281910       3.37120311       3.40703164      -0.01019511      -0.00808667       0.00426228
O        0.65423568      13.36846518       6.36020020      -0.00919452       0.00225544      -0.00124842
C        0.92932285      12.28934229       5.47248298      -0.00749064       0.00554085      -0.00442907
H        1.07937843      12.69613136       4.47231933      -0.00655736       0.00823069      -0.00317881
H        0.09309382      11.58860285       5.44244021      -0.00754791       0.00498968      -0.00727293
H        1.83330197      11.74961788       5.76877831      -0.00769922       0.00539222      -0.00470167
H        0.99816562      13.13175469       7.24978625      -0.00331901       0.00251977      -0.00287721
O       10.39629222       8.10477755       5.08864380       0.00723840      -0.00025976       0.00429723
C       10.05364184       6.82101493       5.56719425       0.00649266      -0.00066942       0.00566961
H        9.11634194       6.45906865       5.12960739       0.00493023       0.00071512       0.00392388
H        9.94642028       6.81393607       6.65757005       0.00090222       0.00423099       0.00557750
H       10.84824900       6.12215164       5.29752056       0.00307295       0.00389649       0.00996875
H        9.58922199       8.69563412       5.10647922       0.00120468       0.00395152       0.00470573
O       10.45712721       8.16155016      11.02420203       0.00556029       0.00342220       0.00505382
C       10.71802953       7.26832543       9.94318981      -0.00152773      -0.00277250       0.00705066
H       10.00229444       6.43885037       9.92395488      -0.00454491       0.00010416       0.01433242
H       11.72794189       6.86076663      10.02854713      -0.00283775      -0.00569019       0.00537057
H       10.63083970       7.84948715       9.02801571      -0.00356267      -0.00642914       0.00514463
H       10.62344877       7.69050409      11.88928067       0.00768264       0.00516776       0.00579778
O        7.32342330       3.79115461       5.65515363       0.00627232       0.00443605      -0.00460976
C        8.41960097       2.94342974       5.98459311       0.00642264       0.00573771      -0.00411583
H        9.14250946       2.88232252       5.16763281       0.00525662       0.00302232      -0.00493750
H        8.08403871       1.93287206       6.23809057       0.00713837       0.00637838       0.00017252
H        8.91693225       3.37323557       6.85201631       0.00801649       0.00883318      -0.00598624
H        6.91994457       3.41306602       4.85725934       0.00320756       0.00041533      -0.00277601
O        2.40737622       7.38028032       6.80526637      -0.00651699       0.01002737      -0.01664907
C        1.17195459       8.08785380       6.99717079      -0.00511019       0.01114441      -0.00956561
H        0.52665415       8.00327805       6.12291614      -0.01336706       0.00581637      -0.00249228
H        1.35241877       9.14214925       7.21610648      -0.00310449       0.01236641      -0.01736929
H        0.67616334       7.63139824       7.84941146       0.00280925       0.01658310      -0.00192615
H        2.83558415       7.75735664       6.02318395      -0.01671205      -0.00413974      -0.02913663
O        6.78614258       2.05167824       3.49180029      -0.00295675      -0.00160718      -0.00043070
C        5.97490617       1.71300141       2.39865007       0.00142898      -0.00410607       0.00035378
H        5.41530877       2.58369763       2.06173000       0.00239809      -0.00159115      -0.00231941
H        5.19906087       0.95983777       2.67645826      -0.00109582      -0.00203896      -0.00241411
H        6.57793819       1.35523289       1.53680173       0.00152669      -0.00412896       0.00068901
H        7.20245430       1.20181717       3.76988406       0.00082480      -0.00457567       0.00142118
O       10.72832383       6.98217813       1.19930056       0.00829643       0.00270261       0.00287741
C        9.38957802       6.94939956       1.69906083       0.00772715      -0.00473037       0.00206922
H        8.87515346       7.90106053       1.55714535       0.00503904      -0.00488663       0.00810280
H        9.38168803       6.71021607       2.76397302       0.00828926      -0.01184296       0.00038043
H        8.85415867       6.17019236       1.15606694       0.01029393      -0.00241604      -0.00333318
H       11.24796325       7.58673173       1.78761180       0.00660182      -0.00015095       0.00640580
O        4.04929204       3.62221296      -0.81077871      -0.00345713      -0.00070334       0.00107121
C        4.05991755       4.55687202       0.26630780       0.00617119       0.00129765      -0.00073090
H        3.51566643       5.46901097       0.00497611       0.00922948       0.00349408       0.00017065
H        5.07977562       4.82008504       0.56406763       0.00880253      -0.00296627      -0.00604782
H        3.56126894       4.08165611       1.11102091       0.00756867       0.00535364       0.00239539
H        4.57780322       3.98328649      -1.54480555      -0.00623134      -0.00413319      -0.00257291
O       12.11931875       1.15324832       1.47380982       0.03302854       0.01946618       0.00966587
C       10.80730085       1.64838102       1.69836527       0.02520037      -0.00292595       0.00844276
H       10.76662968       2.74280393       1.65102155       0.00541227      -0.00434801       0.00542121
H       10.39602810       1.31941713       2.65848344       0.03102799      -0.00749412       0.00973859
H       10.17415773       1.24330058       0.90906275       0.03083622      -0.01595150       0.01120502
H       12.70944376       1.50147678       2.15133377       0.02848343       0.02686146       0.00967490
O        2.31890489       4.95057942       4.15706860       0.00128289      -0.00737303      -0.00005999
C        1.66972429       6.05036113       3.53188427      -0.00538202      -0.01149321      -0.00036794
H        1.93637146       6.99703547       4.00518102      -0.01453117      -0.00999424       0.00178218
H        0.58440351       5.94295019       3.54338024      -0.00461656      -0.02001601      -0.00320092
H        1.99264333       6.09107658       2.49063788      -0.00280143      -0.00712647       0.00076115
H        1.80518286       4.70703172       4.95588604       0.00149953      -0.00953111      -0.00006120
O        6.55379996       1.96110606       9.05720359       0.00074506      -0.00173628       0.00522250
C        7.71939978       2.56747971       9.67805358      -0.00014711       0.00144517       0.00337970
H        8.44646532       1.77931681       9.85880027       0.00538492       0.00498685      -0.00158213
H        7.43362071       3.02942871      10.62526965       0.00040461      -0.00343869       0.00604865
H        8.13385964       3.32735082       9.01711795      -0.00665145       0.00588194       0.00434391
H        5.94103839       2.73202517       8.86144048      -0.00163373      -0.00344738       0.00476491
O        4.50415937       9.32130330       1.96194370      -0.00731882       0.00268830       0.00263932
C        4.65614657       8.13305674       1.15622548      -0.01803285       0.00388845       0.00129098
H        4.27592346       7.27558275       1.71149978      -0.04738303       0.00926900      -0.01116934
H        5.70883564       7.96764791       0.91409066      -0.01769298      -0.01768381       0.02029327
H        4.08639895       8.25510314       0.23731323       0.00240597       0.02095690      -0.00868723
H        4.45927108       8.99564424       2.92056696      -0.01356640       0.00347337       0.00270639
O        1.40938275       4.55921452      10.62992632       0.00152230       0.00671013       0.00227660
C        0.42936447       4.18247541      11.58824545       0.00544196      -0.00224528       0.00258076
H        0.86646365       3.65782633      12.44185531       0.00996888      -0.00193723       0.00053820
H       -0.32372874       3.51929243      11.14483487       0.00906610      -0.00615194       0.00207791
H       -0.07292759       5.08011701      11.95240233      -0.00001734      -0.00644833       0.00573950
H        2.20617457       4.02725496      10.77290356       0.00372746       0.00855959      -0.00138754
O        7.26772555       5.56321011       7.78996631      -0.00927057      -0.00573507      -0.00009161
C        7.16211972       7.00367399       7.82956004      -0.00333698      -0.00525288      -0.00097987
H        6.13996572       7.30917857       8.05525941      -0.00323623      -0.00080443      -0.00796571
H        7.46918765       7.45403074       6.88717372       0.00534800      -0.00648181       0.00157887
H        7.81412822       7.36858617       8.62059903      -0.00676045      -0.00896123       0.00360218
H        7.22977714       5.22690426       6.87780737      -0.00546172      -0.00607150      -0.00145862
O        1.77247482       0.54380678       8.68402609       0.00513744       0.00712469      -0.00603145
C        1.64814279       0.95061997      10.03753446      -0.00538009      -0.00179689      -0.00462928
H        2.52702181       1.51235220      10.37445796      -0.00984493      -0.00066461       0.00494600
H        1.49781866       0.10018922      10.70748970      -0.00692188      -0.00617117      -0.01035734
H        0.78029239       1.60319193      10.11479195      -0.00841564      -0.00537242      -0.00674014
H        2.54357005      -0.05822428       8.59951148       0.00608529       0.00654979      -0.00402346
O       -0.11707419       8.45535730       2.97822239       0.00713915      -0.00729164       0.00608119
C        0.51045740       9.73003309       2.94815298       0.01200393      -0.01006404      -0.00268449
H        1.28106688       9.80138793       3.72413710       0.00977021      -0.00653294      -0.00067413
H       -0.21397880      10.53355284       3.08022346       0.01361328      -0.00566924      -0.01006921
H        0.98974146       9.84875548       1.97760660       0.01441865      -0.01880427      -0.00139168
H       -0.72518618       8.40216924       3.75265233       0.00525914      -0.00142104       0.00469870
O        0.72388464       3.90618714       6.09244608      -0.00314908      -0.00105560      -0.00473231
C        0.30173960       4.24325987       7.40551065       0.00738650       0.00913036      -0.00373110
H        0.81035172       3.64721181       8.16708515       0.00974381       0.01168767      -0.00324583
H       -0.77950915       4.10429140       7.52036189       0.00773257       0.01469734       0.00465076
H        0.54049818       5.28925335       7.58534239       0.01326074       0.00921473      -0.01231544
H        0.71167356       2.92306523       6.03722994      -0.00697063      -0.00134261       0.00026646
