146
Lattice="12.080792670165932 0.0 0.0 0.0 12.080792670165932 0.0 0.0 0.0 12.080792670165932" Properties=species:S:1:pos:R:3:forces:R:3 energy=-873111.875 stress="-0.0003620653005782515 -0.0002811283920891583 -0.00024898722040234134 -0.0002811283920891583 0.0013635235372930765 0.0007434718136209995 -0.00024898722040234134 0.0007434718136209995 0.0009858938865363598" pbc="T T T"
Eu       9.77048656       9.46839214      10.76447976       0.00137519      -0.00951347      -0.00268832
Eu       8.10323438      11.96518475       6.48857996       0.00258190       0.00725627      -0.00443803
O        8.47031398      11.63573704       2.53949222      -0.00183690      -0.00404739      -0.00492647
O        6.83795095      10.89527852       4.69470980       0.00055315       0.00808476      -0.00098264
O        6.56279332       9.79278796       2.15086655      -0.00986773      -0.01354253      -0.00195241
O        5.91284394      12.26656468       2.51043910       0.00833488      -0.01212311      -0.00018907
Cr       6.94730308      11.13037333       2.89079435      -0.01545161       0.02821548       0.00071406
Cr       5.40120833      10.57534098       5.72469658      -0.00940800       0.00234550      -0.00240508
O        4.12352698      11.30608460       5.16183132       0.00800180       0.02047139       0.01086909
O        5.12017233       9.04298365       5.99865551      -0.00738892       0.01467025      -0.01292360
O        6.01610692      11.31523331       7.10091585       0.00842856      -0.00249997       0.00681365
O        6.90254941       5.68976889       7.03217534      -0.00017259      -0.02454460       0.00451076
O        6.97837385       8.24590057       8.22551103       0.00016091      -0.01226535      -0.02420187
O        7.41767432       5.94734521       9.61511623       0.00758469       0.00036162       0.00235224
O        4.98723050       6.45144771       8.69070551       0.00614595      -0.00672013       0.00185868
Cr       6.54695607       6.50984663       8.37875495      -0.00061327      -0.01041734      -0.00454177
Cr       8.42956165       9.13365004       8.06904211      -0.00219184      -0.00527628       0.00266141
O        8.39238478      10.49376166       9.03829998      -0.01162472      -0.01747653       0.01861720
O        9.69942260       8.28321251       8.64765342      -0.00287020      -0.00511998       0.00018743
O        8.65480915       9.64852715       6.55043181       0.01100175       0.01425627       0.00749880
O       11.16348362      10.72754129      -0.11825504       0.00266558      -0.01197362       0.00650886
O       10.93597356      11.24674535       2.44781950      -0.00193042      -0.00140028       0.00361031
O        8.75170069      10.41470098       0.35169903       0.00163186      -0.01378241       0.00025654
O        9.85404777      12.90212265       0.54236784      -0.00318766      -0.01359314      -0.00508124
Cr      10.00689148      11.37949542       0.96023622       0.00024086      -0.01010556       0.00033566
Cr      10.66818031      10.74951488       4.14240038       0.00918755       0.00393760       0.00573629
O        9.82321669      11.86515986       5.09132906       0.00225545       0.00640315      -0.00348824
O        9.91712272       9.36204839       4.13692696      -0.00404477      -0.00203955       0.00709595
O       12.10603902      10.58408464       4.77485285      -0.00369132      -0.00048143       0.00294113
O       12.27337855       2.16984793       1.34929454      -0.01106619      -0.00895175      -0.00950181
C       12.15050114       2.33346392       2.75749082       0.00036827      -0.00475991      -0.00883931
C       11.83636755       3.76798172       3.14169231      -0.00122355      -0.00440061      -0.01091877
H       11.38544012       1.65522639       3.14690034       0.00592142      -0.00603169       0.00006537
H       13.10154862       2.03331926       3.20408719       0.00522602       0.00007887      -0.01599100
H       11.73458564       3.85300815       4.22544524       0.00909571      -0.00076626      -0.01013769
H       12.63561702       4.44035476       2.82543510      -0.00658381      -0.00297689      -0.02120948
H       10.90169813       4.10191299       2.68750558      -0.00663356      -0.00905881      -0.00317790
H       11.43670547       1.81348279       1.02076176      -0.01098550      -0.01588064      -0.00189313
O        7.64656305       1.85363173       5.12454943       0.00047410       0.00569785      -0.00432681
C        8.46970726       2.46080074       4.07316341      -0.00088942       0.00356408      -0.00650674
C        7.62264035       2.94301683       2.92896763      -0.00130236       0.00410438      -0.00555468
H        9.05097332       3.26257675       4.53598064       0.00165802       0.00309604      -0.00790960
H        9.14051968       1.66091957       3.76951112      -0.00211886       0.00207400      -0.00652319
H        8.26534172       3.39701774       2.17371772      -0.00245377       0.00478098      -0.00576553
H        7.07008117       2.12602427       2.46920891      -0.00206342       0.00368398      -0.00573799
H        6.91284153       3.70540372       3.25568066      -0.00160424       0.00349189      -0.00448424
H        6.98664777       2.49516009       5.41849617       0.00359964       0.00932834      -0.00162838
O        2.30271216       5.07765978      10.34561594      -0.01992478       0.00273842       0.00203800
C        2.08481070       3.95487984      11.18008718      -0.00929275      -0.00115895      -0.00002969
C        1.42894606       2.86753263      10.36134361      -0.00576895      -0.00274152      -0.00088623
H        3.02596772       3.59363208      11.60994987      -0.00547194       0.00352791      -0.00457951
H        1.42714440       4.20688120      12.02616528      -0.00789171      -0.00759801       0.00314444
H        1.16946522       2.01946981      10.99619276       0.00034824      -0.00598164      -0.00283341
H        0.51022241       3.24974217       9.91161998      -0.00925413      -0.00632890       0.00314211
H        2.09028009       2.53571739       9.55859781      -0.00618865       0.00331032      -0.00381365
H        2.88005268       5.69032648      10.84173082      -0.01865117       0.00362295      -0.00016946
O        4.60957380       2.60369233       1.15617516       0.00074965       0.00138426      -0.00012237
C        3.89406764       3.22983338       2.20501907       0.00026062      -0.00016981      -0.00041294
C        3.82736723       2.40237310       3.47608495       0.00633869       0.00382411       0.00248456
H        4.40554719       4.17702008       2.39416802      -0.00362357       0.00320172      -0.00416058
H        2.87317730       3.48139495       1.87854063      -0.00183457      -0.00513746       0.00094128
H        3.31679091       2.96317239       4.26317748       0.00549077       0.00390371       0.00175042
H        3.28915227       1.46665090       3.31129222       0.01052031       0.00052617       0.00664522
H        4.82563633       2.13265748       3.81879371       0.00833844       0.00929894       0.00117842
H        4.28141214       1.69402384       1.05496370       0.00069434      -0.00001538      -0.00012283
O        6.43975847       7.23228362       4.37437174       0.00459534      -0.00638992       0.00409138
C        6.92486214       6.64334033       3.17905157       0.00315619       0.00051802       0.00233662
C        8.40329767       6.30546389       3.26774964       0.00364703       0.00103560      -0.00308214
H        6.33663137       5.75330120       2.91788391       0.00337633       0.00271642      -0.00436110
H        6.75249156       7.38255218       2.39567023       0.00209089       0.00667727       0.00657010
H        8.75807821       5.88038669       2.32495091       0.00246065       0.00609112      -0.00549515
H        8.98016836       7.20195634       3.49310127       0.00356395      -0.00000438       0.00125702
H        8.58608917       5.56966329       4.05679234       0.00505627      -0.00304889      -0.00688984
H        6.55449514       6.60983879       5.10324930       0.00082798      -0.01629969       0.00203705
O        9.79024318       1.38489371       7.62369002       0.00479778      -0.00183642       0.00062574
C       11.19454884       1.06299760       7.81814399       0.00522866      -0.00441658      -0.00443125
C       11.32169202      -0.01585599       8.87157313       0.00615512      -0.00374845      -0.00388995
H       11.61866208       0.73639253       6.86395389       0.00067499      -0.00639953      -0.00564837
H       11.70510719       1.96860838       8.14540913       0.00863978      -0.00538483      -0.00710875
H       12.36937274      -0.15504521       9.13984395       0.00810778      -0.01504664      -0.01700824
H       10.77425244       0.26049748       9.77574603       0.01952685       0.00295137       0.00220309
H       10.94761051      -0.97496230       8.49642159      -0.00836375      -0.00027710       0.00115691
H        9.70232491       2.33342416       7.38235125       0.00516257      -0.00104049       0.00143009
O        9.46532908       6.97125610      11.19762665      -0.02363402       0.01294222       0.01223426
C       10.44008324       5.88399037      11.24020598      -0.00924495       0.02637276       0.01422207
C        9.75746651       4.53555976      11.23465877       0.01121894       0.01602614       0.01904537
H       11.12140960       5.97526502      10.38767399      -0.01145843       0.03447726       0.01334965
H       11.01845206       6.03171136      12.15196900      -0.01097101       0.03772838       0.01336044
H       10.49984954       3.74267281      11.33794739       0.02443427       0.02983709       0.03033809
H        9.04907891       4.44991178      12.05865836       0.00713015       0.00995862       0.01493873
H        9.21148823       4.37926993      10.30339116       0.02071042      -0.00106944       0.01646830
H        8.70971722       6.63782463      10.65979303      -0.01766299       0.00626583       0.00867422
O        9.12202856       4.09946780       7.17255827       0.00876448      -0.01145333      -0.00015140
C        9.89155171       5.30246966       7.37321684       0.00954616      -0.01163550      -0.00375523
C       11.36148429       5.00515283       7.27886954       0.00972939      -0.01522902       0.00631748
H        9.59503537       6.03919764       6.62101025       0.01479656      -0.01527333      -0.00974268
H        9.64228537       5.72614961       8.34785530       0.00485103      -0.00580661      -0.00741017
H       11.93189489       5.91732116       7.45345949       0.01054968      -0.01469198       0.00080949
H       11.67058216       4.27624903       8.02895830       0.00499807      -0.00870509       0.01452990
H       11.62388788       4.62616495       6.29121824       0.01374033      -0.02520656       0.01098484
H        8.20573324       4.43236277       7.08129212       0.00763959      -0.01187280       0.00053579
O        3.64321746       6.71065677       0.04158878      -0.01370037       0.00534454      -0.00724882
C        2.58661652       7.19390796       0.86987499      -0.00925654       0.00192823       0.00020665
C        2.99701558       7.27481992       2.32316314      -0.00005758       0.00274611      -0.00231290
H        2.24644003       8.16981314       0.50352518      -0.01573771       0.00073314       0.00279570
H        1.74906141       6.49620295       0.75565128      -0.00735030      -0.00148714       0.00579311
H        2.15361602       7.58844131       2.94175446       0.00279376      -0.00149335       0.00368536
H        3.33233704       6.30675596       2.69079381       0.00638288       0.00379923      -0.00534531
H        3.81173349       7.98530196       2.47161918      -0.00206994       0.00622089      -0.00702321
H        4.04688662       7.47747833      -0.40415463      -0.01314707       0.00614711      -0.00574307
O        4.53936492       8.60604537      10.41451942       0.00498480       0.00235265      -0.00065652
C        4.28310739       9.88680406       9.83589796       0.00190991       0.00314289       0.00248346
C        2.79894758      10.16579834       9.68214085       0.00136763       0.00002419       0.00118411
H        4.73080305      10.62544125      10.50338060      -0.00119948       0.00212073       0.00587627
H        4.78853162       9.95594455       8.86838989       0.00327861       0.00810178       0.00363332
H        2.65846930      11.14089599       9.20888218       0.00041108       0.00289924       0.00726536
H        2.32064643       9.41233197       9.05456299       0.00459317       0.00292118      -0.00470234
H        2.30216860      10.18287758      10.65421905      -0.00095526      -0.00671437       0.00011539
H        4.55395247       7.93475511       9.71287571       0.00754917       0.00285780      -0.00296715
O        3.36172422      12.20666827       0.50797952      -0.01329637       0.00718862      -0.00034165
C        3.30531765      11.04874541       1.36664105      -0.00916302       0.00098601      -0.00878122
C        1.93551830      10.85795198       1.96387256      -0.00479287      -0.00004979       0.00031692
H        3.61860922      10.17081649       0.79025037      -0.01711185       0.00447649      -0.01916128
H        4.05316599      11.20849658       2.14038146      -0.00121951      -0.00812495      -0.01389021
H        1.94117149      10.03539926       2.67847768      -0.00325721      -0.00835747      -0.00925273
H        1.61836310      11.75178747       2.50202005       0.00317084      -0.00493911       0.01355886
H        1.18421388      10.64652197       1.19924640      -0.01144347       0.01228686       0.00350523
H        2.45855599      12.44604726       0.27778384      -0.01552650       0.01693927       0.01681408
O        7.02956889       1.74984071       7.96953264       0.00423712       0.00137430       0.00049955
C        6.04227330       1.59458921       9.04163659       0.00257123       0.00082859      -0.00093011
C        5.38483186       2.90784794       9.38001660       0.00631860       0.00163674       0.00311525
H        5.33886649       0.85993144       8.65591701       0.00054681       0.00427556      -0.00480641
H        6.54250709       1.16275670       9.91319126       0.00019938      -0.00431336      -0.00229067
H        4.68769888       2.76286455      10.20603642       0.00549173       0.00131847       0.00233434
H        6.11613612       3.64775904       9.71244955       0.00897828      -0.00197691       0.00612084
H        4.84203293       3.32077770       8.52960512       0.00859161       0.00666179       0.00419791
H        7.65576185       2.42666107       8.26180029       0.00602414      -0.00052869       0.00400823
O        3.63975424       6.52411774       5.32943547      -0.00178111       0.00047079      -0.00050849
C        2.52018514       6.66940518       6.18569375       0.00328612       0.00067425       0.00209460
C        2.01969739       8.09874046       6.28975585      -0.00562537      -0.00240725      -0.00128235
H        1.74350936       6.02645454       5.75925705       0.00450027      -0.00594583       0.00649819
H        2.74885311       6.28020680       7.18770577       0.00731823       0.00474930       0.00300884
H        1.13182932       8.15163138       6.92540760      -0.00153054      -0.00432135       0.00424691
H        2.78715636       8.73901567       6.72639061      -0.00629920       0.00434242      -0.00949112
H        1.76039631       8.51035144       5.31434549      -0.01423085      -0.00823780      -0.00169843
H        4.24589454       7.26635283       5.45919554       0.00027758       0.00822622      -0.00236966
