148
Lattice="11.908607291446774 0.0 0.0 0.0 11.908607291446774 0.0 0.0 0.0 11.908607291446774" Properties=species:S:1:pos:R:3:forces:R:3 energy=-722213.0625 stress="0.0008366907713934779 0.0008237701840698719 0.000265268943621777 0.0008237701840698719 0.002314972458407283 -4.487191836233251e-05 0.000265268943621777 -4.487191836233251e-05 0.0010233494685962796" pbc="T T T"
Eu       9.95250651      11.27452051       3.52411308      -0.00523353       0.00866237      -0.00982898
Eu       2.75076107      12.27980990      -0.03135043       0.00825033       0.00417070       0.00341989
S        3.52521461      13.17102886       2.46143277      -0.01237071       0.00403783       0.00971848
S        5.06921405      12.46342968       1.23686849      -0.00443679       0.00432973       0.01339731
S        9.34102586      12.07775326       5.95803241       0.01725596       0.00689930       0.00320533
S       10.56276520      10.39487920       5.87365586       0.00732768       0.00474515       0.00132596
S        1.82548600      11.23940036       9.51899292       0.00599281      -0.02477255       0.00932291
S        3.57181757      10.31542719      10.19358825       0.02770463       0.01782715       0.00244024
N        1.05606779       7.25705482       2.61477215      -0.00195280      -0.00516015       0.00027860
H        1.78927099       7.17768289       3.31730073      -0.00554091      -0.00234379       0.00456669
H        1.50660213       7.20497791       1.69701831       0.00400652       0.00315720       0.00266164
H        0.54322976       6.38321896       2.69462536       0.00505590      -0.01003876      -0.00744816
N        3.52664463       4.87596016       2.53569966       0.00128111       0.00352520      -0.00159632
H        3.18142063       5.27805662       3.40790011       0.00023494       0.00542836      -0.00309174
H        3.60947573       3.86697146       2.66096707       0.00020940       0.00382147       0.00155304
H        2.79022452       5.01937933       1.85243937       0.00161940       0.00170390      -0.00275960
N       10.68291646       9.28015934       2.00980083       0.00124533      -0.00000733      -0.00246513
H        9.90051504       8.60488744       1.94587666       0.00089708       0.00260848      -0.00143088
H       11.48041885       8.69667744       2.30476192      -0.00098127       0.00001672      -0.00163598
H       10.88651917       9.50576055       1.03703509       0.00140373      -0.00157787      -0.00212017
N        1.44166084       5.53730121       8.69811515      -0.00315907       0.00867251      -0.00299072
H        0.78451598       4.84882183       8.34426611      -0.01083956       0.01506904      -0.00122219
H        2.36688209       5.19122855       8.44935612      -0.00697366      -0.00170822      -0.00262856
H        1.30996285       6.36591452       8.12357337       0.00537156       0.00870769      -0.00507877
N        5.49977749      10.48533413       4.84947506      -0.00676298       0.00350881       0.00180888
H        4.87553487       9.85832045       5.35368752      -0.00831899       0.00293071      -0.00135809
H        4.91927329      11.16005878       4.35656159      -0.00534758       0.00254279      -0.00179123
H        5.97356792      11.00511603       5.58649168      -0.01046095       0.00403471       0.00354231
N       10.32104269       4.11119286       6.95045133       0.00721428      -0.00228301       0.01507995
H       10.52974069       5.03725538       6.59503515       0.00097973      -0.00522549       0.00391596
H        9.57404717       4.22691693       7.63672560       0.00271007       0.00064715       0.01015306
H        9.88379321       3.59921864       6.18768292       0.01453356      -0.01539773       0.01964191
N       -0.44191919       8.36839085       9.97065672      -0.00996096       0.00572559       0.01430064
H       -1.10870409       9.09958236       9.73345012      -0.01767899      -0.00860866      -0.00510245
H       -0.34953753       7.78244296       9.14768444       0.00729092      -0.00884913       0.02682253
H        0.45241165       8.84750900      10.04620244      -0.01787304       0.02095564       0.01320835
N        6.15614198       5.55774277       4.39961402      -0.00008860       0.00086918       0.00512558
H        7.04623621       5.35463108       3.95105533      -0.00072283      -0.00394128       0.00562196
H        6.18565876       6.54483100       4.63186157       0.00377152       0.00168846       0.00130748
H        5.44309776       5.44931649       3.68070461      -0.00012625       0.00156165       0.00473981
N        0.48496477       1.74217196       0.22771191      -0.00576442      -0.00828689      -0.03659699
H        0.10297135       1.87518102      -0.71796027      -0.00439972      -0.02258022      -0.04034817
H        0.63356398       2.67507344       0.61102996      -0.01750906      -0.00295663      -0.04609728
H       -0.28667290       1.36756777       0.77382475      -0.00618908      -0.00944383      -0.03771412
N       11.26913170       1.69444313       9.07023550      -0.01044393       0.00354433       0.01776803
H       11.94001304       1.18744878       8.49777149       0.00595588       0.02332425       0.02290988
H       10.89312803       2.40861557       8.44899932       0.00591138       0.01770070       0.02491374
H       10.51979830       1.02325699       9.21157722      -0.00803102      -0.00586979      -0.03075530
N        5.48323047       8.48119200       2.09962637      -0.00023729       0.00121509      -0.00563598
H        5.51294701       8.86755134       3.04066994      -0.00272150       0.00172612      -0.00571178
H        4.82038683       7.71298969       2.10327283       0.00050741       0.00033304      -0.00677007
H        5.10469360       9.21764948       1.51158381       0.00027158       0.00013465      -0.00719141
N        4.24826304       4.05995757       7.38052338       0.00210047       0.00119346      -0.00287795
H        4.74281170       3.26462545       7.76617239       0.00767797      -0.00153742      -0.01553788
H        4.82388038       4.40068781       6.61483061      -0.00164247       0.01315412      -0.00030050
H        3.38684499       3.70355056       6.96020837       0.00305037       0.00210641      -0.00567143
N        7.17401382      10.15885975      11.34040618       0.01183888       0.00108297       0.01262687
H        6.94881559       9.34753596      11.90552153       0.00931586      -0.00071580       0.00934599
H        8.02659047       9.97090581      10.81879999       0.00872402      -0.00160231       0.00851450
H        6.43040065      10.23111533      10.65324665       0.01017844       0.00835683       0.01537819
N        8.47548111       7.43289659       7.29078972       0.00117490      -0.00570147      -0.00374460
H        8.57195630       7.79340789       6.34323017      -0.00803851      -0.00403569      -0.00388990
H        8.37666644       6.42720989       7.18679752      -0.00355688      -0.00538789      -0.00297678
H        9.39385134       7.58265446       7.69819169       0.00550666      -0.00859120      -0.01249617
N       11.41036332       5.08906946       0.87101461       0.00021571      -0.00147042      -0.00590092
H       12.10071126       5.64839358       0.37443258      -0.00393574       0.00370021      -0.00542496
H       10.71803196       5.75507559       1.20282395      -0.00253824      -0.00590353      -0.00234453
H       10.93178299       4.54411036       0.16091725       0.00174055      -0.00181293      -0.00684640
N        7.86024711       4.02263272       9.08815790      -0.00763029       0.01178366       0.00274378
H        6.85819319       4.14607910       8.98432005      -0.00760493       0.01179159      -0.00003195
H        8.16000571       4.72365533       9.76669740      -0.00852934       0.01726840      -0.00204509
H        8.00043944       3.10951649       9.50476481      -0.00995610       0.01491795       0.01122938
N        8.59891686       6.81526648      10.45527341      -0.00673968       0.00880492      -0.00441520
H        8.14267947       7.56963653      10.95849737      -0.01255870       0.00008304       0.00311185
H        8.32881423       6.97272902       9.48761680      -0.00187060       0.01948559      -0.00391206
H        9.59303906       7.03825183      10.51242675      -0.00794721       0.01187706       0.00428273
N       11.81020136       1.20064310       3.68763338      -0.00402075       0.00338042      -0.00811261
H       12.72643825       0.83928713       3.95724575      -0.00202841       0.00845304      -0.00829914
H       11.44204768       1.57508513       4.56393841      -0.00241852       0.01027836      -0.00972182
H       11.99797365       2.01329482       3.10894188      -0.00839989       0.00159788      -0.01476483
N        9.07766891       4.12981642       3.20003639      -0.00195561       0.00249743       0.00441024
H        8.77896587       3.54526224       2.42285085      -0.00303259      -0.00429256       0.00269843
H        8.77169884       3.65508892       4.05146330      -0.00099728      -0.00187995       0.00640670
H       10.09157431       4.11994681       3.16879890       0.00008769      -0.00031097       0.00325546
N        2.31181640       6.89330975      11.48943457       0.01479490       0.01283670      -0.00184342
H        1.75258121       6.51569458      10.72121229       0.01225750       0.01229873       0.00035100
H        3.11633760       6.27283020      11.53584169       0.01017914       0.00690492       0.00340943
H        2.67206672       7.77670468      11.12923501       0.02236338       0.00785892      -0.00658217
N        4.51690708       8.50333881       7.29119046       0.00870034      -0.00588161       0.00636253
H        5.51743900       8.33248411       7.25053245       0.01067766       0.00815250      -0.00264934
H        4.10529709       7.64793983       7.65175025       0.02380619      -0.01254087       0.00667688
H        4.38084326       9.19332243       8.03108193       0.00600316      -0.00934731       0.00951004
N        3.17817020       2.64768876      10.55444700       0.00459300       0.00162423      -0.00413400
H        3.77966821       2.39057273       9.77503159      -0.00454737       0.00562675      -0.01214029
H        3.65725564       3.43980300      10.99615021       0.01119618      -0.00189313      -0.00385789
H        2.35319123       3.04325926      10.10772774       0.00094035       0.00696163       0.00782929
N        2.38933401       0.32256633       5.90225549      -0.00400880      -0.00339839       0.00701149
H        3.33053351       0.69264652       5.98471495       0.00103676      -0.01287887      -0.01403424
H        2.48210056      -0.47461873       5.28258777      -0.02498123      -0.00835149       0.01095795
H        2.14572332      -0.05561462       6.81664136       0.00891043       0.00426129       0.01354967
N        7.63493983      10.77494552       2.66209082       0.00034839      -0.00065459       0.01265559
H        7.08188691      11.44640017       2.12068674       0.00084923      -0.00007249       0.01118232
H        7.02409277      10.54528132       3.45896165      -0.00296794       0.00169364       0.01172885
H        7.63118239       9.93972864       2.08055334      -0.00388645      -0.00156970       0.01272160
N        5.61615778       0.30586061       7.96865955       0.00727940      -0.00157934      -0.01594773
H        5.43146939       1.26221482       7.69180840      -0.00353333      -0.00713388      -0.02770221
H        6.35729839       0.33908010       8.65864295       0.00209242       0.01643997      -0.01122417
H        4.79722179      -0.05204905       8.45566842       0.00932668      -0.00713486      -0.01630624
N        1.42525701       8.71002037       6.42688404       0.00243983      -0.00594145       0.02421876
H        0.91318584       9.39939584       6.96943161       0.00742151      -0.00736916       0.03080039
H        1.21124429       8.91431225       5.45629060       0.00264328       0.00470902       0.02645460
H        2.41608251       8.90731381       6.55546636       0.00377136      -0.01097096       0.02376934
N        8.15866263       2.19089483      12.44470557       0.01338911      -0.03709198       0.01981279
H        8.09681688       3.08640445      11.97453272       0.00172681       0.01566379      -0.01831739
H        7.20281469       1.90615489      12.66873041      -0.01488343      -0.00214821       0.00433401
H        8.48171900       1.52523495      11.75040705      -0.00289030      -0.01538873       0.00416559
N       10.13807304       6.98755933       4.61490762      -0.00046402       0.00172667      -0.00569325
H       10.79418460       7.06253932       5.38425113      -0.01063521       0.01090773       0.00179670
H       10.64925227       7.27607726       3.78924619       0.01365841      -0.01925081      -0.00412873
H        9.90504724       6.01005424       4.47711189      -0.00852592       0.00174366       0.01023725
N        2.78505425       6.19714191       5.28730565      -0.00333643       0.00271326      -0.00114328
H        3.73991255       6.42382589       5.54287194      -0.00349403       0.00285305      -0.00030050
H        2.58492780       5.29183940       5.70488740      -0.00159975      -0.00065992      -0.00704075
H        2.20044132       6.86706511       5.78537126      -0.00396176      -0.00176866       0.00372328
N        5.10506150       4.96823102      -0.11017582       0.00631642      -0.01489256       0.00114052
H        5.88649338       4.32479884      -0.15795809      -0.00137862      -0.02498903       0.01042587
H        4.84666634       5.04341499       0.87633143       0.00348527      -0.00324081      -0.00065431
H        5.47595831       5.87008272      -0.38927015       0.01836441      -0.02218439      -0.00574229
N        9.03512692      10.28843917       8.84908094      -0.00989242      -0.00423823      -0.00782701
H        9.76965816      10.20504392       8.14457483      -0.01278439      -0.00403331      -0.01058230
H        8.56513627      11.14564572       8.57103685      -0.01563971      -0.00774239      -0.00853767
H        8.38259478       9.54847565       8.59692527      -0.00734976      -0.00871928       0.00074596
N        2.18407206      10.12673726       1.49194732      -0.00306001      -0.00066966      -0.00863290
H        1.40335576       9.86631580       2.08727877      -0.00630602       0.01416856      -0.00720748
H        2.97486685      10.22089926       2.12616219      -0.00070190      -0.01318197      -0.01004666
H        2.36545678       9.29855458       0.92782466      -0.01796212      -0.00550392      -0.00614557
N        1.45234065       3.30522329       5.94695448       0.00663880      -0.00200802      -0.00699148
H        1.30825171       3.66544221       5.01036069       0.01094285      -0.01230463      -0.01152097
H        0.57005561       3.41908736       6.44127377       0.00690421       0.00846472      -0.00928608
H        1.62748150       2.30399228       5.84886400       0.00068945      -0.00428401       0.00453306
N        7.48579954       2.98163125       5.70751177       0.00270614      -0.00099222       0.00981033
H        7.02250815       2.09584358       5.54319609       0.00590894      -0.00335988       0.01222582
H        6.83418529       3.72897188       5.47415800      -0.00048980      -0.00425338       0.00737045
H        7.66698746       3.04019823       6.70349767       0.00174914       0.00302568       0.00982647
N        8.44883503       7.09426512       1.76546279      -0.00120592      -0.00147301      -0.00410901
H        8.38989509       6.61564617       0.87139877      -0.00011814      -0.00722538      -0.00122838
H        7.51461461       7.46797927       1.93998626      -0.00152674      -0.00091024      -0.00702285
H        8.59498011       6.36099879       2.45617672      -0.00106667       0.00325130       0.00117331
