143
Lattice="13.57796744771303 0.0 0.0 0.0 13.57796744771303 0.0 0.0 0.0 13.57796744771303" Properties=species:S:1:pos:R:3:forces:R:3 energy=-2143197.75 stress="-0.000795147439930588 0.0005276101874187589 -0.0004124865081394091 0.0005276101874187589 -0.0007217255770228803 5.7971919886767864e-05 -0.0004124865081394091 5.7971919886767864e-05 -0.00020439752552192658" pbc="T T T"
Fm      13.66205824      13.02232801       7.96128109       0.00284457      -0.00558425      -0.01297325
Fm       6.72687508      13.76623224       9.34438411       0.02486049       0.02446622       0.00202310
S        2.27946212      14.66086363       2.97573966       0.02804442      -0.00450640       0.01930791
S        3.61662509      13.38187908       2.42763691       0.02240156       0.00930104      -0.02398077
S        6.89930584      11.49607151      10.85906877       0.00246024       0.01238564      -0.00585303
S        5.92153390      13.08146499      11.69795021      -0.02304535       0.00576128      -0.02420822
S       12.41782418      12.40047002      10.19087438       0.03280911       0.01630093       0.00689030
S       14.03639437      13.61716182      10.46800163       0.03366896       0.02202433      -0.02697456
C       11.22937498       9.81363562       6.87181980      -0.00592318      -0.01211256       0.00309467
C        9.84099356       9.85371058       6.98715119      -0.00345466      -0.00856939       0.00144488
C       11.86077777       8.57655349       6.75646119      -0.00450593      -0.00951194      -0.00096278
C       12.03844159      11.06448984       6.99076001      -0.00401163      -0.01036564       0.00068737
C        9.10091190       8.67909655       7.00647298      -0.00787228      -0.01352614      -0.00506139
C       11.12108396       7.40168055       6.78085719      -0.01043609      -0.01364847      -0.00749792
C        9.73764537       7.44638978       6.91229404      -0.00578810      -0.00849485      -0.01040976
H        9.34305081      10.81221002       7.08851680      -0.00750259      -0.01321031       0.00393163
H       12.94104866       8.53823401       6.66756940      -0.00725894      -0.01460985      -0.00022943
H       13.00067838      10.97815667       6.47502926      -0.00125705      -0.01539493       0.00675755
H       11.50954092      11.94591342       6.61448308      -0.00018958      -0.01394065      -0.01207042
H       12.23046089      11.23929798       8.06837345      -0.00941356       0.00081849      -0.00032566
H        8.02474599       8.72557922       7.11647921      -0.00558223      -0.01036957      -0.00683245
H       11.62935151       6.44774350       6.71253823      -0.00899967      -0.01131353      -0.01091975
H        9.16095227       6.53090124       6.95877771      -0.01015765      -0.01061939      -0.01592834
C        3.75389078      11.36900875       7.19136803       0.00677310       0.01689265       0.00201553
C        2.62609819      12.17125845       7.01200043       0.00976475       0.01690960       0.00220471
C        4.08496872      10.46188527       6.18214122       0.00521199       0.01116061       0.00208137
C        4.58666169      11.48151775       8.42954109       0.01238477       0.01419830      -0.00272861
C        1.86381457      12.08787407       5.85060853       0.00676998       0.01744077       0.00420666
C        3.32230406      10.36857275       5.02552652      -0.00035007       0.01195800       0.00620440
C        2.21127049      11.18563788       4.85045445       0.00422135       0.01166503       0.00514686
H        2.41017410      12.89171816       7.80526103       0.01104805       0.02081696       0.00173642
H        4.96472136       9.83774130       6.30211026       0.00272226       0.01119360       0.00197272
H        5.65822169      11.51795732       8.20551398       0.01066123       0.01592423      -0.00830343
H        4.33098580      12.36304329       9.02895218       0.01398309       0.01274931       0.00021438
H        4.46051446      10.62151094       9.09109047       0.01654446       0.01253310      -0.00450028
H        1.03616791      12.77191423       5.65855846       0.00958573       0.01794078       0.00128071
H        3.61081435       9.68388925       4.23627233      -0.00330901       0.00695665       0.00686760
H        1.64893979      11.15060470       3.92700711       0.00217666       0.01310802       0.00609642
C       11.86415523       3.50886497       1.83199328       0.00215453      -0.00408250      -0.00170835
C       11.10471358       2.34244906       1.73844643       0.02377588      -0.00686485       0.00294515
C       11.18879978       4.72400963       1.95346028       0.02888949      -0.00653529      -0.00924120
C       13.36110517       3.46656660       1.77497852       0.01123676      -0.00855499       0.00026752
C        9.71595389       2.38752523       1.72862604      -0.00958312       0.00246622       0.00193137
C        9.80332428       4.77361631       1.95168604      -0.00755712      -0.00214858      -0.01090143
C        9.05928517       3.60587137       1.82707365       0.02550754      -0.00489610      -0.00541433
H       11.61154840       1.38718343       1.67182984       0.00259975      -0.00351096       0.00869814
H       11.76019232       5.64055127       2.05684620       0.01075703      -0.00767827      -0.01445638
H       13.80653863       4.18765577       2.46278807       0.00991895      -0.01115501       0.00290628
H       13.74960337       2.47735348       2.01592657       0.00937147      -0.00872755      -0.00218719
H       13.72035119       3.71534776       0.77199229       0.01206288      -0.00526839       0.00176582
H        9.14483264       1.47015902       1.65358506       0.01030789      -0.00252271       0.00591743
H        9.30118287       5.72298870       2.07468457       0.01478996      -0.00302626      -0.01776178
H        7.97761155       3.64265995       1.83850055       0.00486399      -0.00034044      -0.00654282
C        7.79706307       2.49498100       4.93612074      -0.00004622      -0.00783396       0.00151268
C        8.43186455       1.26667323       5.12533523      -0.00176368      -0.00660573      -0.00433921
C        8.55667580       3.65762159       5.06985568      -0.00561781      -0.00645658       0.00067304
C        6.34258088       2.56081917       4.57689934      -0.00309950      -0.00885772       0.00352237
C        9.78578821       1.20208801       5.43137480       0.00599840      -0.00513961      -0.00544884
C        9.90770190       3.59869920       5.38268432       0.00251400      -0.00628364      -0.00122659
C       10.52944594       2.36946023       5.56084630      -0.00214177      -0.00436592      -0.00619157
H        7.86269020       0.35249230       4.99463969       0.00356013      -0.00726433      -0.00434516
H        8.09245291       4.62129888       4.88850309      -0.00371048      -0.00769453       0.00558198
H        6.11982310       3.47780560       4.03191251      -0.00512332      -0.00567934       0.00956960
H        6.03308436       1.71414612       3.96225141      -0.00035954      -0.00638682      -0.00098753
H        5.70763738       2.54979503       5.46810748      -0.00472766      -0.01749631       0.00224024
H       10.26301073       0.23648319       5.54742559       0.00395895      -0.00479336      -0.00931405
H       10.48123741       4.51463446       5.45422181      -0.00271723      -0.00478661      -0.00190942
H       11.59022026       2.32524061       5.77322232       0.00260728      -0.00319735      -0.00766422
C        3.17891720       2.83840944      11.93953251       0.00329587       0.01884161       0.00035264
C        4.01699358       3.58285786      12.76842784      -0.00812988      -0.01776048       0.00058377
C        2.47199279       3.50206613      10.93708423      -0.00682805      -0.02577400      -0.00260434
C        3.04250203       1.36899337      12.15447944       0.00741757       0.00460759       0.00286268
C        4.13950263       4.95309921      12.60584140      -0.00630243       0.04157135      -0.00850449
C        2.58679885       4.87706737      10.77798923       0.00021266       0.02947783      -0.00280900
C        3.42141777       5.60973937      11.61314980      -0.01502676      -0.01809287      -0.00696519
H        4.57291134       3.06420325      13.54325516      -0.00604585       0.01816442      -0.00136945
H        1.82321277       2.92874268      10.28382971       0.00361369      -0.00116342       0.00056149
H        2.88037666       0.82192231      11.22637367       0.02120359       0.00398137       0.00301817
H        3.93723233       0.97097363      12.63006138       0.00422785       0.01382817       0.01483025
H        2.19242968       1.14340111      12.80469222       0.00159571       0.00311971      -0.00656575
H        4.80716897       5.50767013      13.25133136      -0.01503851       0.01056404      -0.00662357
H        2.02947549       5.37928588       9.99652351      -0.00746970      -0.00474752      -0.00465886
H        3.51959254       6.68019100      11.48295222      -0.01336600       0.01541461      -0.00951277
C        4.93528152       5.93120351       3.42019171      -0.00112885       0.00237555       0.01043566
C        5.60053825       5.48381894       2.27895844      -0.00556062       0.00123115       0.01182190
C        5.42681542       7.06984735       4.06429175      -0.00517947      -0.00160994       0.01460777
C        3.73018334       5.20664606       3.94133016      -0.00300720       0.00126897       0.01002295
C        6.70573419       6.16256607       1.78067636       0.00232056       0.00489365       0.01218255
C        6.54332501       7.74207756       3.58026533       0.00198214       0.00105930       0.01373396
C        7.18255420       7.29429063       2.42945717      -0.00286731      -0.00109266       0.01729103
H        5.23073867       4.60056072       1.77070904      -0.00296055       0.00541807       0.00871755
H        4.91636982       7.43306887       4.95006494      -0.00238972      -0.00100904       0.01292430
H        2.93093108       5.90443806       4.19600907      -0.00623742       0.00074266       0.00030217
H        3.34841529       4.49110193       3.21290287       0.00316310      -0.00533991       0.01369044
H        3.96747957       4.64625470       4.84932571      -0.00567007       0.00920379       0.01537293
H        7.19188147       5.81053658       0.87816790      -0.00092580       0.00364737       0.01355639
H        6.90888074       8.62596003       4.08894582      -0.00095576      -0.00221337       0.01750326
H        8.03289410       7.83482640       2.03282984       0.00228878       0.00052056       0.01809425
C       11.21010903       2.50608640      10.58068733      -0.01371954       0.00636028      -0.00915261
C       10.63653245       2.20832898       9.34410481      -0.02450374       0.00296074       0.00210446
C       10.72183469       1.85677643      11.71549512       0.00106780      -0.00272379       0.00030363
C       12.34863979       3.47163851      10.71661744      -0.02071354       0.01333088      -0.01541336
C        9.66575295       1.21907292       9.22823333      -0.01412249      -0.00264731       0.00539129
C        9.75619245       0.87338934      11.60765655       0.01268354      -0.00772117       0.00334619
C        9.25422851       0.52383043      10.35823573       0.00227858      -0.01429108       0.01393102
H       10.97773905       2.73440871       8.45847389      -0.04057091       0.00971525      -0.00412779
H       11.13508091       2.10285534      12.68583178       0.01233497      -0.00092173      -0.00739431
H       13.07621013       3.09023866      11.43413469      -0.01151937       0.01863652      -0.02303638
H       12.86573435       3.61494305       9.76847946      -0.03007466       0.01869602      -0.02020128
H       12.01233945       4.44844185      11.07318683      -0.02476749       0.01039332      -0.01224060
H        9.27688334       0.97437583       8.24141403      -0.02197750      -0.00793390       0.01146741
H        9.41398075       0.33942011      12.48460647       0.02240651      -0.01348931       0.00958160
H        8.68436656      -0.40830794      10.31053844       0.01109365      -0.01737479       0.01386858
C        6.48584167       6.47173514       9.26334238       0.00189506      -0.00815390       0.00372513
C        6.53434340       5.42411916      10.18439079       0.01143684      -0.00767494       0.00370353
C        6.38342721       6.14736500       7.91001997      -0.00754678      -0.00767177       0.00496797
C        6.54518503       7.90194463       9.71754737       0.00188410      -0.00780246       0.00307997
C        6.48478749       4.09824273       9.77199628       0.01391807      -0.00837302       0.00292695
C        6.34021755       4.82406503       7.48804141      -0.00723490      -0.00824834       0.00457910
C        6.39421685       3.79318082       8.41921562       0.00339403      -0.00753316       0.00422709
H        6.59196517       5.65313299      11.24143776       0.02039801      -0.00797542       0.00261258
H        6.33874184       6.94213344       7.17266050      -0.01657265      -0.00815143       0.00557787
H        6.17847890       8.58242006       8.94845090      -0.00331058      -0.00885843       0.00478038
H        5.95150535       8.06791748      10.61752250       0.00642294      -0.00851671       0.00598741
H        7.56844460       8.20588334       9.95421764       0.00253475      -0.00596439      -0.00265597
H        6.50177803       3.30500353      10.51203764       0.02372591      -0.00826382       0.00274056
H        6.26609252       4.60493954       6.43185714      -0.01544265      -0.00807412       0.00559273
H        6.36746795       2.75466641       8.08952322       0.00131580      -0.00752551       0.00320560
C        3.59428240       9.42391820       0.17546488      -0.01343477      -0.00683801       0.00347436
C        3.97506380      10.75136591       0.03261164      -0.00583425       0.01729986      -0.00459251
C        2.23401877       9.10720219       0.14307747      -0.00202882       0.01189733       0.00360316
C        4.62579114       8.36468165       0.39003667      -0.00301656       0.00909734       0.00175110
C        3.02207736      11.74948762      -0.12438890      -0.01454255      -0.00867599      -0.00644429
C        1.27870420      10.10392984      -0.02493086      -0.01051489      -0.01479711       0.00100288
C        1.66903740      11.42891885      -0.15767288      -0.00496086       0.01192757      -0.00837946
H        5.02683044      11.01288581       0.02187065      -0.01207902       0.00592481      -0.00469307
H        1.92761106       8.07076478       0.23586818      -0.00588379      -0.00062644       0.00934044
H        4.34050507       7.43371469      -0.09209392      -0.00561623       0.00537710       0.00451502
H        5.59836890       8.67598384       0.00860241      -0.00680301       0.00733733      -0.00314228
H        4.74528832       8.14807884       1.45274644       0.00059509       0.00949107       0.00175458
H        3.35063994      12.76362255      -0.26664956      -0.01300590       0.00540403      -0.01543266
H        0.22792024       9.84374534      -0.06957192      -0.00476138      -0.00321233       0.00041641
H        0.93238703      12.20246499      -0.32547697      -0.00936523      -0.00597697      -0.01180217
