150
Lattice="12.906849867826145 0.0 0.0 0.0 12.906849867826145 0.0 0.0 0.0 12.906849867826145" Properties=species:S:1:pos:R:3:forces:R:3 energy=-2260352.75 stress="0.0006180841592140496 -0.000193095846043434 0.00011710957551258616 -0.000193095846043434 -0.0005310433334670961 -0.0006703475664835423 0.00011710957551258616 -0.0006703475664835423 -0.0007273246301338077" pbc="T T T"
Fm       8.85729416      12.05030876      10.19432780      -0.01296039      -0.00725269       0.00835060
Fm      10.04830514      11.94721675       6.54744637      -0.01698092       0.00053501       0.00428101
P        7.17126201      11.54342095       7.89341288       0.00003859      -0.00799978      -0.00392663
O        7.43986898      12.40999977       6.51442605       0.02285653      -0.00654742      -0.00730360
O        6.13924211      10.50680854       7.66899180      -0.00631565       0.00280392      -0.02178210
O        6.95633420      12.55231515       9.03091254      -0.00407624      -0.00449353      -0.00952220
O        8.63083276      11.01045374       8.12890591      -0.00682142      -0.01763803       0.00957374
H        6.63124120      12.64882486       6.04100361       0.03252089      -0.00328627      -0.01488222
P        5.22128484      11.83797206       1.31819526       0.01885009      -0.03548767       0.00890995
O        4.50291176      12.10422522      -0.05174976      -0.01285109      -0.00368362      -0.01223968
O        5.82976617      10.48665176       1.39402041      -0.01203990       0.02508140      -0.00691226
O        3.69337146      11.66058092       2.27778940       0.00335068      -0.00097813      -0.00157119
O        5.87802835      13.05024403       1.83533904      -0.00264379      -0.00056589      -0.01579490
H        4.42696266      11.25312090      -0.60025367      -0.00789467      -0.01657589      -0.00269353
P       11.43022437       9.98284284       4.86261828      -0.01773888       0.01372451      -0.01049745
O       10.54037904       9.76575187       6.29732616      -0.00899747       0.00095126      -0.00656664
O       11.45347245      11.57150625       4.94580721      -0.02061409       0.01396573       0.00008029
O       10.58143949       9.46761270       3.74565394      -0.02648234       0.02141690      -0.00854254
O       12.76924183       9.35898429       5.10146468      -0.01568210       0.01611799      -0.02393848
H        9.82368045       9.07941443       6.22019316      -0.00666560      -0.00188571      -0.00639240
S       10.17086402       1.70754498       2.92603644       0.00226414      -0.00589621      -0.00328708
O        9.87449551       2.87348636       2.04215826       0.01413098      -0.00126374      -0.00082749
C        8.78537499       1.50457350       4.06363189      -0.00725013      -0.00245899      -0.01417032
C       11.37081510       2.32303151       4.12585331      -0.00339246      -0.01776159       0.00898641
H        7.94814289       1.10059494       3.49325196      -0.00287677      -0.00097732      -0.02165577
H        8.50754639       2.48044028       4.46440907      -0.00774338      -0.00116429      -0.01740303
H        9.06991221       0.78616777       4.84059096      -0.01513269      -0.00225806      -0.01079896
H       11.64291259       1.52184464       4.81478309      -0.01312322      -0.02356464       0.00618415
H       10.94004382       3.19210940       4.62596524      -0.00318146      -0.01840843       0.01035817
H       12.24231836       2.62403516       3.54811507       0.00257932      -0.01887044       0.01710770
S       10.33144548      11.96545448       0.35457961      -0.00010431      -0.00412750       0.00651395
O       10.18391965      11.21221332      -0.97610747      -0.00621165      -0.00139445       0.00510025
C       11.61194510      11.10870068       1.26517523       0.00630543      -0.00570032      -0.00381994
C        8.94727063      11.44617272       1.35908038       0.00623238      -0.00876868       0.01286367
H       12.54448729      11.22927214       0.71798580       0.00302408      -0.00334598      -0.00853375
H       11.33986080      10.06553024       1.41476624       0.00696419      -0.00617886      -0.00606838
H       11.66855622      11.58373904       2.24648792       0.01044906      -0.00889879      -0.00268862
H        9.06900577      11.87823752       2.35030009       0.02383427      -0.03323615       0.02185553
H        8.93306919      10.36111642       1.43735612      -0.00182436      -0.01043549      -0.00971426
H        8.03991431      11.83160313       0.90280581       0.00398898       0.00803243       0.03032377
S        2.69290165       2.68353875      10.56401334       0.00016928      -0.01496935      -0.01581216
O        3.38406286       3.32467044      11.72111592      -0.00896865      -0.01347995      -0.01076198
C        3.66191847       1.24384946      10.09693087       0.00606483      -0.01303807      -0.01048444
C        3.08257457       3.71229614       9.13146207       0.00778317      -0.01435393      -0.01308489
H        3.67476635       0.59286904      10.96938174      -0.00288987      -0.01671177      -0.01311475
H        4.67889012       1.53277067       9.83679786       0.00877841      -0.01145114       0.00129218
H        3.17732275       0.73750130       9.26257072       0.01492672      -0.00886280      -0.01801630
H        2.71241051       3.24218652       8.22108096       0.01662022      -0.01626032      -0.01569914
H        4.16218480       3.85089469       9.08179423       0.00781524      -0.01049488      -0.00499012
H        2.58650411       4.66824956       9.29157380       0.00318895      -0.01627719      -0.01662777
S        4.13458368       3.12225907       4.48384563       0.00980532       0.01437008       0.01098436
O        5.14217315       2.36094705       5.26748827       0.00732911       0.01661026       0.01835251
C        2.59421107       2.14821122       4.44656744       0.01055884       0.01345193       0.00904000
C        4.48966713       2.91288340       2.73426610       0.01625337       0.00616045       0.01336879
H        2.39603433       1.81831099       5.46394630       0.00204839       0.02313027       0.01051530
H        2.72772879       1.28851038       3.79587292       0.01650488       0.00739454       0.01834084
H        1.78831597       2.78723530       4.08588730       0.01339385       0.01005706      -0.00378376
H        3.60888920       3.18774186       2.15341022       0.01740748       0.00228479       0.00914292
H        4.77443485       1.87393212       2.55653946       0.01804487       0.00628638       0.01828464
H        5.30042334       3.58368408       2.46100479       0.01574054       0.00721398       0.01306418
S        7.53111553       5.22233651       2.69006649       0.00386667       0.00718592      -0.00277162
O        7.90548508       4.59666677       3.99780737       0.00056887       0.00548846      -0.00186050
C        8.97882432       6.07848162       2.02569268       0.00670373       0.00383884      -0.00064188
C        6.60400956       6.70838519       3.11793259       0.00529259       0.00810814      -0.00506687
H        9.74373925       5.31127508       1.91764577       0.00621888       0.00285169       0.00287023
H        9.31219510       6.87753281       2.68688476       0.00544131       0.00540730      -0.00192273
H        8.68936570       6.47062235       1.04931784       0.00946559       0.00194025      -0.00217668
H        6.47134968       7.32018142       2.22828837       0.00298466       0.00484980      -0.00699921
H        7.15401790       7.24180365       3.89484357       0.00673659       0.01088487      -0.00791082
H        5.63141392       6.37938612       3.47964384       0.00616442       0.00883008      -0.00208701
S       10.29493746       1.84762546       9.11171510      -0.02567246      -0.00325912       0.00185993
O       10.48255300       0.38417806       8.71362183      -0.03788446      -0.00311798      -0.00470841
C        8.73167318       2.29511055       8.38040550      -0.02192038       0.01667683       0.00559238
C       11.41469871       2.77665517       8.06211295      -0.01396257      -0.01475133       0.00504506
H        8.00577170       1.59639800       8.80876538      -0.02591224       0.01764616       0.00002258
H        8.77221683       2.15595712       7.29891375      -0.02423787       0.02747133       0.00429040
H        8.49142951       3.32352285       8.64322687      -0.01219627       0.01652072       0.01663128
H       11.20404268       3.83641306       8.21367040      -0.00124504      -0.01241072       0.00541550
H       11.26660789       2.49805984       7.01903543      -0.01582277      -0.01328877       0.00479728
H       12.42970137       2.55548456       8.38704387      -0.01771751      -0.02877231       0.00709511
S        8.06697251       1.85490104      12.66590501      -0.01146019      -0.00271368       0.00589490
O        8.29255276       0.84354312      11.53808133      -0.01233321      -0.00233656       0.00588608
C        6.47776214       2.59115926      12.32440563      -0.01305783      -0.00351885       0.00850303
C        9.10851083       3.23675378      12.22220650      -0.01563808       0.00079530       0.00586472
H        5.72418940       1.83538485      12.53114053      -0.01249364      -0.00396836       0.00808375
H        6.44634155       2.91641735      11.28585067      -0.01392899      -0.00202615       0.00902060
H        6.33604789       3.44454967      12.98904568      -0.01323228      -0.00436278       0.00949976
H        8.88839855       4.04810352      12.91020313      -0.01564693      -0.00194642       0.00898866
H        8.88752354       3.54133179      11.20225721      -0.01916708       0.00413186       0.00741419
H       10.13721069       2.91359320      12.35703242      -0.01444086       0.00347349       0.00281902
S        9.62272607       6.54510443       5.58176189       0.00528353      -0.00394368      -0.00468743
O        8.88133185       7.72883742       6.15673150      -0.00032920      -0.00731099      -0.00522918
C        8.98460811       5.16959765       6.54060393       0.01458335      -0.00670135      -0.00278664
C       11.29001007       6.55885216       6.27102249       0.00610387       0.00699463      -0.00710738
H        7.92332044       5.10973536       6.31643651       0.01423806      -0.01204117      -0.00001542
H        9.17174748       5.35342125       7.59906098       0.01631178      -0.00567235      -0.00327122
H        9.45362474       4.24940401       6.19910383       0.01876111      -0.00416272      -0.00368416
H       11.76361466       5.62038720       5.97876935       0.01183346       0.00988901      -0.00697754
H       11.24593810       6.64309587       7.35765130       0.00725713       0.00787612      -0.00718878
H       11.83457282       7.40090982       5.83345895      -0.00070253       0.01038727      -0.00916868
S        3.83145419       6.32170190       0.15713177      -0.00788343       0.00191653       0.00424206
O        4.96541501       5.57940312       0.77880635      -0.00508451       0.00574374       0.00622511
C        3.63143052       7.83352992       1.12358571      -0.01963887      -0.00077045       0.00538546
C        2.30561836       5.55750594       0.74408258      -0.00508261      -0.01126659      -0.00651205
H        4.55473617       8.40747401       1.06815868      -0.02152784       0.00356141       0.00911564
H        3.42441356       7.53775819       2.15179493      -0.02402401      -0.00008053       0.00517145
H        2.81728440       8.42780657       0.70916715      -0.01989135      -0.00446424       0.00048938
H        1.46191238       6.18667747       0.46284292      -0.00778928      -0.01745111      -0.01311586
H        2.37087166       5.46742300       1.82946089      -0.01456743      -0.01341110      -0.00595970
H        2.24204469       4.58293118       0.26708367       0.00651830      -0.01035514      -0.00969997
S        5.71312207       9.12284462      11.64221356      -0.00371325      -0.01245952       0.00415069
O        4.46286472       9.95727381      11.46063993      -0.00614738      -0.01862556       0.00727960
C        7.11577051      10.19470326      11.23463899      -0.00805384      -0.00507462       0.00560519
C        5.77150796       8.07432313      10.19575371       0.00245861      -0.00560570      -0.00243711
H        6.88654101      11.17861198      11.65065541      -0.00990998      -0.00800876       0.01153487
H        7.19790653      10.26330590      10.14852589      -0.01103252      -0.00007800       0.00574176
H        8.02724066       9.81340848      11.69659229      -0.00515070      -0.00325581       0.00127918
H        6.60531803       7.37848765      10.31057157       0.01044007       0.00263093      -0.00995360
H        5.84710515       8.69016575       9.29709134      -0.00747134      -0.00030056       0.00094317
H        4.83707029       7.51610222      10.21880092       0.00820372      -0.01567175      -0.00126058
S        3.63572922      11.35516523       3.77922242       0.00702083      -0.00255767      -0.00446105
O        4.27035611      12.32264289       4.61745995       0.01901318       0.02203736       0.00089142
C        1.90944089      11.18827020       4.04293641       0.01353723       0.00692231       0.01236282
C        4.32082713       9.75258175       4.00708890       0.02052444       0.01204586       0.01123926
H        1.47205299      12.18353917       4.03018129       0.01149635       0.00493994      -0.00125783
H        1.75052904      10.70068527       5.00585677       0.02137582       0.02045257       0.02012819
H        1.49387775      10.56686651       3.25384486       0.01060277      -0.00808671       0.02307236
H        3.59927529       9.02697728       3.64069583       0.02154821       0.00437208       0.01754713
H        4.46043868       9.66635957       5.08122516       0.02833473       0.01905021       0.00903758
H        5.24241480       9.72104769       3.42715122       0.01695165       0.01297616       0.00423996
S        3.31984622       9.27432230       7.85943585      -0.01801258       0.01259875       0.00308609
O        3.03374984      10.21669980       6.73960829      -0.01365459       0.01727259       0.00393760
C        4.13706414       7.83471031       7.11493953      -0.00754969       0.01936585       0.00282437
C        1.74705401       8.44420303       8.19290607      -0.01853144       0.00685206      -0.01340163
H        5.12714512       8.16672413       6.80406320      -0.00647070       0.02523468       0.01255151
H        3.54626305       7.49041916       6.26521833       0.00039487       0.02082523      -0.00322960
H        4.23710953       7.04017500       7.85386077      -0.01075654       0.01690997       0.00078349
H        1.92198338       7.55290110       8.79684120      -0.02070035       0.00596825      -0.01351878
H        1.26810312       8.21800484       7.23918076      -0.00844241       0.00755284      -0.01838478
H        1.13384571       9.15011285       8.74883192      -0.02630121       0.00409867      -0.01788121
S        9.57163985       6.34335308      10.19973588       0.02258527       0.00583356      -0.00535607
O        8.24952145       5.93563674      10.76823617       0.01836634       0.00315380      -0.01692057
C       10.54355398       7.03752794      11.54994960       0.01266494       0.00147679       0.00429279
C        9.32224614       7.87455881       9.30854489       0.02808592       0.00854820      -0.00214845
H       10.75560118       6.23196747      12.24947301       0.00773586      -0.00084375       0.00319173
H        9.96354975       7.82423208      12.03336378       0.00910878      -0.00005996       0.00238460
H       11.47078846       7.43927544      11.14257700       0.01560900       0.00285158       0.01220976
H       10.27919761       8.19912524       8.90538050       0.03151017       0.01008536       0.00733951
H        8.91099152       8.62185490       9.98323636       0.02131275       0.00608357      -0.00292411
H        8.64444505       7.68311875       8.47853620       0.03481640       0.00954002      -0.00815898
