146
Lattice="12.951198817543897 0.0 0.0 0.0 12.951198817543897 0.0 0.0 0.0 12.951198817543897" Properties=species:S:1:pos:R:3:forces:R:3 energy=-1431345.875 stress="-0.0005015824572183192 -0.0006034789548721164 0.0006963885098230094 -0.0006034789548721164 -0.0018817087402567267 0.0004499183705775067 0.0006963885098230094 0.0004499183705775067 -0.0016247653402388096" pbc="T T T"
Fr       6.80647119      13.06333460      11.21261986      -0.02781674       0.00572104      -0.01065388
Fr       5.32814111      13.22704265       3.34168798      -0.01225884      -0.01340383      -0.01708186
O       10.81515707       0.75093153       1.65334879      -0.03030276      -0.01379277       0.01626420
O       12.81805378       1.55922116       1.18276241      -0.03143406       0.03099155       0.01959383
O       11.76873933       0.16036265      -0.20913981      -0.02251315       0.03510976       0.01290679
C       11.82462136       0.83338092       0.88027605      -0.01696846       0.02306627       0.01340917
C        5.35064173       3.86131014       5.01982647       0.00427040      -0.00545669      -0.00360720
C        4.03172238       4.08657467       5.74555556       0.00311360      -0.00626820      -0.00572938
C        6.24651388       5.09309935       4.99084785       0.00180426      -0.00379419      -0.00828391
C        3.15125982       2.84471446       5.78831607       0.00533319      -0.00729769      -0.00206459
C        7.58078113       4.84929330       4.30111560       0.00406459      -0.00476546      -0.00334609
C        1.82477919       3.06580309       6.50271377       0.00555825      -0.00465001      -0.00263911
H        5.89177796       3.03448016       5.50055090       0.00597988      -0.00178826       0.00014305
H        5.15117508       3.53730404       3.98841226       0.00659251      -0.01041412      -0.00224915
H        3.48986659       4.91093131       5.26820519       0.00219326      -0.00862791      -0.00834058
H        4.24423630       4.41740698       6.76858127       0.00213718      -0.00299535      -0.00644726
H        5.71251474       5.90789865       4.49325843       0.00184958      -0.00751191      -0.01408128
H        6.41622619       5.43255583       6.01720080      -0.00136548       0.00212821      -0.00986707
H        2.97133927       2.48240760       4.77206126       0.00531192      -0.01204997      -0.00064605
H        3.70017739       2.04995172       6.30351376       0.00589314      -0.00424738       0.00164641
H        8.12738057       4.03383580       4.78145336       0.00452926      -0.00064661       0.00294176
H        8.21669940       5.73461438       4.33048969       0.00184682      -0.00319439      -0.00704430
H        7.43935398       4.57993558       3.25108059       0.00731608      -0.01163095      -0.00189397
H        1.98163981       3.34602187       7.54529023       0.00629243       0.00217608      -0.00456136
H        1.25160210       3.86439308       6.02922922       0.00405443      -0.00879019      -0.00751917
H        1.20761672       2.16751268       6.49030585       0.00686406      -0.00522408       0.00409568
C       10.27757279      10.85880832       5.02364644       0.00264466       0.00272659      -0.00189698
C        9.26562213      10.18088203       4.11028979      -0.00512582       0.00772545       0.00458384
C       11.36800006      11.55552991       4.23166530       0.01206386      -0.01039052      -0.00602585
C        8.25479404       9.33422408       4.86968038      -0.00834532       0.01153640       0.00467747
C       12.37767485      12.31746400       5.07785791       0.00730067      -0.00712556      -0.00299919
C        7.22669875       8.67084348       3.97069366      -0.01072097       0.01393117       0.00516561
H        9.76474068      11.57942789       5.67343806       0.00589173       0.01477671      -0.00964902
H       10.71586592      10.10718123       5.69158106      -0.01536074       0.00636524       0.01503593
H        9.79718624       9.54738558       3.39081555      -0.00835948       0.00540799       0.00569689
H        8.75660242      10.94764045       3.50751378      -0.00246449       0.01066962       0.00515424
H       11.89265932      10.79900072       3.63789920       0.01088174       0.01243302      -0.03860131
H       10.91726430      12.24224124       3.51295731       0.01567835      -0.01385251      -0.00986648
H        8.79870535       8.57144910       5.43831469      -0.01059167       0.00936069       0.00371706
H        7.74765662       9.95581746       5.61849459      -0.00691907       0.01157923       0.00545447
H       11.90629600      13.12896258       5.63820786       0.00498052      -0.00033776      -0.01288410
H       13.10470827      12.75761082       4.40062381       0.01277080      -0.01791258       0.00572407
H       12.89803797      11.66941758       5.78737712       0.00346800       0.00265616       0.01586863
H        6.65239528       9.41602474       3.41351592      -0.01149055       0.01493089       0.00755643
H        7.71120661       8.02123376       3.23662825      -0.01228687       0.01473311       0.00345847
H        6.52285376       8.06143413       4.53999785      -0.01004528       0.01291983       0.00475284
C        1.53914356       8.19054178       9.74236381       0.00493509       0.00220689       0.00144279
C        1.92340557       9.64915282       9.94569371       0.00628898      -0.00465646       0.00293377
C        2.36195488       7.49177730       8.67061656       0.01059532       0.00492337       0.00793117
C        1.13259959      10.33640867      11.05100667       0.01164767      -0.00124626       0.00103095
C        1.91427556       6.06661319       8.39223092       0.00641797       0.00819203      -0.00004150
C        1.48804327      11.80615943      11.23756954      -0.00876907       0.00514963      -0.01023808
H        1.63010720       7.64997246      10.69196123       0.00060506       0.00411597       0.00245073
H        0.48122181       8.13978516       9.46827621       0.00597164       0.00080933      -0.00460953
H        1.76951188      10.19518351       9.00462427       0.01521439       0.00070402       0.00237012
H        2.99879887       9.71580158      10.16268042      -0.00205430       0.00625980       0.02865379
H        2.30663058       8.07412968       7.74683340       0.02099551       0.00701827       0.00885108
H        3.41869608       7.48987834       8.96100174       0.00841334      -0.00224348       0.01521540
H        0.06640828      10.25479393      10.82847713       0.00278306       0.00473109      -0.01561715
H        1.28695231       9.79591371      11.99116257      -0.02387249      -0.01748835       0.00030130
H        2.01731962       5.43741181       9.27882889      -0.00449823       0.00499137      -0.00086410
H        2.50313722       5.61705953       7.59458084       0.00798269       0.00437386       0.00262877
H        0.86622114       6.03145073       8.08949544       0.00802389       0.01588468      -0.00623113
H        2.47755372      11.90644128      11.70148173       0.01443332       0.03499809       0.00066173
H        1.50763246      12.32782697      10.27556583       0.01791849      -0.02364209      -0.00336719
H        0.74900145      12.31214996      11.86266491       0.02935353       0.00120016      -0.00927891
C       10.83677234       9.29215562       8.62826185       0.00005877      -0.00025304       0.00001033
C       10.09360495       7.96652312       8.57893701      -0.00088775       0.00151811       0.00509209
C        9.90900095      10.49895009       8.60658077       0.00375330      -0.00085744      -0.01318854
C       11.01742045       6.75787713       8.58058690       0.00112945       0.00408439      -0.00224834
C       10.66842086      11.82738448       8.59875893       0.00251351      -0.00417230      -0.01412199
C       10.26473250       5.43972843       8.54159766       0.00371522       0.00366744      -0.00671952
H       11.45786287       9.32893660       9.52886720      -0.00675584       0.00730081       0.00338781
H       11.52401664       9.35372245       7.77746947       0.00512835      -0.00748681       0.00337422
H        9.45860590       7.93833916       7.68459921      -0.00662321       0.00264206       0.00921562
H        9.41663273       7.89887625       9.43708550       0.00510867       0.00256015       0.00965896
H        9.26818157      10.42806212       7.72223940       0.00177750      -0.00983680      -0.01195103
H        9.25557489      10.43209004       9.48195790       0.00560810       0.02023924      -0.01288727
H       11.69683978       6.82461019       7.72482151      -0.00187247       0.01117353      -0.00399202
H       11.64842355       6.78921268       9.47401284       0.00397342       0.00239766      -0.00429589
H       11.00346097      12.08856063       9.60082467      -0.02114930       0.02560312      -0.01698971
H       10.08202352      12.64189790       8.16661763      -0.02440009      -0.02372335      -0.01312844
H       11.55628496      11.74925950       7.96821848       0.01793817      -0.01920404       0.01013048
H        9.58667134       5.35911111       9.39504332       0.00582293      -0.00058514      -0.00559571
H        9.66007964       5.35359818       7.63520889       0.00195144       0.00844964      -0.00589435
H       10.94010123       4.58285111       8.57336463       0.00511703       0.00495623      -0.01254211
C        5.33496143       4.69030481      10.16874463      -0.00159901       0.00514697      -0.00224525
C        6.61696785       3.88329672      10.01497469       0.00392756       0.01124458      -0.00388309
C        5.02506048       5.02099584      11.62562924      -0.00401965      -0.02270091       0.01659232
C        6.94042372       3.47529332       8.58193509       0.00070146       0.00452150      -0.00365174
C        3.75876548       5.84425908      11.80193130      -0.00542635       0.00367332       0.00503332
C        8.20397870       2.62993898       8.46808390       0.00092706       0.00370097       0.00306052
H        5.41544751       5.61751563       9.59000616      -0.00962377       0.00165203      -0.00171854
H        4.49562750       4.13588725       9.73197990       0.00192985      -0.00505684       0.00096870
H        6.52874613       2.98467698      10.64206604       0.01848363       0.01336072       0.00079295
H        7.45509078       4.45556286      10.42909416       0.00340459       0.01714873      -0.01350696
H        4.92936536       4.08981833      12.19649529       0.01870233      -0.04188937      -0.01055044
H        5.87828516       5.55110355      12.06115984       0.00689331       0.00516813       0.00076021
H        6.08168372       2.94238203       8.15644646       0.00155422      -0.00012875       0.00067487
H        7.05929508       4.38017740       7.97790854       0.00069480      -0.00015232      -0.01073989
H        3.81350037       6.77866660      11.23930267      -0.00806895       0.00863567       0.00917149
H        3.58575061       6.09571562      12.84862263       0.00383976      -0.01563147       0.00780061
H        2.88340686       5.30180930      11.43997641       0.00433214      -0.00692950       0.00540237
H        9.07795281       3.19619924       8.77875039       0.00195891       0.01085900      -0.01356510
H        8.18291367       1.74891647       9.11015870       0.00272563       0.01732339       0.02294603
H        8.38274874       2.29159314       7.44469020      -0.00527096      -0.01448930       0.00807947
C        5.51935531      11.02468884       8.59557774       0.01078413       0.00002360      -0.00325733
C        5.92573145       9.64012192       9.08866653       0.01210185      -0.00010431      -0.00445330
C        4.77291176      10.98862894       7.26551735       0.00799373      -0.00178573      -0.00182816
C        6.57466923       9.61946145      10.46828502       0.01118714      -0.00173369      -0.00430062
C        4.37853472      12.37875952       6.78943378       0.00469032      -0.00346681      -0.00268695
C        6.85904427       8.20448304      10.95043499       0.00447842      -0.00360379      -0.00524764
H        4.87240661      11.51423582       9.33416841       0.01174650      -0.00083680      -0.00206855
H        6.41184471      11.65656401       8.48150183       0.01019967       0.00137497      -0.00539551
H        6.60302483       9.17987196       8.36070231       0.01238669       0.00098008      -0.00497171
H        5.03663538       9.00246196       9.11288041       0.01217946       0.00026667      -0.00317550
H        5.39215860      10.48744755       6.51468328       0.00745611      -0.00125060      -0.00235076
H        3.87714468      10.37281383       7.37748051       0.00952640      -0.00367130      -0.00036016
H        7.51053652      10.18683773      10.46959102       0.01248729      -0.00331765      -0.00490994
H        5.91095074      10.10500854      11.19214079       0.01102051      -0.00094946      -0.00512832
H        3.69830465      12.85456366       7.49920427       0.00318010      -0.00559124      -0.00329842
H        3.85900862      12.35823766       5.83132773       0.00654422      -0.00557634      -0.00310901
H        5.25568341      13.02788556       6.69774659       0.00282571      -0.00164746      -0.00424244
H        5.93096067       7.64122499      11.04562314       0.00072607       0.00338804      -0.00341361
H        7.49604373       7.67237148      10.24361946      -0.00249673      -0.00779073      -0.00804836
H        7.35371371       8.20357499      11.92153810       0.00722685      -0.00968462      -0.00687864
C        3.54356233       9.13652384       3.05476063      -0.01702052      -0.00866354       0.00456432
C        2.16712874       8.83407053       3.61905070      -0.01548341      -0.00663769       0.00565612
C        3.64976775       8.86044555       1.56457786      -0.01716608      -0.00120763       0.00211102
C        2.03942449       9.16197712       5.09857576      -0.01166722      -0.00500305       0.00494456
C        5.04838872       9.10052283       1.02795392      -0.01138878      -0.00027227       0.01471832
C        0.66689762       8.81114445       5.65186290      -0.00603536      -0.01321387       0.01201795
H        3.79382258      10.19314414       3.24102626      -0.01170929      -0.01077831       0.01026199
H        4.29685546       8.54903293       3.59093905      -0.01704703      -0.01417814      -0.00217709
H        1.93813572       7.77417888       3.45933285      -0.01613345      -0.00591481       0.00512494
H        1.40998255       9.39398020       3.05893862      -0.01336716      -0.00689004       0.00450923
H        3.34749548       7.82890228       1.36570013      -0.02200992       0.00050724      -0.00685461
H        2.93215378       9.49044238       1.02992937      -0.01302043       0.00907895       0.00403808
H        2.82108412       8.63040373       5.65339796      -0.00531268       0.00149477       0.00159998
H        2.23282516      10.23133699       5.24628846      -0.01828194      -0.00365335       0.00213579
H        5.41195854      10.09049317       1.31992196      -0.00995331       0.00364423       0.02864751
H        5.07579031       9.02626596      -0.05833152      -0.00672579       0.01691939       0.01398721
H        5.75292227       8.36504681       1.41654435      -0.01715791      -0.00905663       0.00758451
H       -0.11494806       9.30739825       5.07456928      -0.01266220      -0.01885426       0.01637831
H        0.48812088       7.73466309       5.59562176       0.00094477      -0.01428118       0.01488228
H        0.55771973       9.11658002       6.69375505      -0.00172259      -0.01304964       0.01216610
