147
Lattice="12.962345142594701 0.0 0.0 0.0 12.962345142594701 0.0 0.0 0.0 12.962345142594701" Properties=species:S:1:pos:R:3:forces:R:3 energy=-880805.9375 stress="0.0012981188483536243 -0.00011309315232210793 -9.188772673951462e-05 -0.00011309315232210793 -0.0006419933633878827 -0.0010627262527123094 -9.188772673951462e-05 -0.0010627262527123094 -3.5000161005882546e-05" pbc="T T T"
Gd      11.55784970      12.33571772      10.25247174      -0.01173520       0.01089202      -0.00392947
Gd      10.03230142      10.37046096       6.39192576      -0.01152442       0.00520444      -0.00075792
S       11.57570309      11.15797197       0.03532505      -0.00535577       0.00947572      -0.00986958
O       12.33440629       9.93925204       0.32065219      -0.02392960       0.00052595      -0.01900995
O       10.64491432      10.93218894      -1.16102425      -0.01888525       0.02757293      -0.00246024
O       10.78453235      11.62260072       1.17479272       0.00468230       0.01948327       0.00254714
O       12.49250702      12.24301518      -0.48014775       0.00122857       0.00394773      -0.00927769
S        8.83989235      11.51051849       8.87492642      -0.01467961       0.00014520      -0.00575417
O       10.05325381      10.56760038       8.82089884      -0.01176119       0.00874048      -0.00110167
O        9.41146342      12.82176067       9.27492463      -0.03533420       0.00263524       0.00140625
O        8.37666673      11.56382151       7.44501545      -0.02362311      -0.01086128      -0.00135392
O        7.81054981      11.03772277       9.76418842      -0.02219093      -0.01852867       0.00504994
S       12.52109502      11.87092223       6.56525601      -0.01356027       0.00050054      -0.00653920
O       12.43202175      12.37064188       7.95580728      -0.03476219       0.01335537      -0.01019716
O       13.70960975      12.33072752       5.87746687      -0.00559103      -0.00141710       0.00457275
O       12.40910913      10.35840075       6.58794529      -0.00997695       0.00050604       0.00548086
O       11.25247029      12.29820729       5.84230234      -0.00637263      -0.00829571      -0.02578765
S       11.66504774       1.91985957       2.23544375      -0.00140738       0.00260949       0.01006812
O       11.19492392       3.22920879       1.67118962      -0.00292391       0.00320125       0.01268578
C       10.26483491       1.17983874       3.08497107      -0.00060362      -0.00244254       0.00698704
C       12.56822609       2.32854774       3.74660659      -0.00481722       0.00211820       0.01209271
H        9.58575509       0.83657180       2.31078766       0.00005881      -0.00093564       0.00586855
H        9.80309676       1.94500089       3.71114287      -0.00209537      -0.00434493       0.00825752
H       10.61465793       0.33329728       3.67474973       0.00040990      -0.00413796       0.00413891
H       12.87724571       1.40678400       4.24278215      -0.01408055       0.00272200       0.01903742
H       11.91105896       2.90808578       4.39492625      -0.00439903       0.01143732       0.00427510
H       13.43561766       2.91801246       3.45596074       0.00094169      -0.00516041       0.01458586
S        7.77310821       9.89984412       3.34578596       0.00570905      -0.00732487      -0.01107943
O        8.73771427      10.23928953       4.48533681       0.00172174      -0.00367081      -0.00848383
C        8.78847763       9.12078890       2.10488243       0.01091525       0.00506969      -0.01464945
C        7.46470423      11.43761528       2.49392363      -0.00286906      -0.00666249      -0.00678387
H        9.20469608       8.23067687       2.57134258       0.01924763       0.00781492      -0.01728462
H        9.57360293       9.81158865       1.78886674       0.00595355       0.01165178      -0.01188453
H        8.14158048       8.81319154       1.27880951       0.01357749       0.00298304      -0.01638438
H        6.90495530      11.19484429       1.59134334      -0.01497462      -0.00260206      -0.00044090
H        8.42586547      11.88552463       2.24502638      -0.00561103      -0.00670578      -0.01711155
H        6.84937326      12.06594576       3.13222069       0.00736682      -0.00575700       0.00163737
S        4.58094254       3.88034358      10.79491434       0.01037264      -0.00530776      -0.00292552
O        6.05728017       3.77912223      10.61800479       0.00982690      -0.00115268      -0.01179492
C        3.91072720       2.22082313      10.55517492       0.01314598      -0.00742990       0.00287876
C        3.93402978       4.58623466       9.26248552       0.00096183      -0.00936878      -0.00044703
H        4.20209169       1.63609722      11.42604608       0.01923425      -0.00610428       0.00175725
H        4.34378293       1.79651568       9.64904826       0.00850227      -0.00708368       0.00050358
H        2.82290249       2.26958442      10.49500573       0.01267242      -0.01006589       0.00869055
H        2.84609949       4.52772725       9.26067206       0.00109892      -0.01040695       0.00517949
H        4.36039286       4.04704012       8.41667977      -0.00414816      -0.01150686      -0.00167011
H        4.24286869       5.62982990       9.23433434       0.00052820      -0.00924990      -0.00391006
S        4.47884573       1.80303904       3.19081440       0.00678927       0.00138402       0.00236964
O        4.59400014       0.76891566       2.11981769       0.00791432       0.00475872      -0.00094450
C        3.41956345       1.16049654       4.50473177       0.00902408      -0.00430614       0.00071758
C        3.31469721       3.03051922       2.57329990       0.00403577       0.00193813       0.00830892
H        3.84199166       0.21262209       4.82744091       0.01323362      -0.00147268       0.00321353
H        2.40892620       0.98504630       4.14339471       0.01034531      -0.01036576      -0.00005583
H        3.41712089       1.88901086       5.31645698       0.00440997      -0.00288498      -0.00070696
H        3.04285463       3.71601845       3.37713567       0.00484376      -0.00034710       0.01021814
H        2.43868267       2.49971034       2.19592300       0.00375934       0.00290918       0.00803614
H        3.80163069       3.59451761       1.77963486       0.00231455       0.00303499       0.00822984
S        7.62985231       4.38976127       3.20900153       0.00030279      -0.00064510       0.00191462
O        8.56349410       4.31602583       4.39074576      -0.00214672       0.00924058       0.00454366
C        8.54490581       5.24910745       1.93150067       0.00046152      -0.00262773       0.00045294
C        6.44329209       5.69347751       3.55680344      -0.00583568      -0.00434810      -0.00744933
H        9.31998061       4.56656362       1.58647135       0.00761233       0.00041312       0.01011240
H        9.00712938       6.12205997       2.39131051      -0.00984787       0.00469362      -0.00323053
H        7.86895874       5.55932762       1.13371156       0.00272214      -0.01366923      -0.00564521
H        5.80652978       5.81757845       2.67907653      -0.00327343      -0.01199611      -0.01043138
H        6.97587102       6.61455394       3.79363174      -0.01039417      -0.00075854      -0.01105374
H        5.84053122       5.38791144       4.40908640      -0.00783646      -0.00241947      -0.00812270
S       12.99799493       2.69150704       9.12038379       0.00805143       0.00253940       0.00441480
O       12.94360175       1.38562072       9.86788060      -0.00276426       0.00159872       0.00244761
C       11.40150597       3.49713240       9.31439175       0.00763822      -0.00173521       0.00772209
C       12.85021431       2.36782086       7.35234052       0.00602588       0.00014165       0.00598335
H       11.30811493       3.80739756      10.35150903       0.01092485       0.00116640       0.00741610
H       10.61031557       2.79509297       9.05270968       0.01647483      -0.01492760       0.01617742
H       11.39769702       4.36775371       8.65837985      -0.00576199      -0.00578012       0.00311895
H       12.86695782       3.33531751       6.84939761       0.01599160      -0.00181076       0.00288463
H       11.93219833       1.82051822       7.14426535      -0.00078872       0.00907385       0.01307924
H       13.70052143       1.76185011       7.04855795      -0.00202408      -0.01149541       0.00601087
S        9.44503009       1.42390723      12.45040799      -0.00581717       0.01583447       0.00436866
O       10.54384030       1.16782926      11.43612014      -0.02262151       0.01229234      -0.01364517
C        8.00449096       0.48559449      11.93626900      -0.00673532       0.01518306       0.01284772
C        8.88531219       3.07052705      12.04308788      -0.02570838       0.01005834       0.00727442
H        8.30365121      -0.56107979      11.95993530      -0.00371482       0.01642999       0.00883216
H        7.70726863       0.75744041      10.92658871       0.00303624       0.01686422       0.01040703
H        7.21148040       0.67712571      12.66062217      -0.01019481       0.01260302       0.00962833
H        7.97444997       3.30424145      12.59010250      -0.02423987      -0.00590375       0.01707971
H        8.68855950       3.13073301      10.97426567      -0.03952185      -0.00046755       0.00918877
H        9.69210585       3.73376907      12.34948169      -0.03634083       0.02796063      -0.00429833
S        9.42419782       6.79868630       5.80878430      -0.00069219      -0.00384405      -0.00572175
O        9.82271190       8.03873660       6.61405520       0.00555152       0.00259772      -0.01759893
C        8.80560276       5.63883901       7.02260988      -0.00282481       0.00855201       0.00621194
C       10.98297682       6.01640570       5.40630501      -0.00358707      -0.01236355      -0.00212737
H        7.80814142       5.97166949       7.30015695       0.00097622       0.01797454       0.00848839
H        9.47243760       5.65092922       7.88326077       0.00092861       0.00824558       0.00339185
H        8.74515837       4.66919464       6.53529270      -0.01257571       0.00462219       0.01525642
H       10.76136476       5.14725829       4.79070537      -0.00558962      -0.01790006       0.00649513
H       11.50929481       5.76523936       6.32662065      -0.00158542      -0.00574244      -0.00147071
H       11.54826564       6.75655626       4.84336527      -0.00471665      -0.01832797      -0.01104888
S        3.60065051       6.41110183       0.15446140       0.00834703      -0.00159824       0.00248575
O        4.45199321       5.42431626       0.88219108       0.00554883      -0.00754750      -0.00183135
C        4.04097689       8.02445819       0.79815699       0.01617615      -0.00497133       0.00577796
C        1.95073832       6.31690656       0.89075041       0.00926650       0.00297961       0.00502715
H        5.02676282       8.25440745       0.39521530       0.01939172      -0.01140081       0.00987929
H        4.08056864       7.95802415       1.88587954       0.01046708      -0.00438543       0.00617072
H        3.30316217       8.76485306       0.49078686       0.02261306      -0.00062944       0.00117421
H        1.31990138       7.11624243       0.50069021       0.01085332       0.00369295       0.00363611
H        2.04768342       6.39821203       1.97374177       0.01042265       0.00581901       0.00474150
H        1.53137312       5.34858793       0.62289245       0.00726821       0.00305194       0.00748828
S        1.63010398      10.61377387      11.01868712       0.00744164      -0.00628443      -0.00322962
O        0.39052347      10.83354289      10.17512175       0.01134509       0.00837621      -0.00579321
C        2.90316378      11.50794780      10.11548529       0.02595326      -0.01835123       0.00906074
C        2.07338271       8.93029278      10.59967709       0.02416815      -0.00450158      -0.00146842
H        2.63855340      12.55748844      10.23787201       0.03689944      -0.01713248       0.01436455
H        2.84766790      11.24630975       9.06153904       0.03983410      -0.02008673       0.00869772
H        3.88986495      11.31874541      10.53504211       0.02288516      -0.02779888       0.01170387
H        3.02575538       8.65145251      11.04674664       0.03013919       0.01040908      -0.00429621
H        2.10373251       8.82599183       9.51637549       0.03238796      -0.01193320      -0.00076729
H        1.26908629       8.32465072      11.01490536       0.03964935      -0.01860362       0.00612020
S        2.93808894      10.65436811       2.67110499      -0.00944841       0.00286996      -0.00817466
O        3.72350046      11.06445527       3.87484001      -0.00537586      -0.00473797      -0.00820899
C        1.73926748      11.92412770       2.26497110      -0.00361764       0.01168114       0.00262448
C        1.73222922       9.44131972       3.25344322      -0.01294994       0.00488186      -0.01150575
H        2.30580273      12.77373105       1.89002407       0.00166619       0.01200252       0.01147081
H        1.16856239      12.17530796       3.15966844      -0.00178685       0.00606663       0.00537434
H        1.08618960      11.53342407       1.48346753      -0.00614509       0.02496477      -0.00176913
H        1.05211310       9.19303456       2.43729713      -0.01351406       0.00844942      -0.01217264
H        1.18508499       9.88738399       4.08641108      -0.01149288       0.00320137      -0.00958568
H        2.29603049       8.57077064       3.59034075      -0.01513153       0.00228778      -0.01504917
S        3.38903446       7.90018462       6.87332921      -0.00801039      -0.00915956      -0.00645638
O        4.07735232       7.37255197       5.65845842      -0.00849742      -0.01095760      -0.00596142
C        1.62281987       7.56572991       6.66012611      -0.00913566       0.00035089      -0.00886898
C        3.28029109       9.69478661       6.72088556       0.00260454      -0.00843048      -0.00471374
H        1.53017826       6.48345029       6.58604866      -0.01704099       0.00068088      -0.00290493
H        1.26614236       8.05115122       5.75404479      -0.00452581      -0.00362298      -0.01264729
H        1.06685950       7.94292981       7.51817717      -0.00753538       0.01212041      -0.01305954
H        2.41086210      10.05692869       7.26883281       0.00350867      -0.00368814      -0.00609442
H        3.19086762       9.95760739       5.66602640       0.00530628      -0.00782653      -0.00486016
H        4.19934898      10.12549846       7.11619505       0.00548680      -0.01430814      -0.00392090
S        7.86604536       7.12062645      11.41346401      -0.00170720       0.00803030       0.00103581
O        7.11984335       7.45000226      12.67713889       0.00086260       0.01308978       0.00124288
C        9.26042957       8.24311339      11.33911408      -0.00082576       0.00691825      -0.00356056
C        6.92755903       7.86474555      10.07014132      -0.00301677       0.00187013      -0.00117630
H        9.96533158       7.96025484      12.11860490      -0.00296186       0.00899939      -0.00089830
H        8.91698286       9.26250543      11.49828617      -0.00017165       0.00821850      -0.01037154
H        9.73862457       8.17229845      10.36314621       0.00117907       0.00305905      -0.00227473
H        7.48601289       7.74721432       9.14196213       0.00076599      -0.00011962       0.00152715
H        6.78859677       8.92532347      10.27560141      -0.00496360       0.00249851      -0.00540215
H        5.98055281       7.33221888      10.00893174      -0.00175773      -0.00053435      -0.00268361
