150
Lattice="12.950311845635339 0.0 0.0 0.0 12.950311845635339 0.0 0.0 0.0 12.950311845635339" Properties=species:S:1:pos:R:3:forces:R:3 energy=-876186.3125 stress="0.0009753326303325593 -0.00031478652090299875 0.00023322048218687996 -0.00031478652090299875 -0.0005771712749265134 -0.0003407683689147234 0.00023322048218687996 -0.0003407683689147234 0.0005109251360408962" pbc="T T T"
Gd       8.23882205      12.06008409      10.40600247      -0.01589144      -0.00433683       0.01329832
Gd       9.69861774      12.06586844       6.27600976      -0.02861753       0.00112388      -0.00006026
P        7.03568084      11.27801247       7.85483260      -0.01976359       0.01803851       0.00950687
O        7.21732928      12.20518372       6.48422559      -0.02580988       0.00134148      -0.00286019
O        6.34514861      10.01684877       7.54595446      -0.00748461       0.01082572       0.01252773
O        6.49534381      12.17174333       8.98607392      -0.02311970       0.00836352       0.01552194
O        8.57916743      11.18688865       8.20961876      -0.02017430       0.00509848      -0.01056375
H        6.39721279      12.34908469       5.97759058      -0.03180116      -0.01390820       0.00129384
P        5.30370670      11.90561149       1.24769953       0.03412485       0.00950816       0.00148429
O        4.47261091      12.08973318      -0.07072244       0.02261697      -0.01830052       0.01337321
O        5.86694641      10.53930193       1.38365278       0.03805509      -0.01176947      -0.01129756
O        3.88607520      11.89096798       2.36458518       0.02013433      -0.03648651       0.01756632
O        6.06408613      13.12171951       1.59256165      -0.00172485      -0.03171515      -0.00228418
H        4.29548299      11.20441538      -0.52295413       0.00135747      -0.00692144       0.00141529
P       11.36011499      10.12569273       4.72490166       0.00904411       0.01873481       0.01102632
O       10.30479030       9.93366627       6.07046146       0.01056734       0.00806993       0.01843703
O       11.20738092      11.71838221       4.77727861      -0.02158630       0.01455367       0.00276044
O       10.66458774       9.52644539       3.55001097       0.01338589      -0.00256568       0.01916897
O       12.70504499       9.64766950       5.14080077       0.01800358       0.03625315       0.00383043
H        9.76565180       9.06609496       6.10709510       0.01430388       0.00645088       0.00579269
S       10.32805761       1.82331647       2.77934522      -0.00394356      -0.01151752      -0.00492162
O       10.01684306       2.91163066       1.80479945      -0.00018701      -0.01222479      -0.00675112
C        8.84076300       1.60998365       3.80766592      -0.00230485      -0.00731677      -0.00325364
C       11.33988601       2.57893446       4.07708005      -0.00603271       0.00019407      -0.01099610
H        8.10924457       1.02132884       3.25223295      -0.00172026      -0.00335509      -0.00716160
H        8.44885257       2.60681135       4.03381514      -0.00053328      -0.00728557      -0.00221732
H        9.12099573       1.09255717       4.74007114      -0.00300761      -0.00951689      -0.00420192
H       11.57855630       1.81225080       4.81927625      -0.00220443       0.01349556      -0.00050275
H       10.78588963       3.42051436       4.49692664      -0.00403816       0.00390391      -0.01541289
H       12.25669882       2.92466050       3.60456770      -0.00462621      -0.00178424      -0.00949700
S       10.32352370      12.00425458       0.39435178      -0.00606921      -0.00744426      -0.01230285
O        9.77805103      11.51589381      -0.98219861      -0.00465548      -0.00616547      -0.01416871
C       11.71539779      10.94302374       0.75747559      -0.00611916      -0.00760269      -0.00437012
C        9.18216529      11.37733763       1.60683260      -0.01508993       0.00485894      -0.00695959
H       12.51916611      11.20043044       0.07110078      -0.00917003      -0.00650102      -0.01103371
H       11.41364952       9.90107703       0.67303402      -0.01650369      -0.00623816       0.00724811
H       11.99699974      11.14021281       1.79226105      -0.01405200       0.00397945      -0.00300756
H        9.64530027      11.51761511       2.58578427      -0.00544044       0.01084428      -0.00965692
H        9.03976432      10.30822220       1.45882864      -0.01153472       0.00189170      -0.00107784
H        8.24744413      11.93091097       1.51279946      -0.01443239       0.01216507      -0.00757239
S        2.53110031       2.51734918      10.44413058       0.00736606      -0.00805598      -0.01134360
O        3.10632726       3.04116340      11.71932307      -0.00518119       0.00176054      -0.00967205
C        3.51931261       1.09328712       9.97203933       0.01301581      -0.00889406      -0.00390518
C        3.11304382       3.63535073       9.14816693       0.00963560      -0.00954497      -0.01262420
H        3.37344888       0.34305246      10.74642127       0.01030356      -0.00763381      -0.00210725
H        4.56967014       1.37770507       9.92598245       0.01427066      -0.00983742      -0.00524735
H        3.17667670       0.71189414       9.01018752       0.01088513      -0.00975638      -0.00389738
H        2.90198200       3.21492587       8.16555274       0.00640467      -0.00859103      -0.01251253
H        4.18476329       3.78447493       9.27797977       0.01071194      -0.01345279      -0.01594371
H        2.58207375       4.57672678       9.28075811       0.01126182      -0.00866152      -0.00870752
S        4.34705379       3.32073770       4.54357573       0.00701594       0.00946033       0.01143754
O        5.35221817       2.65411894       5.41935542       0.00294578       0.02044010       0.02397645
C        2.82701106       2.32299912       4.60249134       0.00965488       0.00925666       0.01217686
C        4.73161242       2.90144252       2.83728594       0.01352654      -0.00042334       0.01543927
H        2.57820087       2.16463818       5.64956860      -0.00148970       0.02173713       0.01060885
H        3.02379511       1.37272105       4.11447641       0.00612111       0.00198714       0.02650017
H        2.02522112       2.86248526       4.09681117       0.01397609       0.00281481       0.00089305
H        3.84209567       3.01840668       2.21809912       0.01856206       0.01960895       0.01289085
H        5.09124623       1.87266035       2.80866467      -0.00318182      -0.00577438       0.00629745
H        5.48866426       3.59204549       2.47559999       0.02577811      -0.01189090       0.02078017
S        7.66226475       5.27923911       2.70652402       0.00154924       0.00054002      -0.00748479
O        8.21029739       4.68452641       3.97105343      -0.00667739      -0.00223577      -0.00562513
C        8.98360023       6.22095477       1.90829986       0.00891197      -0.00010115       0.00716895
C        6.67647762       6.69732154       3.22240996       0.00260532       0.00229985      -0.00998893
H        9.79922326       5.51249073       1.77233964       0.00659729      -0.00034910       0.00028385
H        9.30094940       7.06561354       2.52055431       0.01284385      -0.01328972       0.02127554
H        8.60279993       6.54850087       0.93818751       0.01659501       0.01911860       0.01161749
H        6.36074500       7.24511385       2.33638858       0.00905260       0.00793408      -0.00886855
H        7.27556887       7.31580191       3.89272889       0.00335477      -0.00451598      -0.00487280
H        5.80152804       6.30085786       3.73587026      -0.00122561       0.00382356      -0.01564975
S       10.51223121       1.65645250       8.85886147      -0.00957445      -0.00345594      -0.00639535
O       10.65891926       0.35516848       8.07120115      -0.02742613       0.00312185      -0.01861700
C        8.91655930       2.31345432       8.37714159      -0.00357878       0.00562154      -0.00668825
C       11.58175908       2.84694518       8.05570532      -0.00614727      -0.00488061       0.00231734
H        8.16140281       1.64574682       8.79857201      -0.00432335       0.00521436      -0.01017824
H        8.83610399       2.35489457       7.28833981      -0.00305362       0.00835230      -0.00685623
H        8.80138438       3.30737870       8.81017341      -0.01198291       0.00467114      -0.00856067
H       11.42152514       3.81896183       8.52422104      -0.01517458      -0.00753421       0.00130908
H       11.34260145       2.88017718       6.99335147       0.00813934       0.00147823      -0.00008959
H       12.60141388       2.50838440       8.22503431      -0.00488234       0.00756404       0.01103668
S        7.89727849       2.01233929      12.61585974      -0.00464882       0.00737164       0.00210088
O        7.86345874       1.04277888      11.39109497       0.01120931       0.00407392       0.00387144
C        6.37970492       2.92618325      12.47104028      -0.01477432      -0.00849816       0.00206631
C        9.03898704       3.28287647      12.10053373      -0.00996250       0.00813672      -0.00276616
H        5.55937946       2.23458842      12.64736402      -0.01012269      -0.01259933       0.01381579
H        6.32080365       3.37449032      11.47983878      -0.02206713      -0.01091903       0.00148755
H        6.37414428       3.70764188      13.23200764      -0.01360653      -0.00374909      -0.00298975
H        8.97400123       4.08135440      12.83601643      -0.00061815       0.00790493      -0.00338182
H        8.75530687       3.65372605      11.11732217      -0.02376941       0.01361176       0.00377434
H       10.03672665       2.85162653      12.13907319      -0.01006053       0.00555778      -0.01093261
S        9.77693798       6.60403565       5.66210279       0.00828284       0.00684357      -0.00411475
O        9.01060328       7.78137027       6.24551053       0.00181729       0.00267094      -0.00475198
C        9.15139769       5.22444348       6.61614161       0.00925526       0.00129420      -0.01029789
C       11.42771027       6.68484976       6.38016886       0.00923121       0.00027839      -0.00236121
H        8.08954752       5.15593283       6.39435765       0.00973406      -0.00306437      -0.01150226
H        9.33993199       5.40451341       7.67532945       0.00449930      -0.00146636      -0.00883621
H        9.63201691       4.31580268       6.26023113       0.01213222       0.00193715      -0.00864473
H       11.95559057       5.76683667       6.11793242       0.00569141       0.00187211      -0.01803541
H       11.35267682       6.79084793       7.46339555       0.00939933      -0.01219879      -0.00104527
H       11.93675095       7.54265056       5.93306588       0.00365606       0.00638315       0.00411589
S        3.66384073       6.20481623       0.38542683      -0.00745082       0.00403005      -0.00571275
O        4.86919451       5.51236884       0.93337538      -0.00283074       0.00834161      -0.01176739
C        3.34958548       7.59347185       1.49713005      -0.01114774       0.00635326      -0.01133931
C        2.22111459       5.23746997       0.86132690      -0.00160146       0.00043604       0.00212300
H        4.22973462       8.23382766       1.45424318      -0.02414928       0.02131782      -0.02405833
H        3.20220867       7.19767504       2.50382375       0.00309114       0.01786268      -0.00608081
H        2.47536444       8.15057411       1.15982053      -0.02199572      -0.01095455      -0.00727166
H        1.32253482       5.79446433       0.59617548      -0.00433200      -0.00351372       0.00412575
H        2.25946840       5.05616300       1.93672384       0.00110799       0.00218112       0.00217856
H        2.27361404       4.30967784       0.29386855      -0.00046157      -0.00046672       0.00363491
S        5.37160455       8.86620969      11.83717125      -0.00707579      -0.00578284      -0.00476170
O        4.21668205       9.82050543      11.64897959      -0.00532103      -0.01187861      -0.02073109
C        6.90923437       9.82894225      11.55499919      -0.01064098      -0.01199396      -0.00592954
C        5.47875468       7.92125614      10.32101636       0.00225001      -0.02516745       0.01113737
H        6.70910648      10.80168572      12.02596761       0.00538474      -0.01397750       0.00177308
H        7.07459507       9.87287168      10.46789606      -0.01245932       0.00030567      -0.00416270
H        7.73276075       9.33937741      12.07590414      -0.01012331      -0.01868966      -0.01692654
H        6.36290536       7.28373118      10.38559815       0.00077729      -0.02167129       0.01959891
H        5.53551408       8.60699089       9.47367803       0.00110096      -0.04027206       0.00002861
H        4.57582419       7.31471793      10.27388313       0.00673471      -0.02924281       0.01984842
S        3.91764686      11.51143411       3.84603063       0.00659919      -0.00573893       0.02008197
O        4.69602729      12.38997884       4.67568801      -0.00357078       0.00853172       0.00760871
C        2.20732421      11.47217875       4.23643268       0.00338507      -0.00104940       0.01438859
C        4.49711521       9.86336068       3.99532922       0.00756443      -0.01138303       0.02671508
H        1.83545300      12.49222355       4.17839574      -0.00105000      -0.00281000       0.00607542
H        2.11011456      11.05126389       5.23850543       0.00911955       0.01021740       0.01668403
H        1.70593426      10.83132740       3.51420258       0.00598772      -0.01294334       0.02511752
H        3.75795094       9.19631068       3.55977008      -0.00409642       0.00589789       0.01737198
H        4.59776286       9.71266552       5.06827595       0.00368347      -0.01509394       0.02707982
H        5.43733378       9.81431326       3.44812387       0.00651160      -0.00270519       0.02172522
S        3.30612289       9.20228247       7.87523728      -0.00718158       0.00618410      -0.00195277
O        3.09238766      10.25152529       6.83221216       0.00875989       0.01158941      -0.00119460
C        3.98282839       7.76488924       7.00700367      -0.00138694       0.00451767       0.00619036
C        1.68375787       8.47532522       8.21138574      -0.01104194       0.01625624      -0.01693306
H        4.97852277       8.05259681       6.67320248       0.00538728      -0.00328641       0.01920345
H        3.33160174       7.51801838       6.16711286       0.00812607       0.00798495      -0.00119892
H        4.06326553       6.92098326       7.69189957      -0.01559552       0.00353904       0.00654306
H        1.82396637       7.53916639       8.75449627      -0.02068582       0.01442511      -0.01819337
H        1.15883092       8.32851889       7.26667754       0.00057879       0.02290414      -0.02314544
H        1.13992611       9.18164545       8.83535199      -0.00800160       0.02194253      -0.02087948
S        9.73065300       6.65652637      10.19272571       0.00658572       0.00465636       0.00199741
O        8.39430781       6.29486005      10.76259933       0.00716972       0.00999902       0.00718230
C       10.77701834       7.10434557      11.59081300       0.01166749       0.00349191      -0.00139487
C        9.58920867       8.30046763       9.47060492       0.01237093       0.00409532      -0.00270267
H       10.94595208       6.19885835      12.17080722       0.00707122       0.00422432       0.00064795
H       10.24815534       7.84447004      12.19318475       0.01681085       0.00762670      -0.00248653
H       11.72358713       7.49928928      11.22301004       0.01371260      -0.00195429      -0.00173301
H       10.53904929       8.57202248       9.00788262       0.01251991      -0.00289294      -0.00676975
H        9.32193400       9.01211139      10.25509786       0.02117498       0.00984460      -0.00442073
H        8.82561593       8.24719520       8.69468102       0.01054771       0.00460429      -0.00118029
