149
Lattice="12.453111428168022 0.0 0.0 0.0 12.453111428168022 0.0 0.0 0.0 12.453111428168022" Properties=species:S:1:pos:R:3:forces:R:3 energy=-788482.3125 stress="0.0008744415827095509 -0.0007393000705633312 -0.00014301499322755262 -0.0007393000705633312 0.0012438768753781915 5.756030441261828e-05 -0.00014301499322755262 5.756030441261828e-05 0.0008452179026789963" pbc="T T T"
Ho       7.87313974      11.47251065       9.61476305      -0.00078741       0.01022458      -0.00680268
Ho       9.47669511      13.24459904       0.86565014       0.00898378      -0.00142694       0.00320466
O       10.35141558      11.33843283       0.14791107       0.01081896      -0.00197360       0.01443958
O       11.20013479      12.41166346       1.87422237       0.00489688       0.00374043       0.00778842
O       12.19516735      10.51870311       1.16816875       0.03610712      -0.02279299       0.02349382
C       11.31313968      11.36341723       1.08141018      -0.02855387       0.03886209       0.01254137
O        6.09532992      11.49272056       6.06129390      -0.02238250       0.00456905      -0.01808375
O        7.62413187      11.19509662       7.66171124      -0.00160626      -0.00041144      -0.00266600
O        8.20828390      10.90198100       5.52448373      -0.00385630      -0.00198391       0.00576234
C        7.26561219      11.19736450       6.30462913       0.04164180      -0.01283255      -0.00970131
O        6.43230454      11.81340031      -0.93168767      -0.00723457       0.03259110      -0.01656526
O        7.23825121      12.88692656       0.88741639       0.00257450       0.01367319      -0.00855500
O        8.29633945      13.00422291      -1.06675956       0.01578966       0.00060299      -0.00184467
C        7.25399281      12.55837537      -0.35715478       0.00634363       0.01871956      -0.00704633
O        0.92821090       3.38351406      10.06363686      -0.01340443      -0.01186341       0.00263589
C        2.01766804       2.58746473       9.59163721      -0.00441673       0.00079548       0.00345767
C        2.43792791       1.63735770      10.68707557       0.00628550       0.00643224       0.00433582
H        1.71552534       2.03356294       8.69699156       0.00293405      -0.00362912       0.00351158
H        2.86477067       3.22559985       9.31339038      -0.01175106       0.01062787       0.00282270
H        3.28196585       1.03223828      10.35572408       0.01828036       0.02102095       0.00811526
H        2.75377246       2.18215784      11.57635154      -0.00736451       0.01103187       0.00647102
H        1.61445518       0.97723759      10.96582227       0.01544462      -0.00703163      -0.00004161
H        0.37292228       3.59715835       9.30619972      -0.01507151      -0.01791886       0.00149332
O        5.07672055       2.49055965       0.72272425       0.00709403       0.00241244       0.00527455
C        4.49090928       3.20287412       1.81574408       0.00634448      -0.00241006       0.00739935
C        4.19314239       2.33761324       3.01798822       0.00496525      -0.00753009       0.00373560
H        5.14969201       4.03476301       2.10724402       0.00555244      -0.00324771       0.01188949
H        3.57664051       3.64979436       1.42319421       0.00638780      -0.00094977       0.00840826
H        3.88404097       2.96343099       3.85682722       0.00406522      -0.01081133       0.00594380
H        3.39845181       1.62425228       2.80361893       0.00519699      -0.00664112      -0.00030925
H        5.08120978       1.78640708       3.33862494       0.00479855      -0.00871198       0.00233131
H        5.66849756       1.80219055       1.05845360       0.00757082       0.00020932       0.00212067
O        7.86235936       4.76910038       2.13047870       0.00178659      -0.00746411       0.01162860
C        7.58501145       4.51862969       3.52514331      -0.00033977       0.00180250       0.01300560
C        6.92697942       5.69532421       4.20040697      -0.00241923       0.00616515       0.00385320
H        6.96695307       3.62062234       3.62064872       0.00016066       0.00192681       0.01835556
H        8.55878207       4.30403584       3.96651390      -0.00089738       0.00577545       0.01625113
H        6.71614904       5.45496173       5.24071040      -0.00201890       0.01428371       0.00596520
H        7.56108540       6.57951635       4.15932908      -0.00341354       0.00668944      -0.00304522
H        5.97172005       5.92826064       3.72361535      -0.00273648       0.00097605       0.00173952
H        7.02180352       4.94895557       1.69349404       0.00151831      -0.01890659       0.00744632
O       11.54827403       2.31502333       8.00931334      -0.00442225       0.00305237       0.00391716
C       11.54965933       1.09222903       8.73654825      -0.00164470      -0.00266683      -0.00482412
C       10.16528195       0.47258367       8.84137837       0.00106981      -0.00952459      -0.01536909
H       12.24050994       0.36856110       8.29110278       0.00300956       0.00354037      -0.00803950
H       11.93814224       1.35536403       9.72028957      -0.00548358      -0.00834799      -0.00170812
H       10.25427734      -0.38763802       9.52681854       0.00217593      -0.01557200      -0.02305312
H        9.46115820       1.21450173       9.23779685      -0.00358135      -0.01513273      -0.01160773
H        9.82210498       0.10512982       7.87009222       0.00612905      -0.00340630      -0.01924750
H       11.27059945       2.13808048       7.10517583      -0.00309529       0.00904335       0.00226343
O        9.35650309       5.28623461      10.97159739       0.01265666       0.00219631       0.00674552
C        8.86153661       4.06374856      11.45714373       0.01527339      -0.00119030       0.00148124
C        9.86126342       3.37660788      12.41727938       0.01335752       0.00008424       0.00464201
H        7.90359595       4.19693077      11.97437212       0.01188713      -0.00609491      -0.00305867
H        8.66126454       3.43066207      10.59266009       0.02242032       0.00017542      -0.00134799
H        9.35966729       3.14210597      13.37241657       0.01167981       0.00081900       0.00410578
H       10.36058817       2.51255852      11.94257560       0.01458704      -0.00050921       0.00693120
H       10.65399054       4.07849803      12.67314776       0.01305947       0.00024164       0.00500249
H        9.49279478       5.86965076      11.74183896       0.00467754       0.00127240       0.00899287
O       10.52781861       7.47106338       7.21349071      -0.00120968       0.00891548       0.00573313
C        9.68979919       6.66623373       6.41481801      -0.00383654       0.01053321       0.00680110
C        9.89698930       5.22055977       6.81258147      -0.00581259       0.00962085       0.00805435
H        8.63481045       6.94460339       6.54616117      -0.00342125       0.01165940       0.00747214
H        9.92187968       6.79484274       5.34491032      -0.00263204       0.01228965       0.00656033
H        9.23511285       4.56169413       6.24649421      -0.00448284       0.00866031       0.00627314
H       10.93129475       4.92326015       6.63023178      -0.00632884       0.00877418       0.00734301
H        9.69176648       5.08583399       7.87523129      -0.00343595       0.01178956       0.00963974
H       10.38990558       8.41849813       6.98211390       0.00028692       0.01063462       0.00728164
O        1.11496860       8.12764379       2.60308724      -0.02197099      -0.00988880      -0.03605688
C        2.49907284       7.85124864       2.74431458      -0.02003503       0.00032955      -0.02270599
C        2.66292911       6.35186811       2.84757337      -0.01300165       0.00273472      -0.00510788
H        3.06666911       8.22988087       1.88619250      -0.00750080      -0.00731419      -0.01962012
H        2.91034386       8.33697406       3.63928771      -0.04158695       0.01589522      -0.02246302
H        3.70596491       6.08737773       3.02894415      -0.01037511       0.01535588      -0.00359576
H        2.06356884       5.96048384       3.66971816      -0.00698853       0.00872780       0.00180186
H        2.33222198       5.87457426       1.92456276      -0.01012702      -0.01418172       0.00201161
H        0.97395475       9.00631857       2.23065323      -0.02599891       0.01267282       0.02999323
O        4.50647587       8.73353858       9.65711977       0.00599045      -0.00634846       0.00148219
C        5.40035020       9.75848354       9.23159412       0.00116704      -0.00335523      -0.00198581
C        4.73312789      11.11490068       9.16853862      -0.00711197      -0.00777507      -0.01416040
H        6.25251916       9.73896317       9.95397909      -0.00145526       0.00755483       0.00097536
H        5.77757579       9.45769022       8.25572731       0.00687492      -0.00754058       0.00134248
H        5.41863200      11.89389360       8.81221843      -0.01027800      -0.00759375      -0.01949487
H        3.93042497      11.09161471       8.43225919      -0.00616986      -0.01880224      -0.01486588
H        4.34477151      11.40289576      10.14552277      -0.01030897      -0.00186402      -0.01698682
H        4.00739425       9.05883153      10.41317672      -0.00174287      -0.00345907      -0.00487095
O        1.94053955      12.10754066       2.23100906       0.00911415       0.00162715      -0.00638813
C        3.11480878      11.37635017       1.93065644       0.00800329      -0.00362983      -0.00478935
C        3.10936528      10.79618714       0.52628543       0.00600687      -0.00110871      -0.00533915
H        3.94604102      12.07681707       2.02786594       0.01180252      -0.00976104      -0.00067668
H        3.28771142      10.58697558       2.67589828       0.00159517      -0.00672454      -0.00394577
H        4.07624566      10.33498266       0.30886270       0.00257158      -0.00916948      -0.00380289
H        2.31581657      10.05489815       0.40619884       0.00003985       0.00483876      -0.00707336
H        2.93910626      11.59426841      -0.19731849       0.01493464       0.00134452      -0.00471946
H        1.16778304      11.56810131       1.99252352       0.01086810       0.00914069      -0.00841864
O        5.36396633       3.55211376      10.50814926       0.00152821      -0.01069599       0.00580135
C        5.21441837       4.96225342      10.42518775       0.00341216      -0.01071388       0.00300302
C        4.11224306       5.50201048      11.31607688       0.00033265      -0.00777851      -0.00216699
H        6.16364673       5.46849657      10.65359636       0.00297350      -0.01129684       0.00617446
H        4.98769984       5.18307313       9.37814019       0.00773191      -0.01187161       0.00167584
H        4.00253610       6.57649560      11.16139995       0.00157936      -0.00792271      -0.00468467
H        3.15775200       5.01833847      11.10193656       0.00065498      -0.00730413      -0.00486673
H        4.35091595       5.33948141      12.36982990      -0.00373154      -0.00567441      -0.00082819
H        5.28956081       3.27415582      11.43603933       0.00065950      -0.00867212       0.00671932
O        4.94008839       7.22912017       7.26910648      -0.01048666      -0.02609044       0.00649786
C        4.08163381       8.03378811       6.45999310       0.00126296      -0.02477127      -0.00407186
C        2.65561823       7.52087397       6.47660397      -0.00552386      -0.00493783       0.00091446
H        4.12019244       9.08181772       6.77688579       0.01418659      -0.02090168      -0.01820925
H        4.49971219       8.00282707       5.45217579       0.00004022      -0.04304999      -0.00443715
H        2.00268239       8.13247714       5.85087526       0.00401832      -0.00550973      -0.00959243
H        2.62261943       6.49339056       6.11369979      -0.01494685      -0.00840019       0.01235075
H        2.25440197       7.53722257       7.49178545      -0.00906417       0.01299008      -0.00054276
H        4.71177197       7.42709690       8.18670432      -0.00444828      -0.00792797       0.00456595
O        9.27584924       9.95259812      10.63331444      -0.00845993       0.00893671       0.00550726
C        9.57047360       8.54198280      10.39532511      -0.00215694       0.01213713       0.00149574
C       11.05018391       8.29633657      10.26675043      -0.00056243       0.01875863       0.00304124
H        9.13331588       7.97746041      11.21925149      -0.00174463       0.00611910      -0.00195566
H        9.05744907       8.27821337       9.47078975       0.00107463       0.01362004      -0.00108963
H       11.20721179       7.23133664      10.09973538       0.00484336       0.01950482       0.00323023
H       11.45447437       8.82789696       9.40633859      -0.00225900       0.02143665       0.00391018
H       11.58321422       8.59755744      11.17076446      -0.00306381       0.02130287       0.00392407
H        9.80128145      10.28462746      11.40997130      -0.00429541       0.00876326       0.00728568
O        9.51967686       6.70855993       0.93120837      -0.01066163      -0.00067917       0.00123653
C       10.24094179       7.70970215       1.67145181      -0.00369662      -0.00379848      -0.00203604
C        9.31439771       8.68634025       2.36539706       0.00300920       0.00303710      -0.00352854
H       10.91578075       7.23347377       2.38961215      -0.00478470      -0.00617272      -0.00252020
H       10.86958326       8.22776479       0.94838847      -0.00075626      -0.00955647      -0.00477454
H        9.88984395       9.45204968       2.88843942       0.00750526       0.00229299      -0.00690180
H        8.65829169       9.17948150       1.64612581       0.00408067       0.00392680      -0.00381421
H        8.69001953       8.19027458       3.11008847       0.00202126       0.00832425      -0.00071150
H        8.99291340       6.17015839       1.54399300      -0.00725542      -0.00187325       0.00419508
O       10.37237065      10.12188515       6.66988223       0.00727677       0.00649695       0.00546765
C       11.46754563      10.37926849       5.80703103       0.00044453      -0.00109071      -0.00239551
C       11.43491417      11.78071877       5.22667388       0.00636629      -0.00170255      -0.00435817
H       12.38020104      10.23154257       6.39471666       0.00528407      -0.00784691      -0.01042783
H       11.50056806       9.64827001       4.98696328      -0.01065842      -0.00271553      -0.00234818
H       12.31059309      11.97108260       4.60351530       0.00040118      -0.00937802      -0.01511545
H       10.54373916      11.91355247       4.61442939       0.00020331       0.00487159       0.00619669
H       11.40954508      12.51944805       6.03231050       0.02292893       0.00017602      -0.00513981
H        9.50826572      10.42525531       6.21548357       0.00109069       0.00339717       0.00249870
O        5.46963669       3.60738460       6.31958201      -0.00172136       0.00063682      -0.00073522
C        5.62205308       2.34904973       6.98283964      -0.00546193       0.00248948       0.00271556
C        6.98127489       2.20770337       7.64034829      -0.00796288       0.00150186       0.00787655
H        4.83078804       2.21441353       7.72854368      -0.00846851       0.00416699      -0.00005311
H        5.49813382       1.58017080       6.22075521      -0.00347707       0.00081110       0.00319973
H        7.07334899       1.19092362       8.04451486      -0.01037203       0.00093228       0.00803801
H        7.78054209       2.33380797       6.90757160      -0.00515176       0.00101322       0.01083660
H        7.10960547       2.92769657       8.45057972      -0.01068928       0.00082803       0.00903559
H        5.40187468       4.30161322       6.98365435      -0.00753838       0.00270258      -0.00237218
