137
Lattice="13.36802237731971 0.0 0.0 0.0 13.36802237731971 0.0 0.0 0.0 13.36802237731971" Properties=species:S:1:pos:R:3:forces:R:3 energy=-852987.125 stress="-0.0006856313557364047 -0.00010312766971765086 0.001029410574119538 -0.00010312766971765086 -0.002097909804433584 0.00048348071868531406 0.001029410574119538 0.00048348071868531406 0.001127392053604126" pbc="T T T"
Ho      -0.35107482      11.27671584       3.81194198       0.00626262      -0.04320134      -0.04633556
Ho       3.01384261      12.94225174       5.56316899      -0.00178623      -0.04724234      -0.02308339
O        5.12150137      13.09771937       5.36747379      -0.00531501      -0.01058197      -0.04842066
O        6.18880225      10.93585217       6.71757137       0.05824864       0.04625037      -0.00901508
O        6.01029197      10.82931352       4.09124633       0.01746023      -0.02394098      -0.00459933
O        3.72035237      10.98547323       5.54474398       0.03933048      -0.03288835       0.03160912
Cr       5.39279978      11.39359231       5.43597753       0.02891207      -0.00320309      -0.00823900
O       -0.55235557      12.40484360       7.78040282      -0.02954495      -0.00660113      -0.09336719
O        2.13241242      12.80948458       7.51043894      -0.04540992       0.00565168      -0.03571576
O        0.76861838      12.28501849       5.30231987       0.00231966      -0.04979543      -0.03968060
O        0.97368384      10.35118959       7.26632058      -0.02909145       0.00303853       0.01472956
Cr       0.76665225      11.91136638       7.10008592      -0.05205724       0.00927114      -0.02013326
O       12.11080355      10.27801730      10.98475083       0.00451410      -0.01911974       0.06838774
O       12.05864380      12.92149282      11.39259968       0.01213038      -0.02434826       0.08796442
O        9.92531942      11.43167605      12.00805919      -0.01457787      -0.01450473       0.02443933
O       10.55549204      11.81699046       9.42475053       0.04410636      -0.00225621       0.04600096
Cr      11.17194455      11.61792641      10.93359348       0.01206748      -0.01407290       0.05605843
C        6.47175411       5.38504016       8.40204528      -0.00328964       0.00099155       0.00158221
C        7.63785577       5.32098689       9.37868044      -0.00447023       0.00047466       0.00282736
C        6.91012753       5.36481158       6.94170369      -0.00168604      -0.00169327       0.00218213
C        7.21932278       5.40533844      10.84213032      -0.00562477       0.00225889       0.00229645
C        5.74012957       5.43134447       5.96948084      -0.00063285      -0.00120100       0.00122565
C        8.40717071       5.52755893      11.78721140      -0.00698718       0.00897983       0.00304875
H        5.78950351       4.54671963       8.58807533      -0.00521624       0.00274089       0.00191651
H        5.89505515       6.29745922       8.59020271      -0.00168553       0.00237006      -0.00040496
H        8.33412667       6.13468303       9.15729299      -0.00364254      -0.00034395       0.00271151
H        8.19751051       4.39261306       9.21643049      -0.00521232      -0.00003007       0.00398027
H        7.58329439       6.20926395       6.76184442      -0.00054796      -0.00274161       0.00183440
H        7.49917266       4.46109415       6.75207935      -0.00263973      -0.00259089       0.00400412
H        6.55470653       6.26401656      10.97434360      -0.00883725       0.00012615      -0.00017747
H        6.63040735       4.52191655      11.09900694      -0.00257212       0.00083753       0.00413800
H        5.06444386       4.58462749       6.10920788      -0.00048053      -0.00153653      -0.00048677
H        6.07431052       5.42277537       4.93084454      -0.00016049       0.00059347       0.00145277
H        5.16059320       6.34271675       6.12458663      -0.00071323      -0.00164664       0.00276606
H        9.11016243       4.70745982      11.63783636      -0.00487894       0.00993705       0.00783662
H        8.94518561       6.46269015      11.62140536      -0.00883535       0.00911051      -0.00091847
H        8.09154504       5.50222954      12.83178296      -0.00839616       0.01366454       0.00263241
C        7.25469627      10.06707091       9.85080994      -0.00086880       0.00266111       0.00247181
C        5.74525557       9.88226691       9.81549064      -0.00098154       0.00319070      -0.00341643
C        7.95604069       8.72971152       9.66887098      -0.00028192       0.00298738       0.00064440
C        4.95046122      11.16736874       9.97018615      -0.00403316       0.00184315      -0.00342262
C        9.45312508       8.78034770       9.89893599      -0.00150204       0.00046384       0.01091047
C        3.45306200      10.90892888      10.03750523      -0.00318629      -0.00428218       0.00024069
H        7.57074065      10.75862534       9.06567695       0.00186373       0.00468558       0.00555998
H        7.57132116      10.51808353      10.79755379      -0.00413427      -0.00073825       0.00512645
H        5.45321420       9.18703514      10.61473958      -0.00324943       0.00150463      -0.00587606
H        5.46169883       9.40096238       8.87236565       0.00239189       0.00408977      -0.00500181
H        7.50580036       8.01383730      10.36351249      -0.00522535      -0.00012442      -0.00578496
H        7.73278906       8.35409471       8.66198714       0.00620100       0.00753725      -0.00239784
H        5.28433311      11.68378927      10.87549610      -0.00346473       0.00356804      -0.00471085
H        5.18602368      11.82727550       9.12937071      -0.00686908       0.00152694      -0.00436532
H        9.92691142       9.51033545       9.24484889       0.00495384       0.00320640       0.01848572
H        9.92275937       7.80873112       9.73962257      -0.00203873       0.00061029       0.00910257
H        9.68358129       9.10544734      10.91271927      -0.00827514      -0.00586140       0.01442680
H        3.09850937      10.42282682       9.12665804      -0.00205571      -0.00736991       0.00162637
H        3.23046153      10.24619590      10.87693300       0.00329146      -0.00574796       0.00065218
H        2.87211736      11.82253344      10.16550626      -0.01218498      -0.00790003       0.00280291
C        1.66460201       8.89414937       2.78506938      -0.00569788       0.01192391       0.01448777
C        1.95827853       7.42732221       3.09548118      -0.00592321       0.00843552       0.00058548
C        2.91839721       9.75982561       2.78944947      -0.00105560       0.00693320       0.00675594
C        0.75146136       6.50431471       2.97816939      -0.00655353       0.00892325       0.00372629
C        2.65000139      11.24363635       2.57789607       0.00966492       0.01068455       0.01354146
C        1.09174511       5.04912012       3.27670286      -0.00239831       0.00974691       0.00252466
H        1.14614954       8.96977112       1.82198416      -0.01644352       0.02027301       0.02093124
H        0.95269532       9.25284200       3.57584499       0.00686570      -0.00236317       0.03138580
H        2.38820510       7.35420767       4.09973898       0.00043995       0.00232773      -0.00267997
H        2.74090980       7.08976739       2.40693324      -0.01130684       0.01276969      -0.00718768
H        3.44822016       9.63446285       3.73346364       0.00708099      -0.00072232       0.00120187
H        3.58995356       9.40999160       2.00203042      -0.01172124       0.00462254      -0.00096253
H       -0.03408254       6.84061581       3.66402318      -0.00488696       0.00609332       0.00700751
H        0.33640914       6.58330306       1.96756618      -0.01017568       0.00888618       0.00528532
H        2.25582785      11.47703092       1.58586694       0.00012776       0.01608130       0.01814198
H        3.56591722      11.82741814       2.71540678       0.01864722       0.00099005      -0.00166243
H        1.94879435      11.62781368       3.34614330       0.02395430       0.01754779       0.02196883
H        1.85607718       4.67645082       2.59116088      -0.00223048       0.01210117       0.00157449
H        1.47739862       4.93614353       4.29163827      -0.00053089       0.01135621       0.00192755
H        0.21697000       4.40464515       3.18100699      -0.00060143       0.00731263       0.00407111
C        7.99581554       2.00160387      11.40079245       0.00152595      -0.00503373      -0.00142612
C        6.78585540       1.08557257      11.26879374      -0.00118994      -0.00095499      -0.00324654
C        9.34031380       1.29138398      11.40763589      -0.00031154      -0.00859863      -0.00403826
C        5.47552572       1.86850681      11.24116293       0.00112375       0.00289524       0.00454730
C       10.51752089       2.24229336      11.57421621       0.00119016      -0.01088768      -0.00348595
C        4.22664758       1.00899502      11.11190726      -0.00220820       0.00768715       0.00809697
H        7.97875776       2.72024392      10.57410068       0.00284539      -0.00187969       0.00137827
H        7.89018100       2.59754135      12.31695654       0.00398928      -0.00797294       0.00072598
H        6.77611334       0.37768130      12.10311945      -0.00095833      -0.00523512      -0.00707486
H        6.87979113       0.47857135      10.36335199      -0.00549538       0.00360401      -0.00664678
H        9.36360412       0.53551052      12.19634475      -0.00125921      -0.00913829      -0.00468040
H        9.46809907       0.72477818      10.48147680      -0.00196484      -0.00817686      -0.00448292
H        5.40850156       2.47714961      12.15000458       0.00685637       0.00039813       0.00654560
H        5.50890032       2.57772745      10.40695515      -0.00035902       0.00516823       0.00662288
H       10.54934502       2.97637528      10.76507335       0.00169266      -0.00939983      -0.00193344
H       11.44779929       1.67174093      11.55820391       0.00049749      -0.01198623      -0.00269593
H       10.45582638       2.79901511      12.51409130       0.00209375      -0.01268695      -0.00247823
H        4.22137784       0.46102394      10.17019348      -0.00906906       0.01017031       0.00661896
H        4.16638287       0.27054414      11.91425802      -0.00144765       0.00569026       0.00607051
H        3.31915513       1.61449850      11.14700153       0.00052349       0.01136476       0.01393072
C       11.76011401       7.75611280       6.42193472      -0.00893843      -0.00059421      -0.00021318
C       11.36947994       6.75777317       7.49415788      -0.00892615       0.00519790       0.00545669
C       11.18076938       9.14671781       6.65192527      -0.00660574       0.00090246      -0.00948590
C       11.96656491       5.37539193       7.28545999      -0.00377086       0.00388139       0.00672579
C       11.67258931      10.07446789       5.55681866      -0.00406069      -0.00979637      -0.01814602
C       11.54036441       4.41331764       8.38101210       0.01609600      -0.03037000       0.00756350
H       12.85513801       7.83380297       6.39255144      -0.00918168      -0.00226754      -0.00102852
H       11.44582713       7.38060784       5.43811440      -0.01036167      -0.00570208       0.00248766
H       10.27772607       6.67777805       7.53944494      -0.00740772       0.00195908       0.00594687
H       11.68435655       7.14285662       8.46786791      -0.00717850       0.00749487       0.00254411
H       10.08899056       9.12589529       6.67384934      -0.00635394       0.00170616      -0.01018607
H       11.51331362       9.54829318       7.61222163      -0.00727463       0.00812446      -0.01223519
H       11.66529838       4.98627005       6.30619973      -0.00530323       0.00194360       0.00950456
H       13.05887719       5.45231117       7.25988334      -0.00562456       0.00881130       0.00519965
H       12.77640458       9.93342255       5.57436780      -0.00457790      -0.01225571      -0.01625765
H       11.44370495      11.13828873       5.76603916      -0.00065956      -0.00747348      -0.02958050
H       11.25961063       9.78180754       4.56690386      -0.00460436      -0.02024185      -0.01498447
H       11.82475999       4.79008946       9.36460394      -0.00608020       0.01474568       0.00918657
H       10.45732151       4.28080212       8.38300503       0.00287461      -0.00335266       0.00804807
H       11.99624154       3.43486017       8.26417884      -0.00374604       0.04855375       0.02177094
C        8.55105726      11.69469041       1.46405608       0.00840223       0.00251907       0.01239316
C        9.84348648      10.89782975       1.56984985       0.00799760       0.00176334       0.00756352
C        7.34308105      10.79671948       1.22209720       0.01245236       0.00263691      -0.00555475
C       11.09938416      11.75777065       1.70703022       0.01042747       0.00019944      -0.00574189
C        6.05436083      11.58966070       1.04837663       0.01187140       0.00043255      -0.00814097
C       12.35998705      10.95017962       1.38484491       0.00321767       0.00370429      -0.04616269
H        8.38473564      12.29355936       2.36819183       0.00287028      -0.00811082       0.01826623
H        8.65933331      12.37818970       0.61702745       0.01140933       0.01212515       0.02071685
H        9.95938050      10.34208777       0.63469496       0.00051081      -0.00165588       0.00888366
H        9.78041044      10.17156357       2.39371505       0.01250935       0.00476058       0.01059285
H        7.52954879      10.19436349       0.32797959       0.02197094       0.01392043      -0.01070809
H        7.22647686      10.11077330       2.06456762       0.00848879      -0.00695668      -0.01422369
H       11.05694165      12.58872908       0.99895838      -0.00141409       0.01007238       0.00701728
H       11.12382014      12.24856770       2.72599567       0.02799502      -0.01115050      -0.00073088
H        5.87330364      12.21151683       1.92797064       0.00546012      -0.00454937      -0.00602403
H        5.19445205      10.92874064       0.91991130       0.01429683      -0.00082567      -0.01756825
H        6.10694119      12.23861475       0.17227999       0.01586150       0.00527397      -0.00422402
H       12.40791261       9.99786157       1.95579381       0.00872163      -0.01172622      -0.07218929
H       12.35111631      10.66275522       0.32897635      -0.01623572       0.03328776      -0.05453286
H       13.30612949      11.52206182       1.50903109       0.00813017      -0.00454604      -0.04904340
