150
Lattice="12.39587303578434 0.0 0.0 0.0 12.39587303578434 0.0 0.0 0.0 12.39587303578434" Properties=species:S:1:pos:R:3:forces:R:3 energy=-563383.875 stress="-0.00013653769565280527 0.0005979165725875646 0.0008819877402856946 0.0005979165725875646 -0.0019314424134790897 -0.0009439131245017052 0.0008819877402856946 -0.0009439131245017052 0.0006403773440979421" pbc="T T T"
K        9.92275454      12.19370405       4.63078866      -0.00283551      -0.00370269      -0.00276738
K        5.27427545      12.77006474       7.52429046       0.01712536      -0.00420441      -0.03926436
O       12.04686706       2.56686431       1.10700438      -0.00204086      -0.02017522       0.00321071
O       10.88291287       0.30538983       2.50083279      -0.01067841      -0.00738388       0.00161994
O       12.64429291      -0.10198408       0.23161364      -0.00807047      -0.00687981       0.00622547
O        9.94792421       0.95172290      -0.19476779      -0.00165129       0.00018221      -0.00441229
W       11.38060575       0.94398456       0.87904757       0.01528215       0.00621927       0.00033769
O        1.40343999       5.58455407       6.98150340      -0.00515854      -0.01169336       0.00521751
C        2.66307173       7.57345779       6.67703725      -0.00986737      -0.00922072      -0.00047684
C        3.59834324       6.42518632       7.05008104      -0.00679034      -0.00796477      -0.00455144
C        1.31258640       7.01170645       7.11068962      -0.00803050      -0.01165330       0.00264978
C        2.75020083       5.21793744       6.68273875      -0.00635201      -0.00860335      -0.00331984
H        2.90993081       8.50244201       7.18933604      -0.01011349      -0.00930542      -0.00055949
H        2.68516407       7.76281142       5.60104248      -0.01322670      -0.00814084      -0.00032398
H        4.55425267       6.45058206       6.52610844      -0.00858316      -0.00598515      -0.00788091
H        3.79618032       6.44792818       8.12390539      -0.00325675      -0.00909910      -0.00519705
H        1.11398023       7.25330474       8.16219665      -0.00695061      -0.01080304       0.00253612
H        0.47407654       7.36347507       6.50472755      -0.00964579      -0.01465127       0.00335789
H        2.83934912       4.98625163       5.61283986      -0.01149421      -0.00511454      -0.00431782
H        2.99815196       4.31684054       7.25300014      -0.00214940      -0.00975606      -0.00727960
O        4.03355125       1.08886969       1.89773710       0.00321609      -0.00370446       0.00545484
C        2.73223155       3.02227315       2.39255672      -0.00458208      -0.00538993      -0.00573420
C        3.56519501       2.63534843       3.61599974      -0.00922620      -0.00122130      -0.00142252
C        2.80714151       1.77380487       1.52383667       0.00354417      -0.00607860      -0.00425062
C        4.64859650       1.77836008       2.97575047      -0.00361253       0.00287712       0.00397688
H        1.69721072       3.28768849       2.60017560      -0.00633654      -0.00878245      -0.01213788
H        3.21772038       3.86607036       1.90057217      -0.00447023      -0.00428143      -0.00449435
H        3.98217032       3.49780650       4.13565349      -0.01543492       0.00007603       0.00077756
H        2.97172142       2.04763227       4.32298599      -0.01100750      -0.00386943      -0.00462078
H        1.96442512       1.09829932       1.68335631       0.00428253      -0.00744197      -0.00931314
H        2.83131666       1.99242386       0.45472984       0.01125136      -0.00679967      -0.00377864
H        5.46902687       2.41265001       2.60584417      -0.00596932       0.00660127       0.00438637
H        5.07620358       1.03124364       3.65916768      -0.00079582       0.00705564       0.00734547
O        2.95706410      10.23297202       3.79205277      -0.00899878      -0.01667587       0.01769456
C        0.83487792      10.29778454       2.68278647      -0.00519031      -0.00235161       0.01147059
C        0.78326045      11.05790321       4.01109188      -0.00001127       0.00633259       0.00643480
C        2.19433189       9.60203212       2.73698679      -0.00572711      -0.00515149       0.00883595
C        2.24932528      11.39702995       4.20471556       0.00345665      -0.00553140       0.00611986
H        0.01926221       9.58518467       2.56485486      -0.00774018      -0.00115608       0.01879723
H        0.77024919      10.99884563       1.84434927      -0.00695437      -0.00709578       0.00724375
H        0.15081849      11.94194669       3.92023845       0.00796525       0.01146007       0.00107822
H        0.44072458      10.41098159       4.82895412      -0.00584886       0.01542832       0.01042652
H        2.11067800       8.54309815       2.99482157      -0.00543697      -0.00726354      -0.00301985
H        2.74132585       9.69002558       1.79310749      -0.00325045       0.00554379       0.01107681
H        2.53321825      12.25068661       3.57955551       0.01209907      -0.01463622      -0.00134683
H        2.52917158      11.60074514       5.24602987       0.00361323       0.00026089       0.00430030
O        5.11526541       8.58786277       8.78786555      -0.00583972       0.00238508      -0.00028300
C        6.93326077       9.92868582       8.07518958      -0.00563356       0.00139961       0.00073996
C        7.43693324       8.84246530       9.02552589      -0.00698668       0.00780663       0.00835750
C        5.43379131       9.90717954       8.38280298      -0.00685963       0.00089934      -0.00622536
C        6.32708121       7.81716527       8.91465172      -0.00516930       0.00550619       0.01034837
H        7.40160766      10.89899872       8.24229162      -0.00742427       0.00324245      -0.00233999
H        7.11639626       9.64239320       7.03481538      -0.00353125      -0.00634325       0.00357220
H        8.41396741       8.45027611       8.75352578      -0.00555396       0.00698592       0.01409954
H        7.49828027       9.22434514      10.04817062      -0.01076955       0.01414487       0.00596026
H        5.19592003      10.59406872       9.21666696      -0.01167486       0.00545399      -0.01194698
H        4.80214838      10.15607990       7.51299477      -0.00342773      -0.00564580      -0.01046565
H        6.44614727       7.19960019       8.01537028      -0.00057508      -0.00081071       0.01516801
H        6.23093336       7.17982644       9.79287299      -0.00765816       0.01129004       0.01398715
O        5.61181453       6.50318027      11.87822525      -0.00953840       0.00261219       0.01248427
C        3.51028921       5.48057737      11.52245770      -0.00758189       0.00216898       0.00069284
C        4.59397030       4.63448796      10.85619458      -0.00321157       0.00181842       0.00842661
C        4.22309713       6.81680029      11.65530833      -0.00851810       0.00218764       0.00545090
C        5.83443911       5.11449006      11.59764922      -0.00836399       0.00197878       0.01611397
H        2.59049636       5.54783695      10.94306946      -0.00345740       0.00242379      -0.00555310
H        3.26976319       5.06842170      12.50363918      -0.01492104       0.00229771      -0.00109050
H        4.43140308       3.56088496      10.95462120      -0.00384028       0.00179991       0.00774986
H        4.65905515       4.88347966       9.79190920       0.00386793       0.00121418       0.00877130
H        4.13629412       7.40552934      10.73523175      -0.00383809       0.00288728       0.00555044
H        3.87076610       7.42797909      12.48736720      -0.01315445       0.00159833       0.00388703
H        5.95683982       4.56811172      12.54017210      -0.01556342       0.00357211       0.01798272
H        6.75965913       5.02581928      11.02196341      -0.00429603       0.00077103       0.02301598
O       11.18684531       9.80470435      11.16234278      -0.04650937      -0.01533900      -0.00782901
C       11.42438668       9.19612069       8.87160892       0.00688082      -0.00023852      -0.00548053
C       10.72389030      10.54666615       9.02024493       0.01392001       0.00423207      -0.01025689
C       11.47057852       8.68898964      10.32504236      -0.00766915      -0.00510129      -0.00553530
C       11.25539741      10.99840946      10.36934507      -0.01395246      -0.00985345       0.00494820
H       10.92070682       8.49454825       8.20659539       0.00763972       0.00513849      -0.01169700
H       12.43369567       9.34764173       8.48410846       0.01134172      -0.00671913       0.00361113
H       10.94711096      11.24636679       8.21145241       0.03977955       0.00790142       0.00100656
H        9.64055543      10.41757931       9.07911720       0.01213762       0.01268375      -0.03638282
H       10.70894993       7.92533305      10.51922198       0.00784492      -0.02237794      -0.01884668
H       12.44753345       8.25526161      10.57476722      -0.00213283       0.01692548       0.00841853
H       12.29139800      11.35223776      10.30058021      -0.00939655      -0.02219388       0.03273927
H       10.67410195      11.77186137      10.87286886      -0.01609492      -0.00714421      -0.00250942
O       10.60210073       5.90134040       5.59843679       0.01195359       0.02241842      -0.00060739
C        8.87962022       5.97701437       7.24056012       0.01014066       0.00355673      -0.00119653
C        8.84555197       7.22441088       6.35432866       0.00049171       0.00611144       0.00294262
C       10.21984295       5.33125154       6.86169835       0.01397631       0.01323916      -0.00425676
C        9.52895365       6.69245183       5.11162810       0.00711572       0.01736847       0.00179470
H        8.80622843       6.19210949       8.30705407       0.00968308       0.00019379      -0.00070500
H        8.04446127       5.32144990       6.97362147       0.01438007      -0.00130248      -0.00232360
H        7.84099785       7.59724180       6.16254948      -0.00242651      -0.00280496       0.00286634
H        9.44181770       8.03170855       6.78510730      -0.00808150       0.01016852       0.00716572
H       11.01166406       5.55788110       7.57926012       0.01244414       0.01279370      -0.00260586
H       10.14795042       4.24429593       6.75980302       0.01962759       0.01355028      -0.01035759
H        8.82085860       6.08062193       4.53200045       0.01305652       0.01573178      -0.00327185
H        9.94756022       7.45462653       4.45249432       0.00298880       0.02420110       0.00698981
O        8.38386624      10.68051000       3.01515067      -0.01045426      -0.00380654      -0.00108173
C        8.03232489       9.67105503       0.87934402       0.00343562       0.00441390      -0.00662923
C        6.99579663      10.77427750       1.16224778       0.00339705       0.00636445      -0.01233330
C        8.96984942       9.73088777       2.10304464       0.00133696       0.00779979      -0.00588071
C        7.73060650      11.64374503       2.16226980      -0.00792098      -0.00013232       0.00156328
H        7.56313686       8.69369329       0.75741755       0.00110753       0.00464135      -0.00178313
H        8.60887009       9.88399331      -0.02124138       0.00524366      -0.00237747      -0.00676173
H        6.69702002      11.32791705       0.27337823       0.01647920       0.01246510      -0.01252820
H        6.09779980      10.36190366       1.62583957      -0.00343522       0.00553748      -0.02714539
H        9.05387849       8.78344429       2.63696892       0.01251811       0.00606585      -0.01154865
H        9.96636015      10.07791678       1.81568325      -0.00294542       0.02206644      -0.00333288
H        8.48519697      12.26986714       1.66913982      -0.00589192       0.00650495       0.01300922
H        7.07667528      12.25118323       2.79002341      -0.01431544      -0.00637910       0.00020656
O        4.95432388       5.51030066       2.67921934       0.01223984      -0.00728562       0.00739230
C        4.95986883       7.84595364       3.02485007       0.00675086      -0.00533134      -0.00383665
C        6.19914916       7.24313025       3.67582664       0.00950772       0.00026870      -0.00357896
C        4.06992669       6.61893882       2.90623290       0.00994429      -0.00808153       0.00180697
C        6.30262986       5.92013653       2.93528453       0.01150642      -0.00123990      -0.00010642
H        4.51274497       8.65407586       3.59797213       0.00401706      -0.00603297      -0.00534467
H        5.21254614       8.22318737       2.03055513       0.00498912      -0.00791739      -0.00545523
H        7.08876113       7.86499067       3.57915793       0.00772944       0.00245214      -0.00627735
H        6.01183599       7.06961602       4.74055876       0.01096352       0.00239857      -0.00310066
H        3.51060458       6.44491473       3.83501616       0.01075047      -0.00432919       0.00285047
H        3.35186164       6.66673672       2.08554931       0.00982049      -0.01304591       0.00187677
H        6.82701865       6.04909707       1.98046546       0.00710826      -0.00149241      -0.00264072
H        6.79480848       5.13210821       3.50811399       0.01691712       0.00227568      -0.00033778
O        7.81167363       0.87343801       8.14688938       0.00206774       0.00650845      -0.00360268
C        7.23647194       2.02134293      10.11037500       0.01425254       0.00102575       0.00489116
C        6.99543099       2.96369004       8.90534218       0.00838515       0.00337023       0.00760998
C        8.19288227       0.98010565       9.55066391       0.00353953      -0.00426805      -0.00359949
C        7.66112189       2.23458584       7.72730082       0.01123345       0.01059155       0.00581500
H        7.67024705       2.51449877      10.97742244       0.02613968      -0.00260964       0.00072175
H        6.29980114       1.55492772      10.43514444       0.01453611       0.00731158       0.01290293
H        5.92669275       3.12852690       8.73330340       0.00710818      -0.00514873       0.00853280
H        7.43540543       3.94969778       9.04711075       0.00090860       0.00641492       0.00937566
H        9.22951098       1.31543823       9.62964778       0.00685114      -0.01445343      -0.00336044
H        8.11969643      -0.00426294      10.00621255      -0.00499929      -0.00640047      -0.00924595
H        7.07290568       2.24508819       6.80076120       0.01687339       0.02088504       0.00274162
H        8.64274108       2.65084572       7.48454387       0.01479262       0.00744848       0.01535571
O        9.68777488       2.48055256       4.88315694      -0.00812748      -0.00202901      -0.00528300
C        8.75854435       3.06657634       2.80159801       0.00262436       0.00115453      -0.00935209
C       10.06983992       3.83790746       2.94670463       0.00027463       0.00209600       0.00046110
C        8.43660601       2.76297825       4.25247051      -0.00481588      -0.00238227      -0.01204485
C       10.76155131       3.08921372       4.07063674      -0.00439429      -0.00151476       0.00008681
H        7.97073832       3.62893326       2.30285111       0.00445719       0.00252919      -0.01173432
H        8.92883832       2.14270895       2.24468320       0.00538991       0.00315148      -0.01156513
H       10.68682696       3.79818821       2.04717300       0.00563201       0.00511411       0.00198194
H        9.87981068       4.87291655       3.22887344      -0.00145192       0.00035754       0.00215517
H        7.96340779       3.62729331       4.74528837      -0.00901882      -0.00470096      -0.01339424
H        7.77493790       1.89671522       4.38771769      -0.00393485      -0.00407073      -0.01759287
H       11.36215747       2.27348955       3.66437176      -0.00288934      -0.00012779       0.00150657
H       11.35406202       3.72785247       4.72232656      -0.00619976      -0.00310844       0.00445265
