149
Lattice="13.34027932828517 0.0 0.0 0.0 13.34027932828517 0.0 0.0 0.0 13.34027932828517" Properties=species:S:1:pos:R:3:forces:R:3 energy=-1922719.75 stress="-5.266730568109779e-06 -0.00069590043858625 -0.0002684349019546062 -0.00069590043858625 0.00032340726465918124 -0.0005956725217401981 -0.0002684349019546062 -0.0005956725217401981 -0.00041066750418394804" pbc="T T T"
La       4.04723660      11.28152916      -2.46107139       0.02646160      -0.01846732       0.00760412
La      -0.01853296      12.84720867       2.47658872      -0.00957751      -0.01017997       0.00559925
O        7.59856729      13.68364879      11.79448722       0.00818503       0.00233907       0.01677859
O        7.29211439      13.67117329       8.89977182       0.03630739      -0.01840335       0.01484561
O        4.85702789      13.49926116      10.63104926       0.02071166      -0.01581109      -0.00804514
O        6.37858251      11.34223120      10.49272259       0.02915937      -0.01189935       0.02294492
W        6.63207592      13.13376252      10.44250609       0.02463168      -0.00978741       0.01151844
O        4.13269364      10.74226842      13.12224288       0.02772321      -0.01504898       0.00586891
O        6.02369719       8.48377059      13.84257363      -0.00540233      -0.04812217       0.01108789
O        4.64171212       8.93633658      11.22129009       0.00328904      -0.03103018       0.01179183
O        3.19287985       7.97917268      13.56635279      -0.01584578       0.00541377       0.01016766
W        4.55013208       8.94844826      13.02043131      -0.00038776      -0.02067375       0.00989836
O       15.18202406      12.38426289      11.36644509       0.02429941      -0.02131842       0.03215840
O       13.32699583      12.46436207      13.76150855      -0.00272033      -0.00727309      -0.00048232
O       12.40489100      11.77983824      11.03416464       0.01133853       0.01467350      -0.03039199
O       13.14474508      14.44711758      11.61146179       0.03556925      -0.01019955       0.00050253
W       13.52347860      12.77714827      11.89709566       0.02682811       0.02362049       0.01006913
C       11.93983119       8.36386702       8.83130065      -0.00517155       0.00974406      -0.01592856
C       11.31048311       7.34071543       8.13364887      -0.00556879       0.00054756       0.01081358
C       11.55573601       8.66768654      10.13257438      -0.02147643       0.01425691       0.00590219
C       10.28229300       6.62426414       8.73227767       0.01451253      -0.00459898      -0.00867840
C       10.52517252       7.95010927      10.72836090      -0.00168246       0.00923092      -0.01291759
C        9.88577712       6.93651916      10.02558445      -0.00274111      -0.00083608       0.01419398
H       12.73558349       8.92480692       8.36284550      -0.01657833       0.01416209      -0.00490985
H       11.61568712       7.10581477       7.12147851       0.00477447      -0.00202227      -0.00026608
H       12.04133180       9.47621875      10.66266457      -0.02139679       0.02076721      -0.01159844
H        9.77947812       5.83416403       8.19194455       0.01574139      -0.01275389       0.00966870
H       10.20543271       8.18948506      11.73557037      -0.01225759       0.01059870      -0.00184262
H        9.07102449       6.39193384      10.47800356       0.01085708      -0.00612502       0.00300908
C        4.37321822      10.97435904       4.28450429      -0.00781906       0.01125449       0.00776766
C        3.93235791       9.84815073       3.59502001      -0.00853228       0.00858642       0.01285612
C        3.80153454      12.21561743       4.04468294      -0.00752258       0.01183157      -0.00433478
C        2.93577500       9.96182412       2.63812652      -0.00234722       0.00132658       0.00949468
C        2.82078991      12.34317320       3.06186654      -0.00326294       0.00433670      -0.00674826
C        2.40497504      11.21649992       2.34628604      -0.00186523       0.00081679      -0.00230673
H        5.18553395      10.88513866       4.99133900      -0.01131783       0.01636848       0.00991014
H        4.40437461       8.88825036       3.76229487      -0.00958542       0.00831468       0.02316398
H        4.15937796      13.08866242       4.57579017      -0.00712710       0.01447531      -0.00956873
H        2.64489723       9.10102898       2.04461795      -0.00166758      -0.00136083       0.01265445
H        2.54252631      13.36088249       2.76761170      -0.00372449       0.00243888      -0.01476130
H        1.79514095      11.29096253       1.44634646      -0.00013598      -0.00431101      -0.00271923
C       10.93599247       1.01136403       2.96796563      -0.00623225      -0.00239241      -0.00053092
C       11.81497221       1.46664763       3.95975741      -0.00438807      -0.00972447       0.00124146
C       11.18524179       1.30664905       1.62042950      -0.00484046      -0.00134749       0.00116736
C       12.97043763       2.16990754       3.59814667      -0.00146477      -0.01265023       0.00270617
C       12.33095557       2.02378158       1.25879609      -0.00091364      -0.00611162       0.00275007
C       13.23458293       2.43721981       2.24587538      -0.00050496      -0.01143037       0.00415978
H       10.05634383       0.44391041       3.24117050      -0.00854561      -0.00036574      -0.00174067
H       11.60013806       1.27109076       5.00103241      -0.00422588      -0.01343266       0.00042167
H       10.49200145       0.98359686       0.85330555      -0.00615560       0.00251725       0.00007762
H       13.64370044       2.53493659       4.36367911      -0.00003035      -0.01783229       0.00431363
H       12.52922389       2.22135684       0.21076180       0.00156390      -0.00567082       0.00341211
H       14.12136447       2.99167961       1.96450846       0.00235052      -0.01425034       0.00443337
C        6.60902249       5.15526887       2.60926643      -0.00345430       0.01095390       0.00004525
C        5.90812966       4.18854716       3.32328661      -0.00917584       0.01357226      -0.00337756
C        7.95187780       4.95190915       2.31611305      -0.00560081       0.00948495       0.00215673
C        6.54703483       3.02825476       3.74013610      -0.01080350       0.00946032      -0.00406048
C        8.59232869       3.78882810       2.72809079      -0.00689039       0.00472446       0.00131088
C        7.88936613       2.82804236       3.44247867      -0.01329019       0.00708412      -0.00209400
H        6.11544301       6.05648236       2.26305324      -0.00051698       0.01408899      -0.00141393
H        4.85722163       4.33318365       3.53970073      -0.00850108       0.01551170      -0.00527450
H        8.49862189       5.70574244       1.76425452      -0.00154258       0.00729337       0.00456014
H        6.00344751       2.27625257       4.29873769      -0.01591372       0.01120256      -0.00665274
H        9.64068641       3.63971483       2.49901099      -0.00869160       0.00319371       0.00201562
H        8.38461805       1.92797376       3.78300496      -0.01550513       0.00374359      -0.00333236
C        9.60784203      10.97667626       1.02014322      -0.01199412      -0.00383439      -0.01811953
C        9.79555248       9.68379387       1.50087321      -0.00743071      -0.00355354      -0.01112438
C        8.65948903      11.80519215       1.61333996      -0.01008344      -0.00429082      -0.01848591
C        9.03389616       9.21854890       2.56781057      -0.00216775       0.00380346      -0.00631794
C        7.91445508      11.34575165       2.69489471      -0.00511752       0.00303626      -0.01351521
C        8.09871708      10.05178340       3.17060209      -0.00020050       0.00290215      -0.00607811
H       10.17291204      11.32633684       0.16281930      -0.01537634      -0.00825805      -0.02121612
H       10.51745266       9.03084857       1.02402038      -0.00931527      -0.00424971      -0.01157358
H        8.47383864      12.79055906       1.20111657      -0.01314484      -0.00551149      -0.02373560
H        9.15272748       8.19941475       2.91736798       0.00093523       0.00414780      -0.00106265
H        7.16631192      11.98626742       3.14707424      -0.00384023       0.00258320      -0.01354670
H        7.49954403       9.68534130       3.99627875       0.00358478       0.00828662      -0.00230135
C        5.74695341       2.33112977       0.30286883      -0.01457229       0.00790719       0.00162094
C        5.33165430       1.01248036       0.42956523      -0.01393998      -0.00648220      -0.00078273
C        4.80610662       3.34697614       0.18372044      -0.01214958      -0.00768483      -0.00087700
C        3.97785040       0.70315296       0.40828395      -0.01663455       0.00687148      -0.01225961
C        3.44945166       3.04265035       0.17652113      -0.01473783       0.00548466      -0.00792331
C        3.03724624       1.71818650       0.28081618      -0.01433417      -0.00955857      -0.01523102
H        6.80420459       2.55999517       0.26603992      -0.01537192       0.00983038       0.01108529
H        6.06812889       0.22104518       0.47598343      -0.00940642       0.00773990      -0.00263696
H        5.13148522       4.37425410       0.08374399      -0.02601977       0.00248142       0.00331575
H        3.67957043      -0.33801199       0.44018046      -0.00678473      -0.00499146      -0.01110492
H        2.72012950       3.83455631       0.05328820       0.00341634       0.01342446      -0.00195294
H        1.97960546       1.48335303       0.19530732      -0.01382630      -0.01092797      -0.02021231
C        9.52304403       3.13546934      11.34395420      -0.01159196       0.01447333       0.00884954
C        8.53933250       2.83450742      10.40862577       0.01772538      -0.00036547       0.00925757
C        9.32913181       4.17871521      12.24141967       0.00301377       0.00009643       0.01121637
C        7.36716668       3.57953277      10.36985623      -0.00930552       0.00944688       0.00168605
C        8.15825864       4.93007323      12.19801479      -0.02397428       0.01005003       0.00359342
C        7.17849435       4.63207443      11.25784175       0.00554335      -0.00444047       0.00295732
H       10.43407114       2.54820462      11.36893121       0.00386693       0.01086167       0.01331808
H        8.65786535       2.00050174       9.72807575       0.00936043       0.00729334       0.00775602
H       10.09952822       4.42009038      12.96528213      -0.01427563       0.00821885       0.01309665
H        6.59158107       3.32049711       9.65884589       0.00786342       0.00030600       0.00071329
H        8.00862622       5.76150987      12.87447693      -0.01660016       0.00073141       0.00651875
H        6.27205287       5.22307388      11.22568481      -0.01034050      -0.00130478      -0.00563125
C       10.47669886       4.46175852       5.89282230       0.00354646      -0.01001809      -0.00233233
C        9.77725585       3.51756481       6.63746444       0.00125916      -0.01129214      -0.00258429
C        9.82005666       5.58265494       5.39756126       0.00286341      -0.00766160       0.00318593
C        8.41934961       3.68973577       6.88224832       0.00429346      -0.00870940       0.00011499
C        8.46691257       5.76463192       5.65444044       0.00595926      -0.00520872       0.00587225
C        7.76908629       4.81742286       6.39370594       0.00372432      -0.00643689       0.00553037
H       11.53816087       4.33512129       5.71373012       0.00158714      -0.01228078      -0.00507596
H       10.28616334       2.65327217       7.04688829       0.00125764      -0.01335402      -0.00671376
H       10.36332018       6.31908001       4.81768291       0.00407417      -0.00678569       0.00352402
H        7.87852536       2.94481312       7.45276458       0.00302196      -0.00944744      -0.00028954
H        7.95520401       6.64244295       5.28150677       0.00584307      -0.00348093       0.00981047
H        6.71281282       4.95802736       6.58601069       0.00561237      -0.00447213       0.00788476
C        7.20897505       8.20932876       7.99220282       0.01177160       0.00569056       0.00368585
C        5.90919724       8.34379149       7.52439233      -0.00284092       0.00768937       0.00412398
C        8.01632630       9.33138153       8.14001511       0.00160727       0.00469729      -0.00447784
C        5.41506693       9.60298607       7.20380637       0.00816774       0.00752656       0.01008346
C        7.52017150      10.58903055       7.82246969       0.01322676       0.00403723       0.00178480
C        6.22079716      10.72620113       7.35130818      -0.00091654       0.00596598       0.00343933
H        7.59165995       7.23359540       8.25994500       0.00460219       0.00582027      -0.00065281
H        5.26962596       7.47441081       7.43109713       0.00333023       0.00813755       0.00859219
H        9.01719957       9.22211775       8.53746712       0.01050837       0.00335371      -0.00689912
H        4.39666917       9.70252922       6.85396114       0.00068088       0.00835357       0.01136185
H        8.10435227      11.48377650       7.99614929       0.00821053       0.00382441      -0.00358676
H        5.83949892      11.71997346       7.14218593       0.00601707       0.00651915       0.00702408
C        2.18657934       7.26660434       9.58518941      -0.00247640       0.01369731      -0.02247877
C        2.27865999       7.42727706       8.20837841       0.00217451      -0.02278395       0.01078570
C        1.87476540       8.35081515      10.39464485       0.00458609      -0.02573808       0.00659448
C        2.08325841       8.67750271       7.63319514      -0.00282596       0.01750358      -0.01760617
C        1.66294006       9.60028578       9.81893019       0.00012869       0.01399428      -0.02060260
C        1.78237222       9.76870953       8.44095527       0.00344982      -0.01673922       0.00903055
H        2.36401306       6.29939328      10.03548769       0.00039387      -0.01016401      -0.00663395
H        2.50725678       6.57492871       7.58013432      -0.00101729       0.00119026      -0.00786313
H        1.81446629       8.22083293      11.46983501       0.00108375      -0.00487050      -0.01067847
H        2.15298008       8.79894807       6.55830446       0.00041274      -0.00222876      -0.00025541
H        1.34464504      10.43751426      10.43166055       0.00653769      -0.00643331      -0.00391017
H        1.58942190      10.74009356       7.99753818       0.00166971       0.00151721      -0.00453500
C       12.87845922      11.16188893       4.76425882       0.01645185      -0.00422779       0.00288082
C       13.30964732      12.09001207       5.71850294       0.01575155      -0.00837280       0.01436989
C       11.56544379      10.68448804       4.78765113       0.00769338       0.01562765      -0.00612166
C       12.43725461      12.49928453       6.72341954       0.01703930      -0.00510380       0.00152922
C       10.70346416      11.09441646       5.80090111       0.00844465       0.01672139      -0.01711226
C       11.14390233      11.98555314       6.77448526       0.00765087       0.01206181      -0.00264025
H       13.60123858      10.71736357       4.07507180       0.01643817      -0.00655954       0.00967589
H       14.33321491      12.45168574       5.70361590       0.02208051      -0.02202167       0.01864763
H       11.22420904       9.96749913       4.05127831       0.00686738       0.01985069      -0.01479786
H       12.76866168      13.18855842       7.49068994       0.01591533      -0.00909375       0.01098552
H        9.70014660      10.69079224       5.85259111       0.00269029       0.02889703      -0.02177786
H       10.48534924      12.26953203       7.58604496       0.00727628       0.01378016      -0.01125166
