147
Lattice="12.651861569215567 0.0 0.0 0.0 12.651861569215567 0.0 0.0 0.0 12.651861569215567" Properties=species:S:1:pos:R:3:forces:R:3 energy=-230954.671875 stress="0.00032262428430840373 -0.000146331571158953 -0.00029989176255185157 -0.000146331571158953 -0.0010944763198494911 0.00013872118870494887 -0.00029989176255185157 0.00013872118870494887 -0.00037872130633331835" pbc="T T T"
Li      11.84449244      11.63184726      10.79177875       0.01505892      -0.00038221       0.00281338
Li       5.31522977      10.72369056      14.65436189      -0.02640629      -0.00603713      -0.02838257
S       10.59008390       0.15240161       0.61891548       0.00020601      -0.02301772      -0.00563020
O       10.45473443       1.51442976       1.15531176      -0.01110725       0.00854397      -0.00273323
O       11.40898764       0.19450605      -0.65111987      -0.01513231      -0.00314102      -0.00044537
O       11.27335738      -0.74132670       1.57673104      -0.01114261       0.00690067      -0.00792074
O        9.23795179      -0.39531391       0.27829651      -0.00882530      -0.00391281       0.00151378
S       10.25378328       9.55016029       9.35817682       0.02038884       0.00191170       0.00715685
O       11.56901183      10.29684051       9.54458906       0.02572858      -0.00785327       0.00654668
C       10.71274241       7.82805842       9.23157569       0.00631842      -0.00178427       0.00741227
C        9.70856189       9.86247249       7.68283439       0.02316627       0.00225189       0.00625956
H       11.31399066       7.63021073      10.11656184      -0.00256371      -0.01056420       0.01111920
H       11.25391967       7.64558512       8.30557295       0.01133987      -0.00448201       0.01084989
H        9.81401477       7.21603100       9.28593794       0.00072747       0.00606873      -0.00164697
H        8.73212439       9.38632701       7.58063729       0.02258985       0.00420689       0.00480114
H       10.40601813       9.44000285       6.96297252       0.02305377      -0.00002436       0.00754328
H        9.61897394      10.94150157       7.56306766       0.02547531       0.00216660       0.00457165
S        4.30786087       6.87123443       3.78570182      -0.00294864       0.00891836       0.00260603
O        4.76687044       7.19999567       5.15983043      -0.00575292       0.00420532       0.00436509
C        4.99314430       5.26345333       3.33339015      -0.00343156       0.00968212       0.00009473
C        5.34325522       7.84946740       2.64896414       0.00074792       0.01158835       0.00751734
H        4.56818690       4.53304678       4.01632470      -0.00346571       0.00885125      -0.00101852
H        6.07598727       5.27265517       3.45862090      -0.00348054       0.00901247       0.00004093
H        4.71474727       5.03550948       2.30526370      -0.00354874       0.01073421       0.00007601
H        4.89889157       7.85031459       1.65244312      -0.00249647       0.01968528       0.00899927
H        6.37421898       7.49430491       2.65989683      -0.00141189       0.00495996       0.00102577
H        5.29905244       8.84803609       3.09246706       0.01019362       0.00843536       0.01477831
S       10.57776567       9.23340804       2.38152719      -0.00646365      -0.00419486      -0.00113598
O       10.32614591       7.83943841       2.87387330      -0.00757751      -0.00914621       0.00505286
C        9.26267356      10.25674301       3.07282587      -0.00494552      -0.00531274       0.00003797
C        9.99250981       9.23909067       0.67800429      -0.01060399      -0.01110980       0.00142413
H        9.48888266      10.41154403       4.12716433      -0.00387990      -0.00593053       0.00025773
H        8.32364544       9.71003230       2.96811723      -0.00640123      -0.00165188       0.00005951
H        9.25192740      11.20264519       2.53848228      -0.00170550      -0.00474398       0.00046460
H        9.74281402      10.25652918       0.37199233      -0.00154193      -0.01108417      -0.00304258
H        9.13410748       8.56626721       0.63692861      -0.01621927      -0.00412354       0.00545470
H       10.78805045       8.82869769       0.05818059      -0.01458983      -0.02227682       0.00215260
S       11.50358701       5.13560004       1.82323644       0.00852425      -0.00154328      -0.00148726
O       11.84654563       4.32025261       3.02488719       0.01494175       0.00180519      -0.00288689
C        9.71259341       5.10167706       1.64709129       0.00817335      -0.00878949       0.00279231
C       11.83393158       4.11548039       0.37156489       0.00738820      -0.00413424      -0.00076652
H        9.31310927       5.71042591       2.45387019       0.00804871      -0.01218730       0.00545166
H        9.40225523       4.05878762       1.71805085       0.01321955      -0.01037303       0.00120691
H        9.44161373       5.52472228       0.67814962       0.00409165      -0.00741023       0.00481614
H       11.46012131       4.64793217      -0.50516982       0.00097964      -0.00845467      -0.00080943
H       11.34386297       3.14317590       0.49033864       0.01299343      -0.00420624       0.00346658
H       12.91248716       3.97829121       0.31081922       0.00847398       0.00275420      -0.00565068
S        4.34544925       3.28778638       6.69505842      -0.00419545      -0.00850740      -0.00456613
O        5.62049285       3.42902999       5.92796995      -0.00762641      -0.00830427      -0.01150542
C        4.79006202       2.89288434       8.39998057       0.00513670      -0.00189519      -0.00580162
C        3.69803069       1.65356770       6.28963535      -0.00232692      -0.01096046       0.00394122
H        5.19376950       3.80176596       8.84245119       0.00422829       0.00053203      -0.01018142
H        5.55163254       2.11288903       8.38700921       0.00758040       0.00054640      -0.00694170
H        3.89591165       2.56200424       8.93027793       0.00865451      -0.00341237      -0.00090599
H        2.87556802       1.40253431       6.96018589      -0.00025198      -0.00893176       0.00719516
H        4.51921806       0.94340022       6.39310013      -0.00146146      -0.00958540       0.00567802
H        3.35378956       1.68641671       5.25675729      -0.00506283      -0.01577440       0.00475387
S        6.44647422       0.75006922       1.61624938      -0.01001385       0.00308049      -0.01804101
O        6.00931044      -0.37139686       2.55826289      -0.00854191      -0.00801826      -0.03357399
C        7.71688049       1.64351067       2.48355389      -0.00860453      -0.01025721      -0.00533491
C        5.10647057       1.93802853       1.66287889      -0.00655282       0.00751078       0.00953053
H        8.32306494       0.88144538       2.96846183      -0.00044200      -0.01761453      -0.02928623
H        7.28946459       2.32634092       3.21708572      -0.00793734      -0.03043601       0.01370353
H        8.37299242       2.11472379       1.75183823      -0.01892996       0.01282212       0.00296593
H        5.30498743       2.68550663       0.89416636       0.00023116       0.03222943       0.03769912
H        5.03122959       2.38691419       2.65172432      -0.01188969      -0.02351150       0.02262601
H        4.19929486       1.37960283       1.44179629      -0.00749967       0.02079883      -0.01517333
S       10.29235320       0.92434345       4.81780449       0.00326616      -0.00735396      -0.01150227
O       10.34004198       0.05183618       6.04085354       0.01082787      -0.00783241      -0.01186824
C       11.97359730       1.40497735       4.43067526       0.00123340      -0.00970356      -0.02239812
C        9.71690438       2.54543940       5.35732123       0.00926863      -0.00736612      -0.00552297
H       12.46503253       0.52981230       4.01180216      -0.00292805      -0.00933094      -0.02725116
H       12.45602248       1.73829911       5.35169423       0.00765469      -0.01161553      -0.02503853
H       11.94374146       2.20137962       3.68620218      -0.00149810      -0.00820683      -0.02072674
H        9.92822599       3.27044593       4.57028049       0.00556472      -0.00623287      -0.00572796
H       10.22772409       2.81813395       6.28178151       0.01588349      -0.00912272      -0.00887987
H        8.64696317       2.47334074       5.54943772       0.01077287      -0.00551382       0.00128765
S       10.62448815       2.56078048       9.79931266       0.00706387      -0.00245887      -0.00471258
O        9.59523786       3.20413036       8.91518156       0.00049937      -0.00436759       0.00323939
C       12.21580396       3.29050343       9.36284229       0.00286883       0.00133231      -0.01412007
C       10.93759348       0.93806492       9.08481009       0.00635884      -0.00129223      -0.00755864
H       12.16384090       4.34143079       9.64013503       0.00332421       0.00029829      -0.01060660
H       12.38714096       3.18655753       8.29173330      -0.00525447       0.00502882      -0.01572885
H       12.99235097       2.77732863       9.92963766       0.00808047       0.00080465      -0.02194861
H       11.96461179       0.64619246       9.29825532       0.00659626      -0.00142359      -0.00936514
H       10.77902151       0.98717526       8.00619640       0.00473552      -0.00002101      -0.00716242
H       10.22752948       0.25023583       9.54065367       0.00781448      -0.00185816      -0.00659753
S        7.63476645       5.09222291      10.55423515       0.00479889       0.00131607       0.00323355
O        8.88560528       5.71466149      11.08590997       0.00151050       0.00625789       0.00372732
C        6.26715913       5.94075888      11.38050956       0.00092530       0.00104633      -0.00261760
C        7.41804400       3.51177839      11.40037361       0.00668580       0.00348949       0.00773755
H        6.27723331       6.97768779      11.04109663      -0.00387172      -0.00079250      -0.00896005
H        6.40926236       5.88005597      12.46222394       0.00115518       0.00836378      -0.00230616
H        5.32998433       5.46842264      11.08064701       0.00282785      -0.00403173       0.00025678
H        6.44024941       3.10518218      11.13745470       0.00916193      -0.00084300       0.00579754
H        7.50595136       3.66976654      12.47550658       0.00262689       0.00720265       0.00752980
H        8.19907560       2.84354033      11.04922602       0.01012006       0.00498685       0.01259060
S        9.50435912       6.24121215       5.66677677      -0.00918174      -0.00606275       0.00690949
O       10.50776572       7.19690703       6.22448401      -0.00615144      -0.01149011       0.01063484
C        8.15457225       7.22433305       4.99344042      -0.00497794       0.00119305       0.00945662
C        8.56749610       5.59625530       7.06180468      -0.01158684      -0.00695418       0.00451249
H        8.51424781       7.61865209       4.04585846      -0.00478353       0.00045590       0.00955106
H        7.92397857       8.02865690       5.69163554       0.00069078       0.00150647       0.01091032
H        7.27469837       6.59409824       4.88090735      -0.00868515       0.00619454       0.01026048
H        7.76661824       4.95458151       6.69027371      -0.01350619      -0.00337692       0.00262438
H        8.14786924       6.43470500       7.61944412      -0.00901388      -0.00682431       0.00643826
H        9.23662024       5.00873974       7.68860137      -0.01344530      -0.01028743       0.00327230
S        2.49243051       7.62443284      -0.52221714       0.00468108       0.01499623       0.00165254
O        3.29064083       8.65807314       0.22182851      -0.00674361       0.01484472       0.01346582
C        0.76843778       7.88250002      -0.07177198      -0.00055099       0.00513037      -0.01318112
C        2.67907757       6.06568891       0.36696288       0.00323975       0.01182252      -0.00347883
H        0.47854250       8.85557227      -0.46497985      -0.00425484       0.00242306      -0.01683985
H        0.66147697       7.85172523       1.01243793      -0.00913508       0.00532877      -0.01394787
H        0.16259868       7.10074070      -0.52960257       0.00862412       0.00062275      -0.01721491
H        1.97395554       5.34487446      -0.04414887       0.00992286       0.01096939      -0.01313964
H        2.48175008       6.23154860       1.42717017      -0.00678290       0.00603550      -0.00459152
H        3.69675156       5.71841278       0.20503616       0.00581841       0.01664840       0.00379124
S        7.26231038       9.97880267      11.07620131      -0.01306009      -0.01033574      -0.01714361
O        6.37534327       9.09753972      10.25729754      -0.03848314       0.01832360      -0.01446414
C        6.41553421      10.26611144      12.65312213       0.00866994      -0.01010580      -0.00568014
C        7.06017170      11.65645396      10.44986595       0.01491235       0.00261176       0.00793085
H        6.40265647       9.29851783      13.15978614      -0.00670321      -0.01381019      -0.01380329
H        5.39381759      10.60681485      12.44427633       0.01395787       0.01087872       0.00224109
H        7.02290209      10.99680839      13.19471559       0.02251148      -0.02593163      -0.00150514
H        7.56905748      12.34471442      11.12716885       0.03411094      -0.01824338       0.01394907
H        5.99326544      11.86704807      10.35710179       0.01849911       0.02516652       0.02182226
H        7.52612025      11.67563622       9.46564670       0.00605981       0.00923559       0.00409174
S        3.03784699      11.15131595       2.92485980      -0.01161069      -0.00079846      -0.00186147
O        2.82465460      12.56565743       2.51846840      -0.00525904       0.00193107       0.00270095
C        1.55952442      10.22814776       2.55415968      -0.01868260       0.00872070       0.00308888
C        3.01332632      11.03933489       4.71523455      -0.00330171      -0.00348827      -0.00204635
H        1.50919230      10.17936584       1.47008713      -0.02113955       0.00597567       0.00350085
H        0.69285095      10.75966861       2.94655791      -0.01444328       0.01650193       0.00216301
H        1.65825990       9.22154378       2.96228450      -0.02669663       0.00939460       0.00596286
H        3.19273548      10.00280944       5.00855086      -0.01318106      -0.00589028      -0.00465813
H        2.05346071      11.40179047       5.08505168       0.00289539       0.00647437       0.00371990
H        3.82656692      11.66948777       5.06928296       0.00544642      -0.01354392      -0.00501794
S        1.77591856      11.83483498      10.09905152       0.00164926       0.02423143       0.01523787
O        1.89045456      13.10588393       9.32089596       0.01464978       0.02493167       0.01676053
C        2.83270385      11.96661918      11.54396953       0.00251395       0.01005632       0.01557237
C        2.70065940      10.56660345       9.21923544      -0.01355627       0.01610839       0.01257181
H        2.33089990      12.62489085      12.25170875       0.00862801       0.01228310       0.01763232
H        3.79619609      12.37552311      11.23348265       0.00632568       0.00177766       0.01609154
H        2.94932735      10.97173692      11.98038761      -0.00642601       0.00768992       0.01193963
H        2.83014806       9.68851620       9.85121847      -0.03094289       0.01153205       0.00908647
H        3.67387883      10.97603485       8.94527566      -0.00560191       0.00057042       0.01864241
H        2.12240226      10.30532962       8.33551111      -0.01467542       0.02869580       0.00963408
