143
Lattice="12.274141390265974 0.0 0.0 0.0 12.274141390265974 0.0 0.0 0.0 12.274141390265974" Properties=species:S:1:pos:R:3:forces:R:3 energy=-2485677.25 stress="0.00030779390363022685 0.0003792007337324321 -0.00022287530009634793 0.0003792007337324321 0.0005601071752607822 -0.0004099934740224853 -0.00022287530009634793 -0.0004099934740224853 -0.0006973121198825538" pbc="T T T"
Md       7.75226895      13.17714328       1.17862427      -0.00812435       0.00118196       0.00641561
Md       5.29362758      10.30739584       2.09833616      -0.00223786       0.00013357       0.01237637
O        8.38761974       9.68942896       8.44894986       0.00684470       0.00331640      -0.00726855
O        5.80487088      10.90481378       8.32397052      -0.00088060      -0.01102430      -0.00661246
O        7.52079375      10.99013085       5.95129558       0.00507402       0.01770490       0.00279444
O        8.13129680      12.52852349       8.37658946      -0.01314950       0.00276661       0.01564968
Mo       7.46854020      11.03349944       7.80000783      -0.00296532       0.00199690       0.00193912
O        6.34906562      12.03628630       2.05601899      -0.01971683       0.00727230      -0.00498554
O        9.23802757      11.44870435       1.20803479      -0.00795276      -0.00464422       0.00367361
O       11.27090380      11.51161774       3.22917450      -0.00137508       0.01915138      -0.00750627
O        8.91762254      13.18374712       3.22093545      -0.00472228       0.00666571      -0.00230911
Mo       9.57626249      11.55952492       2.95362672       0.01103008       0.00583168       0.00329648
O        6.69885401       8.34123087       5.66033384       0.01664574       0.01302922       0.01776332
O        6.77374679       8.89115895       2.94459559       0.00971040       0.00580329       0.01226544
O        8.73833667      10.24873462       3.90284173       0.00976384       0.00989211       0.01163685
O        5.35258428      10.49437255       4.37977918       0.00761682       0.00349098       0.01036640
Mo       6.89609795       9.67559123       4.59407803       0.00928292       0.00729838       0.01053160
O        1.52398627       2.77764402       2.22261560      -0.00694007       0.01032956      -0.01278636
C        2.79765656       2.41730219       1.69624833      -0.00606251      -0.00211954       0.00118105
C        3.61480508       1.57977007       2.65397059      -0.01140529       0.01698044       0.02028996
H        2.68052495       1.90285233       0.73247453      -0.00221148      -0.02107087       0.01128709
H        3.30111091       3.36435866       1.48748839      -0.00315094      -0.00834697      -0.01530556
H        4.57999310       1.29649912       2.22871766      -0.01029389       0.00759435       0.03089379
H        3.79409234       2.11093284       3.58887953      -0.01517962       0.03747056       0.00852229
H        3.08325804       0.65703175       2.89938812      -0.01459396       0.02429114       0.03724069
H        1.08501056       1.97291995       2.51565652      -0.01043385       0.01656620       0.00094454
O        7.12248373       2.86784277       2.39873618       0.00720099       0.00690047       0.00902647
C        6.84177123       4.24703585       2.11234034      -0.00048532       0.00537874      -0.00282046
C        6.21149169       4.93459754       3.29985802       0.00507030       0.01158462      -0.00374097
H        7.76280929       4.75032395       1.80538648      -0.00325888       0.00604832      -0.01026869
H        6.16953749       4.23002484       1.25427090      -0.00397810      -0.00287008       0.00217023
H        6.03665971       5.98837246       3.07330732       0.00513989       0.00990318      -0.01095966
H        5.27303156       4.45447936       3.57962856       0.00546277       0.01567575       0.00343999
H        6.87458831       4.89898225       4.16529444       0.00799847       0.01891752      -0.00646590
H        7.62581090       2.77468368       3.21887322       0.00130770       0.01307052       0.00379843
O       12.55963060       1.57378813       7.83333022       0.00252640       0.00060366       0.00537473
C       11.20243041       1.84480293       8.17087840       0.00174114      -0.00207016      -0.00704888
C       10.98277986       3.30865149       8.48637096       0.00241465      -0.00471562      -0.00233474
H       10.52323982       1.51216407       7.37977816       0.01063189       0.00420001      -0.01740909
H       10.98883782       1.21903865       9.03813488      -0.00825455      -0.00888339      -0.01290059
H        9.94929662       3.47770229       8.79570894       0.00225247      -0.00858675      -0.00494727
H       11.65365836       3.61964916       9.29060460      -0.00116976      -0.00903283       0.00134009
H       11.17100368       3.95091294       7.62248225       0.00315133       0.00106771       0.00237605
H       12.79178913       2.11857981       7.07701770       0.00450894       0.01385898       0.00928564
O        7.10980190       2.24624058      11.53998497      -0.01121557      -0.00091711       0.00991699
C        7.96672431       3.33041248      11.13155018      -0.00429800      -0.01022395      -0.00170115
C        9.30746497       3.14199746      11.79707723      -0.00696078      -0.00760858       0.00314510
H        8.05996333       3.31240687      10.04520719      -0.00307530      -0.02443867      -0.00110993
H        7.49655372       4.27275509      11.40962649      -0.00109074      -0.00497839      -0.01420102
H        9.96231862       3.98519773      11.57437197      -0.00172665      -0.01407534      -0.00295795
H        9.21514754       3.11951259      12.88631687      -0.01010074       0.00301066       0.00315931
H        9.79299574       2.22844410      11.44863311      -0.00966856      -0.01411411       0.01458245
H        6.43375714       2.07753757      10.87344513       0.00243935      -0.02087979       0.00436014
O       10.79595795       6.23361741       5.93328255       0.00339377      -0.00287067      -0.01248527
C        9.47079607       6.09805964       5.47490323       0.00199401      -0.00645611      -0.00677950
C        8.46816931       5.91763696       6.60198762       0.00710845      -0.00698999      -0.00263476
H        9.17223972       6.97397110       4.87519971      -0.00202228      -0.00772023      -0.00662535
H        9.46492326       5.22393581       4.81369602       0.00131612      -0.00743371      -0.00580528
H        7.46311834       5.76445788       6.20446492       0.00501622      -0.00630008       0.00245013
H        8.74358160       5.06627930       7.22527277       0.00968675      -0.00745846      -0.00445721
H        8.43903198       6.81086917       7.22601441       0.01105662      -0.00731985      -0.00190264
H       10.80089956       7.02304959       6.51023448       0.00298749      -0.00084589      -0.01417230
O        3.46877589       8.15006896       3.19172292       0.00059301      -0.00479886       0.00297572
C        2.37545880       7.26184793       3.53583156      -0.00143387      -0.00203985       0.00234222
C        2.30289994       6.08237124       2.59790923      -0.00552212      -0.00123471       0.00191435
H        2.48800993       6.94346924       4.57286240      -0.00416688      -0.00204395       0.00204208
H        1.47866210       7.87876646       3.47733734       0.00002271       0.00117958       0.00058873
H        1.48574444       5.41283219       2.86523964      -0.00831461       0.00190893       0.00144969
H        2.15437282       6.41036883       1.56708276      -0.00331415      -0.00043139       0.00212027
H        3.22648913       5.50252975       2.64382733      -0.00799866      -0.00562184       0.00243742
H        4.29785958       7.72784719       3.44779380       0.00018257      -0.01117238       0.00166385
O        4.89588764      11.96164554      10.50916601       0.01309001       0.01064423      -0.00765276
C        6.03007816      11.60063740      11.25895310       0.00952119       0.00098127      -0.00715107
C        6.21996899      10.10179200      11.46250716      -0.00512198       0.00016260      -0.00375421
H        6.94960471      12.00131850      10.80216551       0.01317376      -0.00737412      -0.00620571
H        5.89480491      12.07969747      12.23306490       0.01172214       0.00245519      -0.00774309
H        7.02483646       9.92426447      12.18740228      -0.00699782      -0.00521698      -0.00359005
H        5.29094595       9.63317216      11.79700688      -0.00910774       0.01010424      -0.00253302
H        6.50751757       9.61775749      10.52742594      -0.00945399      -0.00452174      -0.00315300
H        5.06059565      11.60876199       9.59885039       0.00737840       0.00404130      -0.00737984
O        3.31965833       9.49253681       0.87389877      -0.00087501       0.00815022       0.00842449
C        2.52232910      10.64745496       1.19712866      -0.01257071       0.00379802      -0.00519675
C        1.04438593      10.40812039       1.04058666      -0.00671560      -0.01510875      -0.01376985
H        2.73900599      10.94562215       2.23451415      -0.02353371       0.01282217      -0.00644472
H        2.88495203      11.43719877       0.53551814      -0.01821709       0.00174558      -0.01063982
H        0.48084411      11.28961309       1.34587519      -0.01960559      -0.01985814      -0.02600907
H        0.79571867      10.15894447       0.00998312       0.00771925      -0.02680783      -0.01361203
H        0.71925032       9.59849793       1.69550423       0.00046839      -0.01363900      -0.00885271
H        3.15534891       8.81583668       1.56120174      -0.00471322       0.00882800       0.00776255
O        5.17624310       4.71761068      10.26198706      -0.00087029       0.00554395      -0.02464387
C        4.12706126       3.74778526      10.28552267       0.01160860       0.00792453      -0.01726247
C        2.75076371       4.36805261      10.42481475       0.00559634       0.00512052      -0.00486232
H        4.17428826       3.12366139       9.38921348       0.00229577      -0.00601828      -0.00415385
H        4.33506324       3.11390685      11.15184202       0.00397485       0.00236252      -0.00201824
H        1.98863544       3.58697459      10.45739179       0.00086877       0.00590979       0.00117972
H        2.68181506       4.95840137      11.34013652       0.00560941       0.00858786      -0.01251729
H        2.52832935       5.01764981       9.57612567      -0.00156255      -0.00037940      -0.00998528
H        5.10208823       5.22751548       9.44417436      -0.00023894      -0.01148022      -0.01444159
O        5.10025846       6.56571941       7.33728734       0.02096254      -0.00450030      -0.00006441
C        3.86419198       7.27838775       7.22555925       0.01273265      -0.01378816       0.00432205
C        3.62985779       8.23635763       8.37570697       0.01306228      -0.01268345       0.00360245
H        3.84760835       7.83051230       6.27954268       0.01050061      -0.01326835       0.00315225
H        3.07700188       6.52098173       7.18606169       0.01735610      -0.01588023       0.00495329
H        2.66177571       8.72814044       8.25690934       0.01176780      -0.01542439       0.00489216
H        3.62463658       7.70544223       9.32898143       0.01554496      -0.01348996       0.00386187
H        4.39768524       9.01127436       8.40448179       0.01122490      -0.01165701       0.00267739
H        5.78747022       7.14637258       6.97076393       0.01228565      -0.00590254       0.01291779
O       10.83331671       6.39295014       9.32473742       0.00547054      -0.00159872       0.00717169
C       10.15809992       7.33133615      10.15651495       0.00320023       0.00413129      -0.00164014
C        8.73789029       6.91551291      10.47775000       0.00339657       0.00498915      -0.00034834
H       10.72724169       7.49003472      11.08061838       0.00159743       0.01333979      -0.00276560
H       10.15216712       8.26606460       9.60184616       0.00251737      -0.00075340      -0.01006886
H        8.21241798       7.71321092      11.00302370       0.00301730       0.00805905      -0.00481357
H        8.18709490       6.70096311       9.56263005       0.00395615      -0.00042062       0.00122795
H        8.72458394       6.03381794      11.12125622       0.00360310       0.00876734       0.00521944
H       10.76587384       5.52576451       9.73186946       0.00249755       0.00039302       0.01414174
O        9.87412909       6.02472208       1.85312375      -0.01133722      -0.00625464       0.01411375
C       10.77609076       7.13131884       1.76712102      -0.00539763      -0.01115990       0.00872864
C       10.06359915       8.41337914       1.40539982      -0.00045392      -0.00745928       0.01273525
H       11.31201821       7.24530233       2.71758041      -0.00010312      -0.01421285       0.00647068
H       11.50744545       6.85178333       1.00534841      -0.01121742      -0.01472424       0.00545231
H       10.76132854       9.24917329       1.35058782       0.00358145      -0.01123072       0.00964285
H        9.56895689       8.33186535       0.44005303      -0.00603938      -0.00448981       0.01537578
H        9.30408002       8.65451886       2.15108384       0.00467904      -0.00363522       0.01695397
H        9.23267377       6.26008610       2.53131604      -0.00452151      -0.00422102       0.01714109
O       10.49518055       8.68063287       7.14694940      -0.00086731      -0.00462836      -0.01147819
C       11.55119557       9.58750150       7.41538888      -0.00221854      -0.00407743      -0.00638317
C       11.44221396      10.85733900       6.59837606      -0.00271569      -0.00185364      -0.00283933
H       11.58045608       9.82728285       8.48623785      -0.00634148      -0.00708951      -0.00545245
H       12.47933838       9.06009501       7.17877292      -0.00116116      -0.00202170      -0.00498782
H       12.26816868      11.53444063       6.82229362      -0.00558797       0.00000486       0.00231531
H       11.44886573      10.63411404       5.53194349       0.00206602       0.00146520      -0.00357178
H       10.51200767      11.37968586       6.83450917      -0.00538774      -0.00582028      -0.00511758
H        9.68154295       9.02315484       7.58556634      -0.00157845      -0.00496014      -0.01353839
O        4.94637196       3.39179376       6.97468865      -0.00008121       0.01779592      -0.00838405
C        5.92942927       2.36346396       7.10447757      -0.00200683       0.01793766       0.00022525
C        6.84860933       2.25710232       5.90444537      -0.00183079       0.00648792       0.00151873
H        6.52072401       2.49587627       8.01891006      -0.00237170       0.02471277      -0.00052613
H        5.36833794       1.43501801       7.22719160      -0.00342256       0.01999301       0.00711787
H        7.53680575       1.42028096       6.02583934      -0.00374745       0.00589865       0.00849358
H        6.26693758       2.09019923       4.99704636      -0.00206551      -0.00010897       0.00309046
H        7.44225682       3.16890762       5.79341276      -0.00015288       0.00410846      -0.00582295
H        5.37150193       4.25807549       6.98199112       0.00042441       0.01971693      -0.00403321
