143
Lattice="12.70949545059634 0.0 0.0 0.0 12.70949545059634 0.0 0.0 0.0 12.70949545059634" Properties=species:S:1:pos:R:3:forces:R:3 energy=-120257.0078125 stress="0.0007102320669218898 -0.0005849073349963874 0.0006106366927269846 -0.0005849073349963874 0.0007496131001971662 -0.00026247004279866815 0.0006106366927269846 -0.00026247004279866815 -0.00046656609629280865" pbc="T T T"
Na       4.79800648      13.47181468       6.35139008       0.00091612       0.04180124       0.07589683
Na      12.57617187      11.83150266       3.74596804       0.01424957      -0.02171743       0.01093963
P       12.15864538       1.48760965       2.60626127       0.05456352      -0.00492222       0.02765301
O       12.43056111       0.71227480       1.15010638       0.03421432       0.04187810      -0.00107324
O       11.92153769       2.94442062       2.33733763       0.06873083       0.00260282       0.07233244
O       13.42942921       1.18134146       3.43146509       0.05468583      -0.04310788       0.00661719
O       11.00085648       0.65672784       3.14337926       0.06422758       0.01191092      -0.01241189
H       13.10798379       1.18805248       0.66315961       0.02767232       0.05784897       0.00383130
O        8.20462146      12.18356395      11.78875979      -0.00199181       0.00696732       0.00656290
O       10.30373650      12.55247146      11.44113780      -0.00276484       0.01246744       0.00810900
O        9.58843378      10.40663725      11.53920674       0.00090457       0.01035988      -0.00332507
C        7.11480639      11.27245523      12.05532535      -0.00004774       0.00450659       0.00583387
C        5.86547860      12.10778992      12.15407068      -0.00212020       0.00157109       0.00517388
C        9.38915706      11.59834189      11.59492349      -0.00080715       0.00991023       0.00296737
C       11.63296009      12.05092766      11.25169868      -0.00005977       0.01764068       0.00960342
H        7.05804543      10.53008164      11.25942363       0.00205392       0.00401816       0.00619689
H        7.32355047      10.74046461      12.98403760       0.00022422       0.00558452       0.00655115
H        5.00504821      11.46022147      12.32984898      -0.00070691      -0.00041696       0.00479149
H        5.93789133      12.81993776      12.97559186      -0.00421266       0.00199112       0.00509809
H        5.70132777      12.67632238      11.23737229      -0.00285158       0.00116282       0.00495937
H       11.99315233      11.59453878      12.16982448       0.00385092       0.02719118       0.01283807
H       12.23585957      12.92279547      11.01756713      -0.00471663       0.01906601       0.00304947
H       11.63895790      11.33266385      10.43446514       0.00237763       0.01164909       0.01476990
O       10.96611468       6.58781081       8.37753221      -0.00022983       0.00006504      -0.00210190
O       10.79712806       8.44051341       7.28998600      -0.00522707       0.00155025       0.00121850
O       12.48229676       7.02426683       6.74568504      -0.01221704       0.00030333      -0.01250017
C       11.52165170       5.26398134       8.58616393       0.00602627       0.00190674      -0.00320110
C       10.45476574       4.44620393       9.26765139       0.01429954      -0.00020081       0.00756285
C       11.51772248       7.30905884       7.41317030      -0.00682735       0.00126439      -0.00515300
C       11.21101213       9.26924569       6.19318032      -0.01433390      -0.00532575      -0.00572147
H       11.80009768       4.85112385       7.61721798      -0.00044842       0.00011228      -0.00440171
H       12.42196459       5.37092127       9.19461473       0.01075074       0.00626415      -0.01083040
H       10.83347757       3.44543139       9.47728829       0.01885718       0.00090617       0.00548550
H       10.15400910       4.90018549      10.21172449       0.02142118       0.00000091       0.00980800
H        9.58029871       4.36800771       8.62268247       0.00862110      -0.00394784       0.01550460
H       12.18940133       9.70584375       6.39380467      -0.00629708      -0.01561108      -0.02519195
H       10.44900233      10.03693496       6.09772186      -0.01079093      -0.00088954       0.01714269
H       11.26088986       8.68368765       5.27938615      -0.04339758      -0.00354558      -0.00803766
O        4.74064700       3.88737673       8.43782843      -0.00189403      -0.00600848       0.00161277
O        3.29539789       4.81979193       9.74157064       0.00561358      -0.00389794       0.00904429
O        5.01836770       3.68111127      10.68240106       0.00758037      -0.00851434       0.00015759
C        5.94054191       3.11424904       8.24327412       0.00021884      -0.00143220      -0.00199503
C        6.20241655       3.09010873       6.75173576       0.00258779       0.00471433      -0.00204778
C        4.40456012       4.09418062       9.73265017       0.00378531      -0.00586718       0.00378984
C        2.80463637       5.18913076      11.04760310       0.01033373      -0.00598886       0.01201856
H        6.76826166       3.57561790       8.78213062      -0.00064215      -0.00114578      -0.00125049
H        5.79137314       2.11720920       8.67328063       0.00453189      -0.00274584      -0.00201128
H        6.96659541       2.35171833       6.49710969      -0.00377236      -0.00145213      -0.00473475
H        5.27285427       2.93012151       6.18790517       0.00441305       0.01852154      -0.00835537
H        6.57645656       4.05361652       6.40743390       0.01379582       0.00222310       0.00469097
H        2.44613338       4.30499438      11.57296258       0.01126964      -0.00683919       0.01130256
H        2.00119325       5.88979369      10.85079702       0.01011334      -0.00496773       0.01622182
H        3.59326475       5.66538707      11.62621416       0.01271206      -0.00824609       0.01066013
O        2.84000571       8.09734042       7.15213740      -0.00796900      -0.00310776      -0.00032125
O        1.54573408       9.65506284       7.89053018      -0.00439153      -0.00148471       0.00356030
O        1.88957489       7.83309561       9.19535671      -0.01940466      -0.01174670      -0.00653511
C        3.44916808       6.78086210       7.27305764      -0.01279142      -0.00576243      -0.00421900
C        4.21233280       6.50690300       6.00673584      -0.00852527      -0.00241272      -0.00246027
C        2.07736458       8.44163646       8.17437274      -0.01132444      -0.00569826      -0.00154960
C        0.73781551      10.19145017       8.94252777      -0.00727023      -0.00379243       0.00281531
H        4.08630409       6.79424147       8.15765932      -0.01600000      -0.01219662      -0.00182989
H        2.65354965       6.05831556       7.44702532      -0.01598328      -0.00406086      -0.01084817
H        4.67925753       5.52579844       6.09032721      -0.00820925      -0.00242774      -0.00378202
H        3.54834171       6.50708233       5.14450396      -0.00514601      -0.00054563      -0.00504273
H        5.00256638       7.23678049       5.83216999      -0.00859246      -0.00109090       0.00235798
H       -0.09826444       9.52970736       9.16526700      -0.00956950      -0.00274612      -0.00281768
H        0.37769858      11.14831008       8.57303922      -0.00408961      -0.00165613       0.00500206
H        1.32561202      10.32851344       9.85180328      -0.00998998      -0.00839356       0.00537844
O        3.25143411       9.28607331       4.53330346      -0.00078076      -0.00955540      -0.00973594
O        1.83667223       7.83829199       3.85136567      -0.00245488      -0.00873171      -0.01495863
O        1.13863412       9.97903301       4.12006327      -0.00291386      -0.01266721       0.00127455
C        3.57715492      10.55393080       5.11280672      -0.00420982      -0.00890374      -0.00608153
C        4.98453256      10.40193753       5.64255149       0.00133672      -0.00261809      -0.01971338
C        1.98498606       9.10278242       4.16234761      -0.00064707      -0.01075536      -0.00665154
C        0.56335885       7.43294858       3.30903432      -0.00838289       0.00046460      -0.00918810
H        3.48015266      11.32394735       4.33966012      -0.01609375      -0.00446218       0.00028116
H        2.85828238      10.77132905       5.90939152       0.00104389      -0.01925384       0.00115582
H        5.38282391      11.32641122       6.06233521       0.00155792       0.00387511      -0.03324411
H        5.00325923       9.66134340       6.44158414       0.01283158      -0.00084955      -0.01829271
H        5.67039723      10.08954588       4.85848219      -0.00783218      -0.00425838      -0.02717797
H       -0.21910682       7.59450377       4.04428593      -0.00073341      -0.01000054       0.00157410
H        0.67202683       6.37404515       3.10395653      -0.01183819       0.00363144      -0.02764887
H        0.35769638       7.98290509       2.39421892      -0.01682464       0.01611732       0.00210416
O        7.21122262      11.76122105       8.19175871      -0.01700876       0.00798398      -0.02442420
O        5.09322116      12.18966275       8.44587297      -0.01404750       0.01383638      -0.01320702
O        5.86828147      10.13560654       9.01951410      -0.01275552       0.02007686       0.00756382
C        8.37014194      10.86048827       8.31151431      -0.00993632       0.01512337      -0.01532595
C        9.60388993      11.71057076       8.23052003      -0.00955740       0.01916766      -0.01550533
C        6.07039418      11.23928136       8.59554667      -0.01387008       0.01347125      -0.00907648
C        3.81679034      11.74552955       8.96698287      -0.01463753       0.02267545      -0.00766486
H        8.29864825      10.33277228       9.26050508      -0.02250544       0.01456495      -0.01241815
H        8.30354362      10.13203479       7.50216234      -0.00600718       0.00963327      -0.01169559
H       10.47376025      11.05750673       8.30097502      -0.01880158       0.01199155       0.00716811
H        9.64778486      12.25197294       7.28793780      -0.00371765      -0.00207549       0.02172959
H        9.64064833      12.42853836       9.04779050      -0.01861444       0.00902051      -0.00758120
H        3.37525818      11.00945162       8.29866753      -0.01685238       0.01495983       0.00220843
H        3.19568515      12.63330182       9.04322769      -0.01234896       0.02536890      -0.01905224
H        3.95675040      11.30221518       9.94895034      -0.01439413       0.03691319      -0.00170261
O        8.06545748       6.02054406       7.31030108      -0.01773073      -0.01147577      -0.00004312
O        9.24581066       5.27372742       5.68213748      -0.01335059      -0.01893273       0.00599855
O        8.22598038       7.29585923       5.43334847       0.03514844       0.00668311       0.01649553
C        7.24976695       7.01275448       7.97724265      -0.00291941      -0.00007816       0.00196153
C        7.69627220       7.13492284       9.41174578       0.00148289      -0.00399002       0.00102746
C        8.48614211       6.30174754       6.06550837       0.00507526      -0.00636441       0.00829816
C        9.70273767       5.26374890       4.30410003       0.00529508      -0.01370979       0.01189671
H        7.32627740       7.95220236       7.43318597       0.00853106      -0.00178370       0.00057471
H        6.21967412       6.65888139       7.91284721      -0.00751832       0.01276374       0.00433740
H        7.01506665       7.79968418       9.94364723       0.01159807       0.00635765       0.00136282
H        7.67918494       6.16419576       9.90873231      -0.01147856      -0.00279424       0.00314479
H        8.70542242       7.53864902       9.47785997       0.00715896      -0.01771264      -0.00164822
H        9.14249052       4.50460680       3.76417908       0.01398247      -0.01479426       0.00494631
H       10.75312097       4.98797984       4.31180992       0.00600883      -0.00991592       0.02248963
H        9.55314302       6.24086776       3.85678027       0.00475082      -0.01375753       0.01180675
O        3.69183453       5.95582573       2.19633687      -0.00540280      -0.01075391      -0.01326983
O        4.38963398       7.98529905       1.99346490      -0.00121624      -0.01094665      -0.01458667
O        5.77700580       6.46103764       2.94104403      -0.00833189      -0.01137102      -0.00571197
C        3.86524656       4.56873717       2.59343977      -0.00553632      -0.00835968      -0.00419341
C        2.51265057       4.02791478       2.97934197       0.00138742      -0.00607057       0.01403026
C        4.72855176       6.76288133       2.42442898      -0.00596851      -0.01085597      -0.01082027
C        5.39962145       8.98640569       2.17675347       0.00012785      -0.01265955      -0.01114390
H        4.29350226       4.04118282       1.73624285      -0.01400924      -0.01534173      -0.00445002
H        4.58697389       4.54114106       3.41063968      -0.00188991      -0.00506177      -0.00804085
H        2.55091894       2.95775084       3.19335013       0.01904440       0.00572973       0.05353880
H        2.13124596       4.52938110       3.86996413      -0.00716853       0.01930964      -0.00476959
H        1.77976799       4.16056914       2.18314771      -0.00245298      -0.05135175       0.01129638
H        5.92301792       8.82558434       3.11723882      -0.00507127      -0.01110421      -0.00791442
H        4.87259853       9.93880386       2.17853691       0.00214171      -0.01160152      -0.01535992
H        6.12002268       8.93445817       1.36396094       0.00460774      -0.01538539      -0.00714958
O        9.81772023       7.94285912       1.83508983      -0.00298962      -0.00015464       0.00266254
O        9.23842179       5.94898576       1.25635677       0.00465395      -0.00373051       0.00490633
O        7.87770381       7.66697819       0.68646637       0.00607610      -0.00817102      -0.01133132
C        9.53664375       9.36003497       1.93729620      -0.00419557       0.00057852      -0.00501424
C       10.82921899      10.07233918       2.22952994      -0.00453272       0.00378737      -0.00986765
C        8.87486541       7.23053451       1.20746138       0.00296849      -0.00395867      -0.00194702
C        8.24790484       5.02338233       0.78256911       0.01060016      -0.00567836      -0.00390972
H        9.10593934       9.68757181       0.99619018      -0.00633463      -0.00553599      -0.00616342
H        8.81006553       9.50292854       2.74211533      -0.00173959       0.00523732      -0.00384998
H       10.64541765      11.15004813       2.30945565      -0.00596419       0.00299710      -0.00622062
H       11.26419990       9.70287747       3.16106518      -0.00146182       0.00308833      -0.01166132
H       11.54895222       9.90195521       1.42728574      -0.00687130       0.00667502      -0.01247509
H        7.37653574       5.05918195       1.43614510       0.00237215      -0.00394801      -0.01484424
H        8.72957561       4.05134936       0.82431224       0.00937830      -0.00589237       0.00392731
H        7.94565881       5.27219143      -0.23324343       0.02275243      -0.00875719      -0.00838852
