149
Lattice="11.363909517888947 0.0 0.0 0.0 11.363909517888947 0.0 0.0 0.0 11.363909517888947" Properties=species:S:1:pos:R:3:forces:R:3 energy=-124281.5703125 stress="0.0017415392212569714 0.0008235484710894525 -0.0020736546721309423 0.0008235484710894525 0.002204123418778181 0.0006150739209260792 -0.0020736546721309423 0.0006150739209260792 0.0028858559671789408" pbc="T T T"
Na       3.93374633       9.93768866       5.22795485      -0.00234657      -0.01241464       0.00986554
Na       8.75043708      11.08583441       6.26962296       0.00584623      -0.00119643      -0.00683548
P        9.10441013       1.30913353       1.35181560       0.01058215      -0.00804213      -0.00212662
O        7.65695847       1.93005090       1.02604774       0.01395768      -0.00771961      -0.01039036
O        9.62480020       1.96294142       2.63741583       0.00711727      -0.00948966      -0.00378025
O        9.97179776       1.64690189       0.15465771       0.01719975      -0.00115955      -0.00398189
O        8.90253129      -0.20609224       1.55422098       0.01486471      -0.00630289      -0.01089714
H        6.96400966       1.57605904       1.61966665       0.01326670      -0.00515682      -0.00864376
O        0.18978559       8.25971474       8.56220989      -0.01670399       0.00463977       0.02770537
H       -0.10632887       7.38130521       8.84357568      -0.02910806      -0.00123292       0.03492057
H        0.38948345       8.72302720       9.38553978      -0.02678791       0.00879205       0.02325207
O        2.47068564       5.66454991       3.43592751       0.00343342      -0.00036527       0.00721391
H        3.34587246       5.68829447       3.01371019       0.00257307      -0.00072316       0.00221754
H        2.00960640       6.50652155       3.20809326       0.00247785      -0.00169898       0.00814337
O        1.63759840       1.28359057       2.94085702       0.00037298      -0.00500625      -0.00495708
H        1.06301883       2.02477694       2.64357975      -0.00293188      -0.00837430      -0.00440955
H        2.33732248       1.75927720       3.42684017      -0.00048229      -0.00127412      -0.00638151
O        9.83968428       1.25275898       7.60681753       0.00620023      -0.00355632      -0.00223352
H       10.42551878       1.86995817       7.10763299      -0.00016935       0.00020125      -0.00610155
H        9.69474247       1.71248319       8.45733899       0.00284439      -0.00025479      -0.00390136
O        6.94146134       9.91933819       0.10586816       0.00197477      -0.00138625      -0.00433396
H        6.72800185       9.09150381       0.57496753      -0.00113168       0.00165880      -0.00070529
H        7.65309205      10.37889193       0.61943916       0.00493868      -0.00236566      -0.00659448
O        4.25328607       3.81921717       6.68692337       0.00091925      -0.00412457      -0.00648674
H        4.80696147       4.50769362       7.11001970      -0.00026513      -0.00113727      -0.00826794
H        3.61072525       3.50271091       7.35002264      -0.00080248      -0.00056458      -0.00736520
O        7.04171870       9.04303510       8.92176253       0.00515783      -0.00140429      -0.00187332
H        7.09809613       9.53100988       9.77661022       0.00661445      -0.00267683      -0.00064853
H        7.90436786       9.13113742       8.46357948       0.00342852      -0.00059875      -0.00459757
O        8.88404319       6.41843804       6.91745200       0.00903329      -0.00217059      -0.00839933
H        7.96840781       6.10247732       7.03218548       0.00800133      -0.00129233      -0.01197473
H        9.30484515       6.17125234       7.76479596       0.00655621      -0.00073443      -0.00675396
O       10.57046755       6.00030076       0.89255889       0.00549531       0.00610674       0.00252504
H       10.97546917       5.16480532       1.17848207       0.00318645       0.00980857       0.00512598
H       10.43054717       5.92107427      -0.06788808       0.00351626       0.00144927      -0.00123064
O        9.31160392       3.18260150       9.62530067       0.01060846      -0.00501089      -0.00335012
H        9.49658338       2.64499790      10.46280442       0.01246618      -0.00329487      -0.00568054
H        8.36058294       3.09387397       9.46928229       0.00755712      -0.00083799       0.00161934
O        9.75753647       5.84405164       9.53783965       0.00568034       0.00075562      -0.00087602
H        9.67086535       4.85594138       9.56511299       0.00991328       0.00151006      -0.00281744
H        8.86719293       6.15563356       9.81436283       0.00327306      -0.00199478      -0.00411853
O       11.43116434       0.00329269       4.88052199      -0.00129609      -0.00107811      -0.00076824
H       11.96746082       0.38600284       4.15504545       0.00175341      -0.00294170       0.00030239
H       10.59517059      -0.27699039       4.45004143       0.00125904      -0.00245349      -0.00438026
O       11.58906705       3.61618808       2.27166462      -0.00441810       0.00916778       0.00742686
H       10.77499473       3.01289570       2.30298559      -0.00062027       0.00344149       0.00407688
H       11.50407974       4.14583956       3.08359671      -0.00908942       0.00581307       0.00916938
O        3.14769031       5.33117719       9.52371704       0.01815399      -0.01166496       0.00626963
H        2.58303892       4.72411817       9.01877156       0.00991310      -0.00232006       0.00032175
H        3.00248333       5.08540420      10.44835156      -0.00570794      -0.00086544       0.00376051
O        3.64609231       7.34963910       7.75847993      -0.02247895       0.00165483       0.01425715
H        2.97039135       6.97992843       7.14862758      -0.01749976      -0.00317053       0.01156389
H        3.64838467       6.69690173       8.48853472      -0.01972174       0.00070576       0.01552374
O        1.12666428       0.09179000       8.03779877      -0.01064956       0.01252725       0.00292812
H        0.22322285       0.08968099       7.69051304      -0.01439603       0.03280618       0.02531067
H        1.05637949       0.69993055       8.80686267       0.01551828       0.01038866       0.01111660
O        2.97356246       0.62405686       5.88828157      -0.00434966      -0.00742513      -0.00047406
H        2.36224596       0.53584276       6.64286954      -0.00607248      -0.00206240      -0.00219989
H        2.82737849       1.51295291       5.54020211      -0.00008287      -0.00676016      -0.00383334
O        8.93634091      10.34895142       4.07545543       0.00112550      -0.00626667      -0.00732992
H        9.27929037       9.41361431       3.97684944       0.00075420      -0.00677047      -0.00529032
H        8.90802567      10.71095713       3.14153402       0.00580203      -0.00694583      -0.00823005
O        1.24993750       8.04993788       3.26881998      -0.00238755      -0.00326914       0.00871921
H        1.31918315       8.29574189       4.21693214      -0.00445623      -0.00277028       0.00873669
H        1.84817719       8.70666993       2.86254799      -0.00180594      -0.00332233       0.00866544
O        1.02778543       1.76092882      10.25039124       0.02332648       0.01697341       0.02160416
H        1.37052156       0.99130643      10.79320063       0.02048352       0.00723766       0.00906266
H        0.12298329       1.84709662      10.63331675       0.02166387       0.00900150       0.01673896
O        9.86082791       7.89443551       3.87372409      -0.00341730      -0.00766867      -0.00235313
H        9.27580289       7.25976290       3.39064022      -0.00401700      -0.00580988      -0.00492041
H       10.72893408       7.86333919       3.44017183      -0.00344224      -0.00636509      -0.00126221
O        1.81438285       6.09631977       6.12592362      -0.00649617      -0.00464478       0.00597592
H        2.16375259       5.93212252       5.22596620       0.00001755      -0.00510305       0.00678007
H        1.79912238       5.22888424       6.54437788      -0.01308131      -0.00290462       0.00465077
O        4.78111348       5.11503640       1.84569618      -0.00136553       0.00479358      -0.00663061
H        4.18878507       4.51932709       1.34957967      -0.00820272       0.00620142      -0.01080188
H        5.54558225       4.58799513       2.10002126      -0.00860612       0.00220849      -0.00911929
O        9.24705979       9.08876356       7.28398886       0.00511731       0.00013489      -0.00364609
H        9.04796994       8.17925412       6.95411309       0.00737092       0.00038418      -0.00636234
H       10.07979543       8.94413215       7.77916895       0.00023234      -0.00100451       0.00430705
O        3.13499691      10.07369889       2.99307389       0.00340246      -0.00537691       0.00798339
H        3.66994308      10.13552342       2.17060315       0.00407498      -0.00599235       0.00794096
H        2.57913894      10.86386511       2.95591061       0.00560444      -0.00403612       0.00896424
O        2.92706413       3.17768495       4.43438601      -0.00088330      -0.00588229      -0.00481136
H        3.41128157       3.57735228       5.18472974       0.00037288      -0.00637013      -0.00521481
H        2.53339205       3.94156057       3.97578202      -0.00192508      -0.00475463      -0.00283713
O        7.31532937       2.87393478       7.79188246       0.00303423       0.00436829      -0.00177242
H        8.20985139       2.79094944       7.43968621       0.00159614       0.01043401      -0.00330830
H        6.89916819       2.03057393       7.49647484       0.00582370       0.00244348      -0.00296345
O        8.31456601       6.17599588       2.46513727      -0.00449446      -0.00530387      -0.00825160
H        8.22092081       5.32060461       2.92635233      -0.00073642      -0.00676948      -0.00916222
H        9.02715442       6.03277663       1.80707203      -0.00245079      -0.00103240      -0.00651683
O        1.93744187       3.26397040       8.08722735       0.00062549       0.00243659      -0.00679657
H        1.64211049       2.75096225       8.86578403       0.00844110       0.00307360      -0.00298960
H        1.31721392       3.01578209       7.36812018      -0.00176242      -0.00158918      -0.00272082
O        6.66738505      11.96973734       6.55051211       0.00518551       0.00081344      -0.00167516
H        6.31271163      12.53342105       5.82892620       0.00450139       0.00021867      -0.00205811
H        5.94189023      11.36506526       6.85086302       0.00448862       0.00281384       0.00097520
O        1.65154291       9.19091418       5.75490706      -0.00616342      -0.00444390       0.01156610
H        1.29217079       8.73888131       6.52986037      -0.00816715      -0.00227986       0.00644618
H        1.06433287       9.95604255       5.57958348      -0.00516725       0.00024634       0.00919638
O        5.03214092      10.07513787       7.31065157       0.00183564       0.00502710       0.00660573
H        5.72393257       9.57686678       7.79340931       0.00216068       0.00499302       0.00694734
H        4.30912024      10.14444305       7.98134901      -0.00112814       0.00388918       0.00413795
O       10.58054668       4.70729615       4.73780032      -0.00443834       0.00592458       0.00195737
H        9.64155491       4.45456231       4.55449359      -0.00294833       0.00178013      -0.00311989
H       10.53614527       5.57351843       5.16300761      -0.01027029       0.00562088       0.00180351
O        1.68648057      -0.18759837       0.46582783       0.00385343      -0.01348977      -0.00269005
H        0.89698119      -0.78477021       0.51651183       0.00531920      -0.01563170      -0.01149683
H        1.68696474       0.31884414       1.29382610      -0.00234335      -0.01812035       0.00038787
O        5.67972815       7.86190384       1.45818608      -0.00023952       0.01602443       0.00858906
H        5.93380490       8.15657297       2.34516040      -0.00464260       0.01878083       0.00814528
H        5.44208468       6.92621884       1.55440625       0.00743052       0.01302010       0.00738390
O        4.42469426      10.84304209       0.68071498      -0.00035645      -0.00070466       0.00721470
H        5.26827858      10.50424224       0.31386939      -0.00254945      -0.00101164       0.00051335
H        3.71640049      10.71718839       0.03450852      -0.00493083       0.00180239       0.01359298
O        5.53778186       0.93997551       2.63569973       0.01171558      -0.00120747       0.00009395
H        4.98578132       0.63263496       1.88491796       0.00823367      -0.00149442       0.00021077
H        5.76856909       0.11265028       3.08312812       0.00733107       0.00107709       0.00188400
O        6.18455095       9.50967597       4.01553291       0.00439237      -0.00699997      -0.00251476
H        6.09735683       8.76445631       4.64719346       0.00141708       0.00166332       0.00832018
H        7.11832408       9.79071524       4.07928174       0.00475359      -0.00861372      -0.00560275
O        5.92303790       2.53038448       4.85020907       0.00496608      -0.00062567      -0.00536296
H        5.43049729       2.20234675       4.07784294       0.00811581      -0.00215451      -0.00472475
H        5.29383106       2.95202678       5.46591936       0.00217359      -0.00025349      -0.00543043
O        6.33847839       5.32791651       7.62900036       0.00137842       0.00313555      -0.01479435
H        6.70476825       4.41277900       7.71365681      -0.00019654       0.00263537      -0.01211268
H        6.36219840       5.69535433       8.53250460      -0.00006805       0.00399803      -0.01496472
O       -0.47623381       9.59590959       0.52560171       0.00200917      -0.01839301      -0.02276892
H       -1.21982457      10.14848577       0.87591211       0.00500615      -0.01478848      -0.01906983
H       -0.45407730       8.79999325       1.06783021      -0.00366066      -0.02121273      -0.02754865
O        7.12380627       6.60340739      10.03886908       0.00613478      -0.00383361      -0.00844455
H        7.04435028       7.51186898       9.65236562       0.00583229      -0.00046670      -0.00718014
H        6.81855680       6.67697287      10.95144057       0.00329410      -0.00971773      -0.01358701
O        3.06394474       9.75197237       9.09582420      -0.00684272       0.00472335      -0.00974190
H        2.27541240      10.18244707       8.72257364      -0.01148991       0.00546244      -0.00662326
H        3.08238944       8.85046737       8.71617704      -0.01176392       0.00472327      -0.00498766
O        2.59401701       3.79609779       0.60195231      -0.02085182       0.01873329      -0.00575688
H        2.33771253       3.05921407       0.02674706      -0.03550602       0.01947836       0.00013201
H        1.83410310       3.88314999       1.20451539      -0.01052620       0.01984127       0.00840269
O       11.52786180       2.65125999       6.11193244      -0.00352933       0.00310650      -0.00463283
H       11.58964462       1.89319138       5.50768669      -0.00182023       0.00513730      -0.00697090
H       11.19009028       3.42847811       5.59182791      -0.00332752       0.00528304      -0.00252258
O        8.22389289       3.78394229       3.89187260       0.00483808      -0.00607134      -0.00696227
H        8.65777828       3.03762832       3.38556540       0.00557772      -0.00794874      -0.00471400
H        7.43149602       3.40465413       4.31406589       0.00404105      -0.00397861      -0.00710628
O        5.48965105       7.45351112       5.68213443      -0.02067816       0.02158239       0.02371016
H        6.01074918       6.64655449       5.74065136      -0.02908182       0.00951207       0.02740280
H        4.97018536       7.44984426       6.51556786      -0.02117907       0.02553229       0.02046114
