150
Lattice="12.622407164751037 0.0 0.0 0.0 12.622407164751037 0.0 0.0 0.0 12.622407164751037" Properties=species:S:1:pos:R:3:forces:R:3 energy=-128359.546875 stress="0.0005431122262962162 0.0010722795850597322 -0.0003599555784603581 0.0010722795850597322 0.001278855954296887 0.00012007378245471045 -0.0003599555784603581 0.00012007378245471045 -8.581479278291226e-07" pbc="T T T"
Na      12.60847481      13.20638553       2.02072328      -0.01399203      -0.01508275       0.00477102
Na       8.51382616      12.90254093       1.72781548      -0.00830826       0.00146274      -0.02672461
O        9.50328427       0.39017572      -0.35978113      -0.00720787      -0.01829347      -0.01160181
O       10.62953726       1.25587466       1.35715203      -0.00034961      -0.00268567      -0.02490783
O       11.53966331      -0.41933722       0.20815755       0.00198442      -0.00336897      -0.02142611
C       10.50858285       0.45730997       0.38122165      -0.00246432      -0.00862890      -0.01961553
O        4.02855828      -0.03452561       3.58783697       0.02627075      -0.02225026      -0.01998101
O        4.29020944       2.15270803       3.12710522       0.01264757      -0.01835722       0.01350021
C        6.20473669       0.68263675       3.13900090       0.02013600      -0.00092429      -0.01488537
C        4.75834462       1.05592003       3.29210022       0.01434341      -0.00574666      -0.00578113
H        6.54730669       0.22388819       4.06625218       0.02982029       0.00338851      -0.01640722
H        6.27068973      -0.06196847       2.33914293       0.01890234      -0.00199901      -0.01374397
H        6.77350717       1.58388621       2.91137690       0.01140542       0.00323486      -0.02015358
H        3.09395061       0.20331661       3.49508886       0.02300173      -0.02762052      -0.01058551
O        8.16995994       5.91633826       4.51486362       0.00784540       0.02384171      -0.01487979
O        9.19447999       5.18340393       2.66245925       0.01927316      -0.01132007       0.00059533
C        6.86876683       4.63734846       3.02363493       0.01176870       0.00226760      -0.00000289
C        8.19643834       5.24713399       3.34314045       0.00671715       0.00392994      -0.00048625
H        6.61027931       3.89438278       3.77990295       0.01311035       0.00414445       0.00277308
H        6.09554874       5.40383102       3.08366818       0.01017235       0.00120981      -0.00254171
H        6.87947250       4.18787071       2.03561650       0.01135783      -0.00268822       0.00208946
H        9.03640770       6.35097456       4.61471460       0.00930905       0.01928696      -0.01497310
O       11.57785192       1.76148590       7.46776851       0.01161838       0.02408130      -0.01243913
O       12.76115245       3.30802436       8.57384066      -0.00734156       0.03806919      -0.01376140
C       11.08039070       2.03914714       9.75152606       0.01722860       0.01050550      -0.00968993
C       11.90009306       2.45345746       8.57421800       0.00755543       0.02678519      -0.01139165
H       10.01990001       2.16292356       9.52802973       0.01528026       0.01419256       0.00013463
H       11.20269008       0.97099241       9.92889876       0.01507865       0.00787315      -0.02368992
H       11.35131648       2.62219610      10.62569769       0.02331587       0.00074306      -0.00485465
H       12.04446954       2.18795946       6.73467681      -0.00047970       0.03603521      -0.01405784
O        8.77342826       5.50336086       7.51675426      -0.02464253      -0.01719373      -0.01464370
O       10.29596344       4.23124345       6.46852062      -0.01484343       0.00672430      -0.03620866
C       11.00153866       6.31791136       7.42123525      -0.02541810      -0.01158142       0.01053154
C       10.02922779       5.23342651       7.08340877      -0.02004199      -0.00523484      -0.01523501
H       10.90114813       7.10854693       6.67779479      -0.01180649      -0.00199537       0.01920889
H       10.79817605       6.75731952       8.39337340      -0.03983836      -0.02165455       0.01373388
H       12.01267972       5.92268715       7.37379149      -0.02442952      -0.01034129       0.02288620
H        8.20260572       4.76868616       7.22833749      -0.02166006      -0.01568162      -0.02883491
O        2.34831248       6.44887665       0.63910323       0.02276272      -0.02589196       0.00557905
O        3.66169334       7.97342650      -0.35030490       0.00745544      -0.01076627       0.00168145
C        3.82925212       7.64131758       2.02192416      -0.00431409       0.00546554       0.00738704
C        3.28626720       7.39339718       0.64812216       0.00761655      -0.01409924       0.00899959
H        3.03082851       7.92040118       2.71071370      -0.01356879      -0.00086132      -0.00051326
H        4.26414102       6.72159643       2.41117442       0.00765545       0.01617110       0.01896510
H        4.59056459       8.41353110       1.98372405      -0.01599346       0.01702563       0.00810729
H        2.20368043       6.18625628      -0.30865522       0.02339233      -0.02841915       0.00614528
O        6.54380589       9.31420889       8.64547088      -0.00753221      -0.01362658       0.00875926
O        6.98830553      11.50564627       8.49363863      -0.01759171      -0.02685964       0.00034881
C        5.90451564      10.64634600      10.47554437      -0.00169918      -0.00221891       0.00274450
C        6.53466234      10.57969508       9.12540173       0.00210896       0.00499219      -0.01290524
H        4.85954838      10.33998656      10.40660026      -0.00313686       0.00415640       0.00587583
H        6.40867720       9.94200193      11.13716507      -0.00336109      -0.00357634       0.00186615
H        5.97650458      11.65820303      10.86318439       0.00454479      -0.00088842      -0.00335357
H        6.97462651       9.32093890       7.77533964      -0.00951660      -0.01650417       0.00467333
O        3.55597144      11.30200386       0.51221130      -0.01327460       0.02238524      -0.00304115
O        1.97650357      12.34276629       1.68436081      -0.01485632      -0.01872581       0.03020552
C        1.48563002      10.18818122       0.73807201       0.00450033      -0.01020718       0.00250071
C        2.33015819      11.36980148       1.02523153      -0.00848395      -0.00322829       0.01164564
H        1.88444250       9.58534884      -0.07075380       0.01852733      -0.00849776       0.00833324
H        1.42073477       9.57699560       1.64307617      -0.00557373      -0.00791122       0.00337344
H        0.47196292      10.50949629       0.51883490       0.00486898      -0.01844268      -0.01131776
H        4.02539856      12.11541134       0.75400459      -0.02256063       0.02514029       0.00428924
O        6.82652853       3.46359262       9.74918222       0.02556938      -0.00291169       0.03129762
O        5.94483622       2.80302339      11.70509827       0.01828318      -0.02658032       0.02530706
C        5.25212224       1.69932772       9.67915255       0.01884675       0.00647551       0.00042051
C        6.01414244       2.68757651      10.50319734       0.01783292      -0.00818363       0.01426852
H        4.72992729       2.18868263       8.85648006       0.03718477       0.01372781      -0.00679393
H        5.93803080       0.97500773       9.23099117       0.01978186       0.00210214       0.00658742
H        4.53783801       1.17880117      10.31065411       0.00328750       0.00793299      -0.01673950
H        7.29487883       4.07233901      10.34698173       0.02351189      -0.00822635       0.03541714
O        2.65265909      10.57352080       8.47372871      -0.02670294       0.01152557      -0.00321159
O        1.52820592      10.63477880       6.53542465      -0.00116307       0.00819635      -0.01044536
C        3.40740053       9.13994585       6.76406670      -0.01137191       0.01030743       0.00478350
C        2.42454748      10.17580860       7.20236239      -0.02312624       0.01712209      -0.01079923
H        4.41396814       9.55381277       6.83003771      -0.01088221       0.00618985       0.01480968
H        3.37004371       8.28748300       7.44232442      -0.02201594       0.01128310       0.00455004
H        3.19524450       8.82578681       5.74774294      -0.00217969       0.01064660       0.00298643
H        1.96579394      11.22221271       8.68528547      -0.03156406       0.01018327      -0.00729917
O        8.22115090       5.91347290      11.14324572      -0.00022012       0.00422013       0.00384307
O        7.70532715       8.06577685      11.46748227      -0.03450140      -0.02775437       0.00114208
C        6.00714560       6.58954764      10.61939219      -0.00257802      -0.01785406      -0.01444700
C        7.36047466       6.96517445      11.11438136       0.00265506       0.02500355       0.01203352
H        6.07951956       6.24334609       9.58759864       0.01360474      -0.01353770      -0.01330350
H        5.60478203       5.76806816      11.21599118       0.00068192      -0.02193247      -0.02018979
H        5.34451684       7.44477198      10.68706301      -0.01008578      -0.02335542      -0.01787699
H        9.06312395       6.25687946      11.49640229      -0.00262716       0.01766634       0.01052749
O       10.67278544       9.81635056       0.46740685      -0.00419402      -0.01170052      -0.01700795
O        9.31000558      10.85904061       1.89885726       0.02085555      -0.00004804      -0.00248742
C        9.14358204       8.48469838       1.69934454      -0.00629684       0.00078690      -0.00109303
C        9.74529655       9.82080333       1.34536274       0.00481379      -0.00582129      -0.00729278
H        9.89655891       7.70049432       1.70778961      -0.01616904      -0.00945683      -0.01108897
H        8.62672592       8.52195416       2.65463195       0.00473816       0.00656884       0.00458498
H        8.42839412       8.22982795       0.91534695      -0.01892745       0.01022546       0.00657219
H       11.15095161      11.24487135       0.15945733       0.00531217       0.00006071      -0.02913222
O        6.46751232       3.20758007       6.42865392       0.00505400       0.00086224       0.01830312
O        5.91041807       1.05766535       6.11904039       0.01153529       0.00561130      -0.02255866
C        8.19054737       1.59046619       6.64784866       0.00344896      -0.00218011       0.01595621
C        6.75012550       1.88754697       6.38833800       0.00579017       0.00145507       0.00093628
H        8.74377478       1.69829658       5.71038210       0.01373169      -0.00160509       0.02247997
H        8.63373777       2.30346294       7.33747775      -0.00333619      -0.00605555       0.02418476
H        8.30417513       0.57577075       7.01761980      -0.00438967      -0.00381887       0.01398086
H        5.50639429       3.31101962       6.25171863       0.00601420       0.00268701       0.00802778
O        2.12489071       6.98456732       9.32392616      -0.02779862      -0.00811243       0.01104456
O        2.43959976       5.39390530      10.87441183       0.00021878      -0.01304662       0.00148267
C        3.30065278       5.03665389       8.68511922      -0.00630078       0.01002181      -0.00453115
C        2.60304780       5.82198252       9.74419398      -0.01162139      -0.00392275       0.00210428
H        2.55849621       4.36267610       8.25093264       0.00141917       0.00088811      -0.00354584
H        3.70739596       5.66510990       7.89651186      -0.01970104       0.01913765      -0.00407493
H        4.07921621       4.42426275       9.13049502       0.00532991       0.01930974      -0.01209658
H        1.54602257       7.38171579      10.03422549      -0.02640453      -0.01278821       0.01625428
O        9.36026176      10.94731828      10.66202165      -0.03655124      -0.01589787      -0.00551575
O       10.42738819      11.73117047       8.83630466       0.02988786      -0.00092387       0.03797615
C        9.99082114       9.38403664       9.04091893      -0.00506693       0.00013340      -0.01313496
C        9.94414335      10.82240218       9.47594326      -0.00360344      -0.00979435       0.01318525
H       11.00577314       9.02805560       9.23596661      -0.00505581      -0.00513557      -0.02481774
H        9.28595642       8.77753267       9.60440064      -0.00486636      -0.00998989      -0.02293287
H        9.81361660       9.31121937       7.97044040      -0.00820157       0.01869399      -0.01393196
H        9.46297721      11.85379446      11.06368051      -0.02989297      -0.02229419       0.00812478
O        7.18155615       8.11403769       6.06332758       0.01653161       0.01595896      -0.00000471
O        5.48254909       7.39512528       4.78272126       0.01135385       0.02295202       0.01645922
C        6.32543400       9.63595282       4.48137015      -0.00543979       0.01992923       0.01425779
C        6.25093764       8.27062447       5.08687625      -0.00177085       0.00710076       0.00718981
H        6.26961497      10.40450154       5.25460901       0.00242039       0.01655245       0.01717287
H        7.28658267       9.75564688       3.97595671      -0.01250938       0.02313403       0.00224964
H        5.51677909       9.76559479       3.76929445      -0.01464610       0.02008058       0.02502617
H        7.16810211       7.18150143       6.33428028       0.02271606       0.01276761      -0.00520429
O        1.77094036       2.66473552       5.18652172       0.00313187      -0.00373280       0.00238013
O        3.71332327       3.29725902       6.08094158      -0.00149420       0.00037070      -0.00343457
C        2.55203696       4.84018230       4.64236988       0.00450626      -0.00896692      -0.00852430
C        2.77445285       3.55539010       5.36308708       0.01074982      -0.00717184       0.00471190
H        2.25221218       4.66948996       3.60952909       0.01635782      -0.01742924      -0.01011774
H        1.74083636       5.38327760       5.13425888      -0.00354080      -0.01137306      -0.02002130
H        3.45470874       5.44371136       4.68030270       0.00136858      -0.00461660      -0.00310466
H        1.99957775       1.89352886       5.72965433       0.00437179      -0.00448436       0.00273758
O       10.71381097       7.19802834       4.23716768       0.01557840      -0.00650620      -0.00110590
O       12.53308975       8.24615930       3.45075371      -0.00295573       0.00297342      -0.01920182
C       10.99428720       9.47639220       4.83902722       0.01348081      -0.00574499      -0.00143650
C       11.52871704       8.28588294       4.11161115       0.01424861      -0.00367917      -0.01332963
H       10.30023291       9.99053592       4.16600683       0.02437259       0.00708401      -0.00257292
H       10.43750748       9.19800420       5.73130722       0.00453578      -0.00964312      -0.00904331
H       11.80756206      10.14908555       5.09541565       0.01797509      -0.01559517       0.01125702
H       11.00365928       6.50954457       3.61500706       0.01291692      -0.00613761      -0.00377029
O       10.86560982       7.43641335      11.89501597      -0.01891467       0.02028096       0.00109321
O       12.87200685       7.88886512      11.01352297      -0.00869876       0.00857675       0.01693665
C       11.93491896       5.69505294      10.71801247      -0.01257804       0.00890881       0.02805912
C       11.94870651       7.11059592      11.21034329      -0.01551116       0.01331830       0.01573505
H       12.42684728       5.06267892      11.45965759      -0.01186013       0.01810478       0.03568685
H       10.92233837       5.32591354      10.56819164      -0.01263493       0.00650818       0.03281843
H       12.50127663       5.58995280       9.79871944      -0.01305373      -0.00136560       0.02842671
H       10.89305548       8.37722333      12.27899564      -0.02029018       0.02601042       0.00478150
