150
Lattice="12.390558920213438 0.0 0.0 0.0 12.390558920213438 0.0 0.0 0.0 12.390558920213438" Properties=species:S:1:pos:R:3:forces:R:3 energy=-197924.296875 stress="-0.0003179849009029567 0.0010570921003818512 0.0009058070718310773 0.0010570921003818512 -0.0020402618683874607 -0.0009123585768975317 0.0009058070718310773 -0.0009123585768975317 0.00017823879898060113" pbc="T T T"
Na       9.75816729      12.40510033       4.10833832      -0.00860490       0.02232420      -0.01626235
Na       5.84196373      12.29031878       7.88915295       0.00354718      -0.00536361      -0.03216384
O       12.04796746       2.51403897       0.98527316       0.00279284      -0.00352836       0.00191562
O       11.00560997       0.26668985       2.46163343       0.00681657      -0.01007277      -0.02660465
O       12.59438896      -0.15070090       0.11590284      -0.01109457      -0.00810516      -0.01828265
O        9.88945971       0.89431562      -0.14949123       0.00604415      -0.00160733      -0.01779807
Mo      11.38516145       0.89964637       0.81675268       0.00176951      -0.03421155      -0.00867772
O        1.33733802       5.58525716       6.89050868      -0.00812960      -0.00809160       0.01146152
C        2.56160545       7.61992679       6.83047871      -0.00847730      -0.00870186      -0.00845683
C        3.48978648       6.47285352       7.22631411      -0.00814849      -0.00682288      -0.00422215
C        1.18828955       7.00013628       7.07692997      -0.00815019      -0.00629652      -0.00055071
C        2.71805025       5.26766561       6.71426369      -0.01005346      -0.00681677      -0.00012133
H        2.72401952       8.51793642       7.42592875      -0.00652963      -0.00515951      -0.01070027
H        2.69198343       7.88116412       5.77691163      -0.01060587      -0.01227259      -0.00714308
H        4.48769614       6.55468146       6.79644849      -0.00834900      -0.00835169      -0.00943272
H        3.59177820       6.43608688       8.31334033      -0.00417019      -0.00374000      -0.00634784
H        0.85892733       7.18137496       8.10773540      -0.00918545       0.00175776      -0.00399482
H        0.41518221       7.36128045       6.39460755      -0.00853890      -0.01212896      -0.00509682
H        2.92335047       5.09453581       5.64932121      -0.01760399      -0.00700546      -0.00067371
H        2.93218366       4.34381278       7.25883173      -0.00587558      -0.00766680      -0.00114357
O        3.95298616       1.23150900       1.79436584      -0.00412832      -0.00518334       0.00159830
C        2.65604539       3.08860942       2.47171503      -0.00684997      -0.00483298      -0.00613554
C        3.53236276       2.65398064       3.64628252      -0.00886163      -0.00097340      -0.00331640
C        2.65679701       1.84806240       1.59736223      -0.00348590      -0.00703537      -0.00161850
C        4.58141284       1.79858605       2.94007144      -0.00468351       0.00192234      -0.00093395
H        1.64410713       3.38609873       2.73949922      -0.00834465      -0.00644442      -0.00726458
H        3.14392969       3.92000664       1.96044913      -0.00817576      -0.00545451      -0.00552750
H        3.98436893       3.49280489       4.17461465      -0.01183213       0.00000009      -0.00329497
H        2.95849447       2.05688998       4.35996958      -0.01357520      -0.00261587      -0.00801089
H        1.87242826       1.14476728       1.89000453      -0.00442481      -0.00666931      -0.00447330
H        2.51537584       2.04724675       0.53607669      -0.00090881      -0.00869451      -0.00439006
H        5.43075829       2.41991838       2.61997222      -0.00933668       0.00646099      -0.00407328
H        4.96660741       0.98446900       3.56818157      -0.00011553       0.00678235       0.00071469
O        2.97791429      10.25921513       3.72343446      -0.00036094      -0.01024610       0.01585592
C        0.80613328      10.33154995       2.71897020      -0.00040841      -0.00032412       0.01292720
C        0.80934809      11.04503915       4.07358849       0.00585467       0.00159178       0.01053503
C        2.17791474       9.65906972       2.67896358       0.00070387       0.00145292       0.00791398
C        2.27764465      11.40017671       4.20880663       0.00361496      -0.00513937       0.00808638
H       -0.00203736       9.60692592       2.62121329      -0.00253360       0.00355904       0.02390749
H        0.69304446      11.05175101       1.90485207      -0.00557354       0.00282055       0.01636910
H        0.15810835      11.91845541       4.05496631       0.01037724       0.00516611      -0.00320902
H        0.51481118      10.36775184       4.88241498      -0.00229676       0.00442496       0.00993317
H        2.12289256       8.58894639       2.89361452      -0.00243277      -0.00254583      -0.00188190
H        2.67715250       9.79774248       1.71450062       0.00348672       0.01015198       0.01152951
H        2.52196816      12.27596924       3.59781341       0.00391471      -0.01002359       0.00275227
H        2.60881033      11.57751994       5.23863492       0.00531857       0.00206787       0.00816610
O        5.19175567       8.55348795       8.77594018      -0.00517404       0.00464441       0.00188218
C        7.03246841       9.84663408       8.07301331      -0.00305605      -0.00980982      -0.00469485
C        7.53026357       8.72486197       8.98233660      -0.01523405       0.00988183       0.02263314
C        5.55106687       9.87907627       8.46444269       0.00070131       0.00290267       0.00149442
C        6.38458160       7.73862679       8.87527733      -0.00428048       0.00999743      -0.00035843
H        7.57877848      10.77870640       8.22815746       0.00371617       0.00215122       0.00325818
H        7.13954066       9.56618740       7.02061204       0.00319101      -0.00376537       0.00881404
H        8.48820798       8.31618223       8.67226710       0.00070126      -0.00203297       0.01536589
H        7.63786284       9.08372330      10.00932089      -0.00841163       0.00907695       0.00324464
H        5.39800418      10.51148874       9.36529258      -0.00433911       0.00744168      -0.00815976
H        4.87837304      10.22866167       7.65667798      -0.00127749      -0.00240149      -0.00756124
H        6.46588356       7.13713133       7.96141064      -0.00559337      -0.00139396       0.02414167
H        6.27656095       7.09017347       9.74339818      -0.01337319       0.00875467       0.02550963
O        5.60897392       6.42300435      11.81579254      -0.00855421       0.00165637       0.01775058
C        3.47657308       5.43913719      11.53201393      -0.00650781       0.00363374       0.00318530
C        4.52393567       4.56351467      10.84665061      -0.00332512       0.00230622       0.01015532
C        4.21996914       6.76150163      11.63902314      -0.00655097       0.00277224       0.00809014
C        5.79416618       5.02681073      11.54698709      -0.00781530       0.00155130       0.01846567
H        2.54466196       5.52195966      10.97437982      -0.00378276       0.00331781      -0.00135985
H        3.24945666       5.03864461      12.52103827      -0.01190089       0.00391234       0.00230443
H        4.34169382       3.49486554      10.96172049      -0.00479029       0.00278151       0.00945141
H        4.56372996       4.79999740       9.77843279       0.00384833       0.00175130       0.01024771
H        4.11487331       7.35169084      10.72134269       0.00009536       0.00303257       0.00738615
H        3.90648582       7.37935253      12.48194503      -0.01214273       0.00337394       0.00538862
H        5.93266568       4.48905903      12.49265180      -0.01451227       0.00133848       0.01892012
H        6.70056449       4.91311537      10.94582872      -0.00404805       0.00100299       0.02409095
O       10.90203924       9.60782157      10.77548502      -0.03519091      -0.01808676      -0.02642846
C       11.57047509       9.65396565       8.48432030       0.00121406      -0.01177546      -0.01153600
C       10.71389517      10.86883272       8.84900437       0.02881384       0.01472476      -0.02004391
C       11.49741175       8.79691873       9.76859007      -0.00104342      -0.00759046      -0.01106763
C       10.99014033      10.97356261      10.33585024      -0.01592445      -0.01495939      -0.00524908
H       11.21945310       9.11650245       7.60343593       0.00691630      -0.00085908      -0.01191419
H       12.59810653       9.96800207       8.29007994       0.01331162      -0.01667663      -0.00349582
H       10.97057428      11.77219263       8.29400150       0.03565511      -0.01089132      -0.00906263
H        9.65704150      10.64903967       8.68235801       0.01154929       0.02166488      -0.03779124
H       10.87011973       7.90778611       9.64571657       0.01891407      -0.02187470      -0.01896844
H       12.49233327       8.46074092      10.08707539      -0.00477803       0.02195694       0.01469085
H       11.98966235      11.37612841      10.53693736      -0.00867617      -0.02539204       0.02587944
H       10.28704448      11.57142885      10.91782703      -0.00894326      -0.01833084      -0.00784996
O       10.62807648       5.82427434       5.45176096       0.00654501       0.00950297       0.00113502
C        8.85610577       5.91797403       7.03650011       0.00784898       0.00100605       0.00198013
C        8.93954708       7.22227284       6.24170715       0.00332651       0.00443280       0.00798595
C       10.17934418       5.23160777       6.68158340       0.01072690       0.00753354       0.00148734
C        9.64636499       6.74101953       4.99005497       0.00701389       0.01315048       0.00566265
H        8.74112205       6.06554731       8.11046734       0.00549949      -0.00398447       0.00220349
H        8.00288971       5.32816884       6.68516208       0.01139508      -0.00137836      -0.00181080
H        7.97012466       7.67261928       6.03531967       0.00052238      -0.00086121       0.00745884
H        9.56422566       7.95338254       6.76020788      -0.00324304       0.00616300       0.01168185
H       10.95166247       5.40508588       7.43522651       0.01036876       0.01048505       0.00074956
H       10.07083514       4.15117026       6.54359097       0.01538539       0.00790435       0.00083201
H        8.92820535       6.23970707       4.32224516       0.00796780       0.01733807       0.00161996
H       10.15645978       7.52188464       4.42328069       0.00723636       0.01608893       0.01294377
O        8.40487645      10.84141277       3.01577401      -0.00646314       0.01493154      -0.00345847
C        8.10564732       9.65414681       0.95778903       0.00277305       0.00973240       0.00030750
C        7.00183654      10.70191541       1.17654199       0.00232303       0.01062341      -0.01706445
C        9.01788267       9.82305618       2.18914067      -0.00389081       0.00616788       0.00990915
C        7.68895129      11.69245693       2.09144369      -0.01810879       0.01029789       0.00493015
H        7.69913299       8.64552813       0.87242719       0.00524032       0.00452074       0.00438179
H        8.67918964       9.85898951       0.05333564       0.00161627       0.00223628       0.00136957
H        6.64984221      11.16309726       0.25428956       0.00796748       0.00466846      -0.00639620
H        6.14198336      10.26740040       1.68892051      -0.00993520       0.00695747      -0.01333025
H        9.09304862       8.92332718       2.80093888       0.00629789       0.02449951       0.00003761
H       10.01854675      10.15469635       1.90141164       0.00031114       0.02719277       0.00310136
H        8.40065029      12.31816371       1.53495095      -0.00563693       0.01154482      -0.00699821
H        7.00255992      12.30636525       2.67630684      -0.00670151       0.00256068      -0.01001321
O        4.93312487       5.52297230       2.73469083       0.01299968      -0.01017591       0.00514436
C        4.86890541       7.85575732       3.10101183       0.01106459      -0.00793457      -0.00493087
C        6.12675133       7.28358858       3.74233728       0.01361877      -0.00433603      -0.00593001
C        4.01557169       6.60562762       2.95979881       0.01265606      -0.00927746      -0.00055238
C        6.26849314       5.97404869       2.98454377       0.01274769      -0.00645977      -0.00151697
H        4.39729951       8.64112377       3.68491428       0.01170990      -0.00678924      -0.00838655
H        5.10801278       8.25988692       2.11382975       0.01075876      -0.01192413      -0.00795642
H        6.99666236       7.93415559       3.64981160       0.01168735      -0.00436372      -0.00776781
H        5.94715037       7.09152018       4.80573911       0.01398296      -0.00280245      -0.00438690
H        3.44802445       6.40730968       3.87854022       0.01281469      -0.00582893       0.00124460
H        3.30798447       6.64309949       2.12908084       0.01286584      -0.01380348       0.00011730
H        6.78056923       6.13270695       2.02704670       0.00904897      -0.00834245      -0.00394166
H        6.79099959       5.19584490       3.54411814       0.01621743      -0.00378212      -0.00100082
O        7.84230360       0.80445274       8.16720106      -0.01386565       0.00683428      -0.00000292
C        7.10186070       1.95649332      10.04148167       0.01726240       0.01436640       0.00935870
C        6.93963648       2.91070156       8.84309946       0.00295557       0.00974089       0.00667205
C        8.19537689       1.02634937       9.56430649      -0.00391981      -0.00707801      -0.00047731
C        7.45350528       2.08916660       7.64472102       0.01534566       0.01674312       0.00688921
H        7.35761267       2.45425114      10.97417440       0.03038730       0.00925225       0.00199059
H        6.17605817       1.39246118      10.22422257       0.01079422       0.01869835       0.01465541
H        5.90967137       3.24351109       8.70934719       0.00778794      -0.00120162       0.00499877
H        7.55380222       3.80176863       8.97356321       0.00085908       0.01865166       0.00783225
H        9.18074431       1.49327268       9.63412475       0.00574186      -0.01185149      -0.01052148
H        8.24463429       0.06156059      10.06421941      -0.00593369       0.00049010      -0.00546506
H        6.69088418       1.91935508       6.86791545       0.02172676       0.03554492      -0.00304997
H        8.30923038       2.55162839       7.14612203       0.02183864       0.00493547       0.01905806
O        9.64879186       2.29313159       4.68170029      -0.01265010      -0.00774337      -0.00340572
C        8.73462100       3.11070748       2.69175002      -0.01185392       0.02174193      -0.00202835
C       10.09483070       3.79020543       2.85093890       0.01277183      -0.02204669      -0.01480129
C        8.41609239       2.77363910       4.13393664      -0.00816142      -0.01572348      -0.01617679
C       10.74864578       2.98836647       3.96802357      -0.01357943       0.00175523       0.00620073
H        7.98177541       3.74324799       2.22313702       0.01009464       0.00390372       0.00081075
H        8.83478988       2.20000619       2.09548914       0.00485624       0.00041553      -0.02162774
H       10.70699875       3.72908836       1.94850099      -0.00381345       0.00851311       0.01969948
H        9.97113209       4.83092599       3.14589307      -0.00511541       0.00675029       0.01570904
H        8.08937585       3.66935466       4.68481565      -0.01261429      -0.01010481      -0.00532471
H        7.65475362       1.99706126       4.26774088      -0.00748441      -0.00959870      -0.01994129
H       11.39697776       2.21150288       3.56453818      -0.01141283      -0.02184290      -0.00100219
H       11.28237778       3.61017065       4.68395461      -0.01237284      -0.01678669       0.00043565
