145
Lattice="12.096320826293361 0.0 0.0 0.0 12.096320826293361 0.0 0.0 0.0 12.096320826293361" Properties=species:S:1:pos:R:3:forces:R:3 energy=-100434.203125 stress="-2.5027913579833694e-05 0.0011889234301634133 -0.00011025034109479748 0.0011889234301634133 0.0006355654913932085 -0.0002131620203726925 -0.00011025034109479748 -0.0002131620203726925 0.0004693873052019626" pbc="T T T"
Na       8.00652175      11.69067546       8.50172612       0.00273649       0.01083044       0.02083690
Na       0.61721080      13.54864740       0.50707860       0.02388819       0.03275389       0.00413500
S       10.23345469       1.95553434      -0.79677236       0.00053079      -0.01902644      -0.00261919
O        9.40230980       1.29639321      -1.83251976      -0.01367247      -0.01549920       0.01201618
O       10.41954454       1.04986120       0.37371510       0.00573239      -0.01536047      -0.00504649
O       11.59375714       2.24079389      -1.34581472      -0.01106167      -0.01340051      -0.02467376
O        9.61094108       3.22590529      -0.36971534       0.01319826      -0.01823425       0.00894630
O        6.10971196      10.47251154       7.90174260       0.01083779      -0.00071288      -0.00564182
C        5.99151762       9.20460301       7.23779945       0.00493560       0.00162618      -0.00972901
H        6.09765209       8.37638844       7.94255816      -0.00154140      -0.00192578      -0.01268470
H        6.80685815       9.15269683       6.51987695       0.00496875      -0.00170674      -0.00985797
H        5.03634763       9.12936284       6.71314894       0.00504899       0.00803271      -0.01059277
H        5.42469977      10.52788883       8.57185784       0.00548553       0.00498909      -0.01118994
O        9.03545843       6.98571651       9.68804266       0.00319305       0.01369005       0.00153860
C        8.04164633       7.78501422      10.29337492       0.00350261       0.01351196       0.00321648
H        7.11509412       7.22436634      10.45618542       0.00506479       0.01204658       0.00838900
H        7.81268909       8.67510989       9.69329745       0.00019768       0.01120549       0.00160092
H        8.41662864       8.11746668      11.26098206       0.00773975       0.01622879       0.00050682
H        8.57814919       6.42354335       9.03870028       0.00578628       0.02224074      -0.00681699
O        8.68976276      12.40647024       2.56593778       0.02068669       0.00898659       0.00338635
C        8.65423646      11.03722621       2.92914150       0.01091990       0.00977218       0.00387244
H        9.63976672      10.56304735       2.89005045       0.00572091      -0.00062171      -0.00472766
H        7.97098738      10.44936420       2.30578089      -0.00044346       0.01672082       0.00998050
H        8.29811575      10.97406823       3.95691321       0.02029378       0.01226158       0.00723401
H        9.20021290      12.53156362       1.74674100       0.01034532       0.00294076      -0.00507724
O       11.23701201      10.36969536       5.09654985       0.00499389      -0.00366664       0.00252911
C       11.02975485      11.76418111       5.22524477       0.00898585      -0.00305676       0.00765608
H       10.54671842      12.19746729       4.34151645       0.01398031       0.00264966       0.00789559
H       11.97508137      12.28825300       5.42279122       0.01013005      -0.00688957       0.01121109
H       10.37733960      11.92187809       6.08304270       0.00692105      -0.00351081       0.00638312
H       11.67224721      10.18757167       4.23556758      -0.00231913      -0.00334342      -0.00126119
O        7.41767701       3.74872148      10.48197440      -0.01162493      -0.00959320      -0.00768143
C        6.54745135       3.91540515      11.59098296      -0.01336202      -0.00566639      -0.00769246
H        6.54644580       4.94892707      11.95263170      -0.00345071      -0.00707054      -0.00385153
H        6.84754063       3.26045397      12.41326836      -0.01649660      -0.01379842      -0.01445672
H        5.53589804       3.65278926      11.27974193      -0.01609707       0.00176205      -0.00516466
H        8.33021119       3.62880269      10.86800256      -0.01619001      -0.00054723      -0.01042710
O        7.15655665       5.47649880       8.42626426      -0.00648260       0.00807110      -0.00632560
C        6.67723260       4.90454704       7.22097135       0.00026697       0.00105900      -0.00671360
H        5.60049468       4.70632146       7.26463329       0.00027263      -0.00024844      -0.01195855
H        7.19367535       3.97191035       6.97934458       0.00388047       0.00118622       0.00060458
H        6.84851425       5.62081068       6.41835289       0.00408456      -0.00302199      -0.00930469
H        7.21722325       4.79314876       9.13154028      -0.01617172       0.01045077      -0.00497410
O        2.17899430       2.94866413      10.50131220      -0.00484091      -0.02789798       0.00587723
C        2.84398402       3.51700818       9.38189208      -0.00291732      -0.01030211       0.01560855
H        2.24056035       4.29782679       8.91794292      -0.00343502      -0.00391906       0.02728981
H        3.07551278       2.75899080       8.62546304      -0.00126995       0.00179201       0.00385621
H        3.77898286       3.95630086       9.72916331      -0.00336401      -0.01547127       0.02375579
H        1.24229020       2.86315105      10.27378972      -0.00501519      -0.02446860       0.00105831
O        9.43797495      10.12664468       7.90369001       0.00539675       0.00428242       0.01644120
C       10.62374397       9.83955912       8.64089007       0.01389256      -0.00269988       0.00083950
H       10.52694025       8.89266245       9.17717998       0.01674547      -0.00698659      -0.00622188
H       10.76830979      10.65314794       9.35349741       0.02534934      -0.00931317       0.00578451
H       11.49264499       9.79071847       7.97829361       0.00459144       0.00092790      -0.01177940
H        9.33459315       9.45381481       7.18843463       0.00693578       0.01249563       0.00932162
O        5.63283764       6.46661476       3.06386812      -0.00144123       0.00401545       0.00195777
C        5.89648468       7.35515497       4.13515363       0.00057898      -0.00019458       0.00562286
H        5.40885852       7.02718263       5.05857394      -0.01013044       0.00453444       0.00176126
H        5.49938987       8.34068184       3.88061340       0.01526077       0.00489002       0.00259438
H        6.97079733       7.46283163       4.32511926       0.00020772      -0.01294553       0.01457649
H        5.50888391       5.57545534       3.44482812      -0.01208348       0.00461554      -0.00119321
O        2.79588166       3.33080684       2.65945025       0.00183028       0.00591005       0.00102518
C        2.90681184       4.00159984       1.38426909       0.01847338       0.01698360       0.00895481
H        3.67515378       3.49419921       0.80547160       0.02155736       0.01535113       0.01463620
H        3.16326064       5.04818778       1.52909861       0.02583310       0.01417372       0.01948468
H        1.97077327       3.94137427       0.82920884       0.02372777       0.02730947      -0.00148700
H        1.85656181       3.34053105       2.91805727      -0.00074333       0.00630119      -0.00783046
O        2.58959056      10.25404432       5.65344234       0.01712759      -0.01359808      -0.00387174
C        2.78717184      10.97063713       4.44385263       0.00189238      -0.00956683      -0.00417662
H        3.74650108      11.50152099       4.43580370      -0.00631696       0.00513861      -0.00721738
H        1.98314738      11.68729135       4.24885234      -0.00916678      -0.02110042      -0.00003234
H        2.77810502      10.23776680       3.63823531       0.00993263      -0.00843477      -0.00546695
H        2.36568896      10.88268821       6.34377084      -0.00243422      -0.01877242      -0.00544079
O        9.22494712       8.61912827       5.73452359       0.00612541       0.01297629      -0.00147694
C        9.63206900       7.24395931       5.71630215       0.00475429       0.01292899       0.00311599
H        8.90532236       6.68682461       6.30602593       0.00625348       0.01469557       0.00702469
H       10.62157866       7.10580140       6.15674421       0.00569725       0.01639073       0.00157411
H        9.63656676       6.86088445       4.69249584       0.00448096       0.00759310       0.00481266
H        9.94078932       9.16731621       5.35216493       0.00997253       0.00898135      -0.00103311
O       11.95856417       4.63270657       9.26961309       0.00397459      -0.00177795       0.00141463
C       12.01605062       5.50038351      10.40134029      -0.00314804       0.00365151      -0.00279370
H       12.97436790       6.02487371      10.38820433      -0.00823560       0.01314950      -0.00547455
H       11.94956500       4.92365516      11.32563615       0.00289404       0.00854638       0.00118300
H       11.19631508       6.21980913      10.37141970      -0.00836697      -0.00226048      -0.00593593
H       11.55236645       3.80186847       9.56379924       0.01129295      -0.00603866       0.00297882
O        4.95205797       4.09234521       4.21052689       0.00162786      -0.00920740       0.00418532
C        5.75565709       2.92316092       4.09419570       0.00521180      -0.00679977       0.00112042
H        5.99319414       2.68907229       3.05189322       0.00211843      -0.00466691      -0.00004157
H        5.25976089       2.06039513       4.54933705       0.01130989      -0.00984420       0.00302044
H        6.68665246       3.10500895       4.62660351       0.00674550      -0.00234138      -0.00334375
H        4.10583306       3.90561304       3.76423644      -0.00140354      -0.01358779       0.01201183
O        0.58855362       6.10045039       6.93483353      -0.00896245      -0.00586039       0.00133790
C        1.83925801       6.70539511       7.20180723      -0.00966257      -0.00808838       0.00900364
H        2.67698969       6.01032329       7.05501325      -0.00989673      -0.00879756       0.01092433
H        1.89888440       7.10559902       8.22023143      -0.01421428      -0.01144639       0.01070100
H        1.96480458       7.53984556       6.51077500      -0.00562065      -0.00599658       0.01220459
H        0.34047510       5.52833428       7.68077396      -0.00749967      -0.01326741      -0.00366140
O        2.63034791       0.87210483       1.54275227       0.00695301       0.00030094       0.00178099
C        3.93802364       0.49558375       1.11370712       0.00071456      -0.00867099      -0.00932429
H        4.58378505       0.27805827       1.96868489       0.00649096      -0.00693945      -0.01355740
H        4.40192060       1.27587310       0.50484045       0.00120156      -0.01756847      -0.02178067
H        3.84942303      -0.40216003       0.50481578      -0.01407924      -0.01507421       0.00233863
H        2.73700671       1.68124786       2.08921004       0.01152718       0.00054064      -0.00035043
O        7.41055614      11.74221726      10.69529140      -0.02155069       0.01397175       0.01374203
C        7.49717634      10.91128055      11.83468249      -0.01542824       0.01295570       0.01174305
H        8.52043275      10.55628333      12.00027220      -0.01402932       0.01639348       0.01162619
H        6.85908964      10.04202932      11.67477916      -0.01189028       0.00996941       0.01321494
H        7.16546067      11.43911593      12.73232757      -0.01968591       0.00800246       0.01313230
H        8.12011421      12.42659597      10.76039107      -0.02230322       0.01734436       0.01105136
O       10.94891739       7.32491316       2.33364881      -0.00385332      -0.00018640       0.00492361
C       10.16166881       7.01430963       1.18716695      -0.00244386       0.00518366       0.00279173
H       10.17640866       5.94596219       0.96076229      -0.00855354       0.00476751       0.00326554
H       10.49792529       7.55500648       0.29627303       0.00501068       0.00304456       0.00443709
H        9.13450596       7.30279867       1.40637824      -0.00180876       0.01170029      -0.00218312
H       11.85200213       6.93318488       2.24706629      -0.00647289      -0.00585909       0.00475204
O       12.25202341       2.55946912       2.71487099       0.00592574       0.00743011      -0.01403892
C       11.16819511       3.51966443       2.63314764      -0.00479117      -0.00421137      -0.00933486
H       11.29294142       4.29689521       3.38902198      -0.01579506      -0.01239078       0.00075600
H       10.20860578       3.01741222       2.74119915      -0.00053552      -0.01595981      -0.02330463
H       11.21105663       3.95549373       1.63941035      -0.00239062       0.00876538      -0.00351703
H       12.05919805       1.96621861       3.44767012       0.00306243      -0.01104769      -0.02958179
O       12.18061115       9.63828145       2.69308678       0.00197998       0.00691864      -0.00515309
C       12.25298014      10.42129117       1.51599479      -0.01150353       0.00427429      -0.00921136
H       12.36884466       9.79280299       0.62566854      -0.00771015       0.00291030      -0.00784597
H       13.12774514      11.07247519       1.61061734      -0.01966240       0.01654743      -0.01646835
H       11.37011768      11.05301480       1.37036163      -0.01900709      -0.00737856      -0.00768159
H       11.61143313       8.84272268       2.52509569       0.00638634       0.00344980       0.00026783
O        1.42152970       6.63940516       2.36417416      -0.00454015      -0.00463781       0.00532633
C        1.83316458       6.83553049       3.72399760      -0.00406683      -0.00404463       0.00503193
H        1.61888012       7.85424548       4.05648553      -0.00422637      -0.00395519       0.00462457
H        2.90414934       6.63690136       3.83142973      -0.00372538      -0.00294384       0.00476308
H        1.27276764       6.14279610       4.34977219      -0.00311957      -0.00411537       0.00585407
H        1.87484913       7.32654463       1.83735015      -0.00112005      -0.00698908       0.00476183
O        7.23622687       1.73527514       8.39835523      -0.00500882      -0.00072359       0.00541300
C        5.84251651       1.86348132       8.64213940      -0.00712878      -0.00202412      -0.00950611
H        5.56330094       2.90721444       8.77595611      -0.01222914      -0.00159109      -0.01770352
H        5.53909128       1.30360516       9.53319727      -0.01213087       0.00005572      -0.01037687
H        5.31614332       1.46999486       7.77355370       0.00241460      -0.01190897      -0.01076557
H        7.68991593       2.18007400       9.13408608      -0.01359981       0.00170936       0.00908610
O        2.81517151       8.62478719       1.04276960       0.00002211      -0.01223981       0.00411633
C        4.23095403       8.72580850       1.22856237       0.00101684       0.00051889      -0.00987507
H        4.47703020       9.43960360       2.01933076       0.00232661       0.00595272      -0.01499358
H        4.72259224       9.03300482       0.30195157      -0.01163797       0.00051723      -0.01655549
H        4.59121753       7.74456198       1.52805406       0.01182585       0.00456965      -0.00982998
H        2.43470165       9.50650626       1.01661990      -0.00786876      -0.01543063       0.01208795
