137
Lattice="13.033145186671481 0.0 0.0 0.0 13.033145186671481 0.0 0.0 0.0 13.033145186671481" Properties=species:S:1:pos:R:3:forces:R:3 energy=-695654.125 stress="0.0016678419196978211 0.00012916095147375017 0.0005362764350138605 0.00012916095147375017 0.0009346738224849105 -0.0007910573040135205 0.0005362764350138605 -0.0007910573040135205 0.000823917449451983" pbc="T T T"
Nd       3.42508792      11.14050983       5.54937246      -0.00915024       0.00123283       0.00396574
Nd       7.90782195      11.60527515      13.62849042       0.00658110       0.02688387      -0.00818067
O        3.62039244      11.29455403       7.76787790       0.00573397       0.00164247       0.00082552
O        5.34938848      12.12670496       6.16563783      -0.01183891       0.01153865      -0.00921249
O        6.21751976      10.82886637       8.43060444       0.00488824       0.01471543      -0.02815992
O        5.27709334      13.27696812       8.67376401       0.00336650      -0.02197349      -0.02212220
Cr       5.19016685      11.91807831       7.83921317       0.01484290       0.02579479       0.01379752
O        6.87218751       8.67650043       5.11326788       0.00419903      -0.00830466      -0.00550471
O        5.27562836       7.02825313       6.42710000      -0.00592755      -0.00217664      -0.01839757
O        5.14010487       7.17292745       3.79593460      -0.00422820       0.01581943      -0.01719666
O        4.20078425       9.29514669       5.24848982       0.00406909       0.00761861      -0.00347874
Cr       5.40619461       7.99074702       5.15893585      -0.00166857       0.00433803      -0.01004545
O        0.66224466      10.38387755       2.56237354       0.00378102      -0.00137901      -0.00939786
O        1.25326613      11.30152520       5.07253297      -0.01328790      -0.00628147      -0.00219905
O        0.69623052      12.97978339       2.99527737      -0.01096183      -0.00112212       0.00277522
O        3.03907187      11.57139346       3.35536112      -0.00897694       0.00830890       0.00677949
Cr       1.33698340      11.57575368       3.40463560      -0.00457835      -0.00013515       0.00014555
O        7.82849009      11.72208028      11.24359957       0.01370862      -0.02273661      -0.00187363
C        8.73457614      11.04457325      10.30979942       0.01207990      -0.00940615      -0.01430386
C        6.52500287      11.10559073      11.39417949       0.00472625      -0.01172554      -0.01440969
C        9.80114977      12.03262515       9.93167714       0.01130258      -0.00389934      -0.00252520
C        5.55644789      12.16257662      11.87868878       0.01127544      -0.00756425      -0.01414269
H        9.13995190      10.16157704      10.81856294       0.01355626      -0.01732330      -0.03129704
H        8.12860573      10.73278832       9.46115637       0.00844413       0.00568876      -0.01683414
H        6.22183738      10.69128205      10.42779988       0.01215036       0.00754538      -0.02475861
H        6.63235162      10.24091267      12.09389284      -0.01094615      -0.01690925      -0.02301267
H       10.55214272      11.54134517       9.31467178       0.00951205       0.00431052      -0.01136579
H        9.36834394      12.85547316       9.36375069       0.00892505       0.00783545       0.01598199
H       10.30196093      12.43570683      10.81522973       0.02051332      -0.02092640       0.00000070
H        4.60788165      11.71462229      12.17512336       0.00616039      -0.00623058      -0.03495267
H        5.92920557      12.74399350      12.74806261      -0.00850210      -0.03350227       0.00995825
H        5.39582808      12.89818778      11.08987564       0.03648559       0.01067042       0.00120285
O        8.87849479       5.92386548       8.25741399      -0.00217468      -0.00857837      -0.00276607
C        9.85358875       5.15253438       7.59682024      -0.00226076      -0.00768501      -0.00412385
C        8.78478531       7.23959252       7.71923934      -0.00874639      -0.01031089      -0.00655535
C        9.81720651       3.75098910       8.15782494       0.00577093      -0.00541943       0.00193340
C        7.68420910       7.98060235       8.42728286      -0.00462514      -0.01000926      -0.00091666
H        9.65168719       5.14241943       6.51478160      -0.00698698      -0.01301200      -0.00319475
H       10.85133095       5.60167411       7.73132656      -0.00332063      -0.00321478      -0.01026529
H        9.75586135       7.74815998       7.84259115      -0.00900012      -0.00773361      -0.01492977
H        8.56664423       7.19330693       6.64478796      -0.01689686      -0.01337570      -0.00480080
H       10.54361000       3.11521768       7.64975172       0.00678854      -0.00454029       0.00203684
H       10.04886889       3.76204229       9.22406242       0.00958292       0.00050085       0.00122912
H        8.82263206       3.32219655       8.02761448       0.00713375      -0.01052808       0.00713564
H        7.56896961       8.97426211       7.99720278      -0.00817654      -0.01046938      -0.00089198
H        6.73454107       7.46697994       8.28282798      -0.00576767      -0.01044759       0.00702185
H        7.89622445       8.06332900       9.49737581       0.00283025      -0.00865361      -0.00220890
O        1.76076140       6.77470619       5.74228200      -0.00200415      -0.00771791      -0.00532836
C        1.23696646       7.66350177       4.77118338      -0.00377803      -0.00605275      -0.00331241
C        1.66844767       7.29683036       7.05179371       0.00155389      -0.00913419      -0.00409001
C        1.71653089       7.24494763       3.40333667      -0.00708470      -0.00718004      -0.00452417
C        2.32814524       6.33901959       8.01262244       0.00275534      -0.01156801      -0.00693360
H        0.13633482       7.67737000       4.82723350      -0.00386584      -0.00508590      -0.00047186
H        1.57558657       8.68595434       4.98439818      -0.00244462      -0.00639862      -0.00414130
H        2.17564741       8.27318778       7.09385910       0.00266156      -0.01010561      -0.00376668
H        0.61174129       7.46198665       7.32183111       0.00211948      -0.00943064      -0.00043103
H        1.36887330       7.96796583       2.66432129      -0.00847051      -0.00779325      -0.00485086
H        2.80778287       7.21245520       3.39281563      -0.00690210      -0.00678858      -0.00729790
H        1.33988479       6.25400164       3.14283958      -0.00712398      -0.00748581      -0.00232003
H        2.27086102       6.73875601       9.02666091       0.00659834      -0.01181675      -0.00637284
H        1.82970555       5.36864250       7.99097428       0.00128914      -0.01041234      -0.00719784
H        3.37582533       6.21155803       7.74063141       0.00185913      -0.01245407      -0.00996812
O        6.18705353       2.47839635      11.38600115      -0.00071105      -0.01179031       0.01064164
C        7.42628114       2.90668540      11.89486877      -0.00062978      -0.01712406       0.01487687
C        5.50334751       3.53576545      10.70666955       0.00614369      -0.00583886       0.01061128
C        8.16202644       1.71199694      12.47863162      -0.00532281      -0.02136579       0.01321813
C        4.21354371       3.00601969      10.13644472       0.00219423       0.00224340       0.01034738
H        8.03402505       3.34707838      11.09036788       0.00344265      -0.01742826       0.01838121
H        7.28307438       3.68747382      12.65692251      -0.00030734      -0.02006987       0.01773050
H        5.31872243       4.35649004      11.41560688       0.01192864      -0.00556856       0.01086670
H        6.15018893       3.93013312       9.91151713       0.00873941      -0.01105334       0.01019907
H        9.15134535       2.01038045      12.82647322      -0.00879633      -0.02365151       0.02589917
H        7.59614214       1.31371721      13.34615980      -0.01555614      -0.02098976       0.00754077
H        8.26554316       0.94287940      11.71235191      -0.00044326      -0.01748134       0.00980246
H        3.67526518       3.81413164       9.63924080       0.00987291       0.00796516       0.00896046
H        4.41032660       2.21553987       9.41389674      -0.00386237       0.00055835       0.01242867
H        3.57824884       2.60381324      10.92704353      -0.00235715       0.01084618       0.01066709
O       10.18991985      10.97382225       0.92651269      -0.00157040       0.00648026       0.00528265
C       10.75792227       9.62948448       0.85332836      -0.00378513       0.00737260      -0.00691185
C       11.18093660      12.02513479       1.23511708      -0.00385153       0.00630739       0.00504118
C        9.60823538       8.65984614       0.88958420      -0.00968966       0.01418105      -0.00882916
C       10.47956310      13.06536532       2.06326968      -0.01131850       0.00542665       0.00012568
H       11.33875072       9.55824784      -0.07014116      -0.00795658       0.01259226      -0.01020423
H       11.43975351       9.51412940       1.69673310       0.00029272      -0.00079690      -0.01111406
H       12.00978798      11.56004940       1.76972710      -0.00383598       0.00923555       0.00826506
H       11.55088818      12.41735049       0.28497150      -0.00318373       0.00407574       0.00413293
H        9.97409672       7.63766322       0.78824858      -0.02004450       0.01313087      -0.02536662
H        9.05303581       8.72752810       1.82704647      -0.00188259       0.00611195      -0.00382918
H        8.91496464       8.83352293       0.05436600      -0.01592077       0.02851749      -0.00114801
H       11.12311466      13.93003723       2.23125125      -0.02257925       0.01473182      -0.00967270
H        9.57342237      13.44847717       1.55194062      -0.01860832      -0.00919528       0.00123540
H       10.19753263      12.66764566       3.03884911      -0.00514447       0.01115431       0.00365499
O       11.73875396       3.20450663       3.13942904      -0.00094780       0.00259799       0.00013530
C       12.33261204       3.56491056       4.38286186       0.00590547      -0.00203812      -0.00142774
C       11.70015755       4.28910747       2.23706730       0.00245097       0.00402174       0.00144213
C       12.44063855       2.32892955       5.23923644      -0.00011757      -0.00307298      -0.00191146
C       11.06449717       3.81113553       0.95389926      -0.00179204       0.00922561       0.00133824
H       13.32200822       4.00614975       4.20512895       0.00849241      -0.00916472      -0.00483842
H       11.71536693       4.33629156       4.86766150       0.01328552       0.00244445       0.00091180
H       11.12162140       5.11929375       2.67066137       0.00732514       0.00630832       0.00360462
H       12.71722935       4.66337625       2.05524617       0.00393248      -0.00070080      -0.00030625
H       12.87822796       2.58490215       6.20542092       0.00436760      -0.00629643      -0.00295435
H       11.45434350       1.89362180       5.40959256      -0.00262997       0.00361665       0.00097221
H       13.06604500       1.57889424       4.75434071      -0.00656603      -0.00738716      -0.00364192
H       11.02509499       4.61209238       0.21470665       0.00094719       0.01099963       0.00297573
H       11.63888025       2.98253172       0.53586297      -0.00600260       0.00763622      -0.00136645
H       10.04732187       3.47110371       1.15131650      -0.00357372       0.01365725       0.00190020
O        6.02608984       2.89250845       4.38752145      -0.00117410       0.00587088       0.00363576
C        4.98160414       3.83631977       4.63157755      -0.00034404       0.00720634       0.00359169
C        7.01183762       2.94270183       5.39696069      -0.00271887       0.00135717       0.00543746
C        4.00711372       3.78517664       3.48293110      -0.00085098       0.00845651       0.00398141
C        8.03308867       1.86284444       5.12373293      -0.00365895       0.00042683       0.00497265
H        4.48344090       3.58591378       5.57911832      -0.00086123       0.00852494       0.00406402
H        5.39877919       4.84488532       4.73677811       0.00113988       0.00672168       0.00366644
H        7.47991046       3.93909660       5.41303402      -0.00128430       0.00071228       0.00983676
H        6.54984084       2.78701848       6.38398777      -0.00513998      -0.00188197       0.00401092
H        3.21412892       4.51324799       3.65378022       0.00103344       0.01054193       0.00290103
H        4.50914530       4.04055360       2.54872411      -0.00024231       0.00609272       0.00326318
H        3.56537818       2.79200975       3.38339308      -0.00274467       0.00923152       0.00508599
H        8.84163642       1.90552042       5.85516973      -0.00377160      -0.00157977       0.00491685
H        7.56084303       0.88183874       5.19218405      -0.00434476       0.00080800       0.00304785
H        8.46717891       1.99000866       4.12951433      -0.00369141       0.00360143       0.00484239
O        6.49198115       9.84427012       1.50213877      -0.00460884       0.02274602       0.00802208
C        5.36988833       8.97284565       1.08782881      -0.00008196       0.01216542       0.01363434
C        6.15433596      10.91031378       2.41289508       0.00039703       0.01700260       0.01935529
C        5.87784950       7.57829446       0.86342775       0.01582433       0.02191150      -0.01027234
C        7.30746545      11.12861591       3.36878515      -0.00168876       0.00728612       0.02027401
H        4.64575961       8.99137468       1.89864943       0.00859074      -0.01697878       0.02070454
H        4.92137628       9.40984023       0.19130002      -0.02429706       0.01667781       0.02873102
H        5.87877134      11.82510507       1.81818215       0.01304308       0.02197592       0.02382380
H        5.22869899      10.67511803       2.93725723       0.00309205       0.01426920       0.02302426
H        5.03661511       6.96273683       0.54123126       0.02156681       0.00981334      -0.00210476
H        6.64656986       7.53227931       0.08966334       0.00478616       0.03791244      -0.02100116
H        6.23885528       7.16525818       1.80411526       0.03798334       0.02156980      -0.01958612
H        7.16158310      12.04895509       3.93443184      -0.00986721      -0.01209627       0.04733422
H        7.35500054      10.26999178       4.05183654       0.00703386      -0.00544530       0.00143659
H        8.30045240      11.16848206       2.87620697      -0.01100311       0.04522748       0.00994650
