150
Lattice="12.81146271004533 0.0 0.0 0.0 12.81146271004533 0.0 0.0 0.0 12.81146271004533" Properties=species:S:1:pos:R:3:forces:R:3 energy=-661713.25 stress="0.00024158725864253938 -0.0003789756738115102 0.00033524405444040895 -0.0003789756738115102 0.00019030530529562384 -0.0003543604980222881 0.00033524405444040895 -0.0003543604980222881 0.0009921797318384051" pbc="T T T"
Nd       8.71772123      11.69184567      -0.40861664      -0.00040273       0.00684105      -0.02380212
Nd       4.28160639      11.82752917      11.83008655      -0.00419623      -0.00026580      -0.00211250
O        4.25168674      11.72298364       3.16500954       0.01285952      -0.00281751       0.00200546
O        4.89936854      12.41023944       1.14399789      -0.00601345      -0.00073785      -0.00339755
O        5.57216770      10.42928175       1.92259366       0.00139254      -0.00172019      -0.01086548
C        4.94066530      11.48229585       2.05603587       0.00229818      -0.00158882      -0.00411487
O        7.93298712      12.50561030       3.47533364       0.00426760       0.00340270       0.01442349
O        7.52242803      13.02901237       1.28829949       0.00038266      -0.00411233      -0.01780973
O        9.29699694      11.85862794       1.77717517       0.01372433      -0.00172412      -0.02600509
C        8.28370630      12.42699052       2.32992088       0.01054423       0.00155510      -0.04824889
O       11.08956422      10.75243124       9.37160521       0.00422999      -0.02529567      -0.00557232
O       10.31976904      11.00747403      11.46751549       0.00331098      -0.01088414      -0.00658321
O       12.03880777       9.65865663      11.10722268       0.00678402      -0.00869536       0.00599748
C       11.21853170      10.42642517      10.54068885       0.00417885      -0.01569998       0.00030643
O        9.46504152       0.61738700       9.99458542      -0.00238071      -0.02151740       0.02503645
O       11.41138440       1.72744269      10.27847224      -0.01407039       0.01833147      -0.01872951
C        9.87472220       1.54205859      12.11572598       0.01389383       0.00641048       0.00982726
C       10.35738049       1.33720899      10.70378849      -0.00818068       0.00213721       0.00725532
H       10.07082445       2.56588558      12.42556342       0.03580101       0.00066057       0.01315980
H        8.79007917       1.41495874      12.19943392       0.01255672       0.02279593       0.02042828
H       10.43631761       0.88235043      12.79219763       0.00738994      -0.00792849       0.00152285
H        9.84183613       0.44560321       9.08500583      -0.00917944      -0.02362471       0.02208519
O       11.94652783       4.34279541       3.13079831      -0.01979500      -0.01833421      -0.01244412
O       10.68736622       4.18550714       4.97169246      -0.00074327      -0.00244436       0.00211895
C       12.39304220       2.53447782       4.58450555       0.00914353       0.00549203       0.00785211
C       11.58144577       3.75226229       4.27907751      -0.00334746      -0.00595152      -0.00158718
H       12.67797640       2.01116525       3.67457088       0.00542846      -0.00568213       0.01299283
H       13.31328410       2.83471914       5.09036501       0.01153100       0.02163807      -0.00553702
H       11.82943235       1.88526676       5.24933649       0.02164824       0.01034153       0.02311982
H       11.34980876       5.09712234       2.95882419      -0.02559644      -0.02277988      -0.01421952
O        4.21886080       7.44331777       2.33844676       0.00467181       0.00038448      -0.00701499
O        4.09866201       5.96664336       0.65078337      -0.00213766      -0.00641906      -0.00100541
C        2.08644266       6.97810935       1.46107911       0.00094235      -0.00296549       0.00399177
C        3.56624756       6.72567853       1.43764279       0.00049675      -0.00341612      -0.00152767
H        1.55476510       6.03243265       1.36907124      -0.00024586      -0.00143912      -0.00489362
H        1.78567114       7.50013655       2.36599293       0.00286604      -0.01123551       0.00959085
H        1.83853189       7.58968949       0.59041030      -0.00014225       0.00652133       0.01070097
H        5.20083996       7.28552992       2.29344186       0.00447096       0.00154755      -0.01165438
O        2.89166070       9.29007921       5.95353608      -0.00385076       0.02215126      -0.00312810
O        2.69473450      11.47707862       6.40217678       0.02346426       0.01996660       0.01575756
C        4.88210213      10.52430589       6.06934360       0.01137483      -0.00220247      -0.00246471
C        3.39040012      10.50049505       6.14875390       0.01148611       0.01366371       0.00452981
H        5.26318906      10.50749269       7.09290554       0.01634332      -0.00095814      -0.00435522
H        5.26141537       9.66230122       5.53224466      -0.00122740      -0.00847892      -0.00098919
H        5.21945388      11.43844575       5.59265290       0.01876407      -0.00771999      -0.00832473
H        1.92276428       9.25398883       6.12449566      -0.00375485       0.03164090       0.00318207
O        2.11249535      12.22842423      -0.11603198      -0.00814399      -0.00217497      -0.00951833
O        2.90148378      10.17853658      -0.02275382      -0.00726819      -0.00168145      -0.00343932
C        0.79079903      10.59526305       1.04110081      -0.00261360       0.00333917       0.00552285
C        1.99730641      11.02652852       0.27612647      -0.00668412      -0.00056541      -0.00367832
H        0.34415388      11.43426735       1.56861960      -0.00335482       0.00749743      -0.00175267
H        0.07292926      10.21818933       0.30454151      -0.00520520      -0.00692856       0.01313150
H        1.04480747       9.79005918       1.72581476       0.00342209       0.01174030       0.01359890
H        3.87318434      12.63162534       3.12046791       0.00741661      -0.00453633       0.00430575
O        7.33912033       5.11698265      11.23886889       0.00199890      -0.00339574      -0.01303157
O        7.07861803       2.98541535      11.89517349       0.00704569       0.00060630      -0.00016773
C        5.26155616       4.13639424      10.80465483       0.00007808      -0.00882651       0.00457248
C        6.64036750       3.98385064      11.36590547       0.00418502      -0.00426555      -0.00228852
H        4.67402223       4.72595391      11.51208675       0.00492294      -0.00014079       0.00125465
H        5.29846311       4.68326161       9.86317422      -0.00564153      -0.01729316      -0.00069469
H        4.80083932       3.16377612      10.66884156      -0.00091331      -0.01062913       0.01827019
H        8.24445065       5.00166535      11.58168928       0.00378288      -0.00205702      -0.01681629
O        4.60818998      13.20084108      10.35817519      -0.00419232       0.00054535      -0.00059828
O        3.76630906      10.25928687       9.55154839       0.00549036      -0.00378209      -0.01014841
C        1.54981286      11.21720309       9.39301061       0.00027519      -0.01331802      -0.00057974
C        2.90143021      10.98663634       9.95360021       0.00356984      -0.00814062      -0.00678980
H        1.29022468      12.27219759       9.46401027       0.00542470      -0.01086609      -0.01557620
H        1.48749281      10.86873668       8.36283234      -0.01043596      -0.02930441       0.00554371
H        0.84057772      10.67551705      10.02358439       0.00292791      -0.00106915       0.01289694
H        4.65891504      13.41455534       9.41929764      -0.00173741      -0.00351458      -0.00141099
O        6.50469726      10.74476491      11.78358377      -0.00417134       0.00216135      -0.00941136
O        7.99443465       9.53881173      12.84863183       0.00264245       0.00841674      -0.01127386
C        6.02148306       8.39900773      12.09815083      -0.00212908       0.00391096       0.00849721
C        6.88267849       9.59549814      12.27316462      -0.00140467       0.00456585      -0.00423715
H        5.14821738       8.50839678      12.74527157      -0.00407630       0.01286399       0.00445949
H        5.66258739       8.35367477      11.06932589       0.00084187      -0.00791247       0.00776374
H        6.55737061       7.49198123      12.36031873      -0.00352757       0.00617966       0.01947399
H        6.58821163      13.15814253      14.35158151       0.00401139       0.00209603      -0.00816184
O        9.99503533       6.04583635       1.90342243      -0.01981360      -0.00174206       0.00654714
O        9.17278539       6.66240155      -0.08683224      -0.01129335       0.00304604      -0.00420606
C       11.10091779       7.81549588       0.77122750      -0.00135529      -0.00958985       0.01190745
C        9.99419705       6.82059987       0.77043432      -0.00134104      -0.00045484       0.01240700
H       11.09330857       8.39121553       1.69658699      -0.01351308       0.00026737       0.00587581
H       12.06332328       7.30365791       0.70886940      -0.00297979      -0.01561072       0.03430165
H       11.01203361       8.47770483      -0.08434394       0.01556187      -0.01684140       0.00443673
H        9.18324538       5.51505867       1.87339019      -0.02691019       0.00968191       0.00598295
O       10.26488959       4.95571594       7.59927934       0.00210255       0.00913084      -0.00618041
O        8.07189280       4.71468580       7.20549522       0.00263357       0.02939957      -0.02144974
C        8.79483514       6.48094288       8.66399500       0.00718097       0.01129979      -0.00233805
C        8.96276759       5.29680794       7.77120187       0.00288337       0.01725954      -0.01213205
H        9.61785624       6.59040087       9.36420064      -0.00139959      -0.00825473       0.01109856
H        8.78615411       7.36295751       8.02025672       0.03065744       0.01902191       0.00736505
H        7.85375174       6.40651716       9.19844606      -0.00157499       0.01963118      -0.01655884
H       10.32783062       4.35489387       6.82867340       0.00318414       0.01400045      -0.01027289
O        0.69878308       7.65419917      10.99910996      -0.00215152      -0.01076153       0.00238985
O        0.85772114       7.41805916       8.77596640       0.01566386       0.02246255      -0.00014114
C        2.29678883       6.13143553      10.17566116       0.00278229      -0.00057447      -0.00792064
C        1.20339885       7.12258084       9.90838916       0.00583506       0.00541806      -0.00053155
H        3.24703776       6.62182381       9.95404627       0.00408301      -0.00557792      -0.01334268
H        2.31922889       5.81457097      11.21527461       0.00586910      -0.00274738      -0.00871126
H        2.19446711       5.27994346       9.50761562      -0.00592478       0.00110237      -0.00890106
H        0.05489517       8.42972927      10.81313887       0.00025313      -0.00581184       0.00714695
O       11.52269750      11.54913490       6.31965384      -0.00306779       0.01424843      -0.00135940
O       10.46791035      13.09749028       7.52777262      -0.00890589      -0.01046097       0.02474624
C        9.24617779      11.15767607       6.77622162      -0.00186950      -0.00139141      -0.00783888
C       10.43796305      12.03402020       6.94077989      -0.00483272       0.00055760       0.00756276
H        8.96556214      11.11623751       5.72065196      -0.00353201       0.01853912      -0.00839648
H        9.49596397      10.15155734       7.11038886       0.00211989      -0.00770992      -0.02922301
H        8.41771215      11.56055772       7.35058263      -0.00232027      -0.01580091       0.00162068
H       12.27138642      12.12111928       6.54641644      -0.00543395       0.01384866       0.00819537
O        6.97836284       9.17685256       3.72019324      -0.01040399       0.00042677      -0.00382074
O        6.85207622       7.20966943       2.63725975       0.00639236       0.00282496      -0.01001990
C        8.47401712       7.49376694       4.37556599      -0.01451361       0.00155860       0.00952381
C        7.34872257       7.93373973       3.49227019      -0.00500083       0.00089380      -0.00309509
H        9.41322801       7.78050112       3.89943388      -0.00896329      -0.00241350       0.01792265
H        8.44752858       7.99202627       5.34046374      -0.02430846       0.00479592       0.00763777
H        8.47840939       6.41415893       4.49672578      -0.01850891       0.00188914       0.01309650
H        6.32889133       9.53675352       3.04206782      -0.00449665       0.00086451      -0.00995220
O        3.58964547       3.60549567       3.88726525      -0.01844648      -0.02096787       0.00849789
O        3.39119746       1.44817081       3.35261456      -0.01877008      -0.01719642      -0.00831082
C        2.53086540       3.11559800       1.84654889      -0.00822374      -0.00569701      -0.00106776
C        3.21022596       2.62202588       3.08373089      -0.01549083      -0.01384884      -0.00068226
H        1.67157590       3.72352277       2.13277174      -0.00667317      -0.00288256      -0.00234435
H        3.20643572       3.76344990       1.28476349      -0.00313266      -0.00649609       0.00393645
H        2.20470577       2.27888927       1.23925757      -0.00919720      -0.00210491      -0.00561135
H        3.95513502       3.20504355       4.71612649      -0.01918013      -0.02703591       0.00649962
O       13.13821495       8.65455145       6.57308083      -0.00180706       0.02983823       0.00827575
O       10.95129284       8.18009476       6.44310022       0.00353098      -0.00087321       0.00240463
C       12.07215317       9.09506136       4.52096349      -0.00084519       0.00471941       0.00124985
C       11.95724038       8.60772621       5.93650943       0.00308383       0.01164016       0.00248224
H       12.85207734       9.84625216       4.41976351      -0.00249696       0.00576332      -0.00433756
H       12.33820673       8.24302060       3.88984797      -0.00117415       0.00165306       0.00503570
H       11.12053130       9.49873991       4.18708847      -0.00230223       0.00089253       0.00014183
H       13.10242276       8.22848845       7.47088561       0.00160520       0.02892269       0.00753602
O       12.02455555       4.82791482       9.78293902      -0.00238287       0.00452703      -0.00642204
O       10.15951510       4.47242539      10.97227855      -0.00071454       0.00672247      -0.00248572
C       12.30130511       4.36304745      12.06483115       0.00136060       0.00595574      -0.00631762
C       11.36860056       4.55226236      10.90558412      -0.00015891       0.00561316      -0.00503013
H       12.88318077       3.45674493      11.89441877       0.00300400       0.00713481      -0.00703590
H       12.99274853       5.20261193      12.12647471      -0.00024199       0.00733966      -0.00672222
H       11.74421272       4.26557804      12.99238842       0.00243224       0.00474776      -0.00568102
H       11.38943818       4.89123536       9.03598814      -0.00336659       0.00394771      -0.00583554
O        4.52497905       0.48413814       7.33226921       0.02077323      -0.01583692       0.00967824
O        4.11091660       2.33897716       6.15539194      -0.00956088      -0.03115571      -0.00317892
C        6.39462714       1.74279108       6.65077222      -0.00066841       0.01236659       0.00704288
C        4.91129765       1.58977490       6.67600600       0.00177395      -0.01380587       0.00362024
H        6.84671524       1.32790849       7.54987712       0.00306649       0.02413290       0.01050773
H        6.76374905       1.15403829       5.80357995       0.01236700       0.01778759       0.00833195
H        6.69241270       2.77808424       6.51797753      -0.01716258       0.01608193      -0.00012997
H        3.64784908       0.15560263       7.01784477       0.02869424      -0.04067456       0.00336729
