146
Lattice="12.436802884215707 0.0 0.0 0.0 12.436802884215707 0.0 0.0 0.0 12.436802884215707" Properties=species:S:1:pos:R:3:forces:R:3 energy=-132040.8125 stress="-8.1804180808831e-05 0.00016073757433332503 -0.0003980399196734652 0.00016073757433332503 0.0007064465899020433 0.0005525407323148102 -0.0003980399196734652 0.0005525407323148102 0.0007482465007342398" pbc="T T T"
O        7.16736856      11.75923784      11.52292065       0.00070894       0.00676361       0.00701246
H        7.17173226      11.15202737      10.77207886      -0.00154824       0.00595838       0.00760603
H        6.24833845      11.91348709      11.77334001       0.00122377       0.01168968       0.00780584
H        8.23372629      13.04671149      11.41982345       0.00193709       0.00197689      -0.00238719
O       10.69778955      12.70153593       1.13319201      -0.00247949       0.00398979      -0.00519768
H       10.05268657      13.11442898       0.54395742      -0.00222657       0.00155705      -0.00717130
H       12.10450294      12.95182698      -0.14449447      -0.00203453       0.00271207      -0.00278168
H       10.29062275      11.86381624       1.40737878      -0.00087939       0.00331357      -0.00416309
S       12.36456236       3.07732294      -0.70430274      -0.00382568       0.00131521      -0.01004242
S       12.78407499       1.09734407      -1.17617123      -0.00429534       0.00013881      -0.00593796
O       11.31812254       2.84531083       2.51167242       0.00540566       0.00590943      -0.01149708
O        9.15709794       2.87043989       1.91769419       0.00151110       0.01205418       0.00269806
C        9.77590689       1.99606263       4.07102919       0.01413471       0.00496134      -0.00358957
C       10.02073179       2.60721308       2.73020616       0.00624406       0.00833952      -0.00362176
H       10.13932119       0.96641397       4.04444289       0.00878938       0.00325234      -0.01083957
H       10.33589452       2.51489344       4.84955949       0.02305353      -0.00103184      -0.00604971
H        8.71585591       1.99927830       4.30574516       0.01597106       0.00906348       0.00545435
H       11.44885927       3.06372880       1.56655051       0.00074467       0.00676902      -0.01179931
O        7.37574402       9.33105373       1.62357443       0.01594970      -0.01762563       0.02528375
O        9.30834277      10.41226770       1.90281648       0.00903350       0.00108187       0.00497960
C        7.28254348      11.46865348       2.63702238       0.00283378      -0.00481808      -0.00363791
C        8.10409768      10.37640384       2.02906676       0.00875723      -0.00742856       0.00835995
H        7.16004681      12.26127119       1.89612797       0.00705775      -0.00925475      -0.00901721
H        6.30528786      11.08742282       2.93022132       0.00175780      -0.00508849      -0.00749465
H        7.81114054      11.87475333       3.49628020      -0.00353411       0.00125002      -0.00267482
H        8.00256659       8.65491894       1.30626375       0.01957715      -0.02018851       0.03465231
O        4.33007044       1.05454127       2.82690522       0.00541282      -0.01821315      -0.01978796
O        4.78422977       0.43234176       0.72399040       0.00537005      -0.01701927      -0.02005351
C        3.18824252       2.19873802       1.09594256      -0.00129291      -0.02342731      -0.01841585
C        4.17579234       1.15263134       1.48178427       0.00353193      -0.01909244      -0.01930439
H        3.08024465       2.96006884       1.86478665      -0.00108233      -0.02199841      -0.01952349
H        3.47118063       2.62594466       0.13563485      -0.00658488      -0.02456798      -0.02038375
H        2.21948659       1.71136919       0.95675520      -0.00037277      -0.02669531      -0.01342437
H        4.94971088       0.32686587       2.98382939       0.00936902      -0.01519549      -0.01995538
O        7.27126124       4.78237421       1.11368124      -0.01695311      -0.00597304      -0.00279555
O        7.50725162       5.53219702       3.21935116      -0.01258773       0.00685368      -0.00836539
C        5.46223248       4.47006475       2.56959337      -0.01233989      -0.00202626       0.00407767
C        6.84200788       4.98268042       2.36020501      -0.01408291       0.00082067      -0.00325501
H        4.78436443       4.98689243       1.89110815      -0.01477481      -0.01677039      -0.00409883
H        5.44486941       3.40764399       2.33279784      -0.00701566      -0.00593096       0.02076678
H        5.15322911       4.64086252       3.59588843      -0.01376712       0.01192633       0.00119498
H        8.24047421       4.85944283       1.08533073      -0.01716387      -0.00651547      -0.00585371
O        9.15259657       3.49336022      11.13879506      -0.00353497       0.00430375      -0.00230475
O        8.93453983       1.31466807      11.43171378       0.00121215       0.00339532      -0.00353327
C        6.92360432       2.62113691      11.22585945      -0.00141120      -0.00169777      -0.00642904
C        8.41872549       2.53220912      11.25818244      -0.00149560       0.00232795      -0.00358068
H        6.51521771       2.28489259      12.18013574      -0.00358381      -0.01067500      -0.01052116
H        6.61493665       3.64506169      11.05113129      -0.00432241      -0.00142419       0.00036852
H        6.50930593       1.97158085      10.45378676       0.00306543       0.00313254      -0.01293682
H       11.06311879       3.15244178      11.33097583      -0.00526249      -0.00091331      -0.00629307
O       10.74340699       5.03335837       8.22921050      -0.00278223       0.00430691       0.00844729
O       11.57830302       3.80891457       6.54779517       0.01271009      -0.00358003       0.02004859
C        9.96286811       5.53107882       6.06548209       0.00947243      -0.01063102       0.00046873
C       10.83580310       4.68449752       6.92772554       0.00524259      -0.00163066       0.01177755
H        9.03313244       5.80405052       6.55914238       0.00910790      -0.00220991      -0.00423303
H       10.48250409       6.46706135       5.84772664       0.01226494      -0.01457432      -0.00918663
H        9.76351041       5.03957863       5.11803979       0.01013990      -0.02046761       0.00563899
H       11.36828957       4.48819876       8.73189747      -0.00334868       0.01040119       0.01572426
O        1.91671778       6.96974860       1.52062792       0.00067306       0.01056415      -0.00500542
O        4.09713497       7.26105944       1.94506380       0.00145924      -0.00454846      -0.00207821
C        2.46074062       8.37041528       3.32888495       0.00777924       0.00258762      -0.00093025
C        2.94212243       7.49410706       2.22058729       0.00455785       0.00191544      -0.00309888
H        1.69089972       9.05253504       2.97068445       0.01410404       0.00983283      -0.00050289
H        2.00569591       7.73691916       4.09178465       0.00135656       0.00357036      -0.00403607
H        3.28752585       8.92286667       3.76018722       0.01121369      -0.00540062       0.00279468
H        2.29244948       6.45917290       0.78893030      -0.00217918       0.00588739      -0.00318041
O        6.59198628       9.82539174       8.98337830      -0.01047629       0.00015259      -0.00099902
O        5.01191305       9.86497033       7.39518809      -0.00191003       0.00122881      -0.00986677
C        6.15068858      11.90649362       7.93734249      -0.01135615       0.00278431       0.00430152
C        5.83363758      10.45587457       8.05958694      -0.00682479       0.00152594      -0.00233543
H        6.76122630      12.27589924       8.75556916      -0.01898041       0.00267453       0.01049116
H        6.73211759      12.04223272       7.02332926      -0.00505085       0.00839891       0.00917181
H        5.23084141      12.47706395       7.83193685      -0.01278064      -0.00028195      -0.00092613
H        6.43925851       8.87281171       8.87844928      -0.00616312      -0.00009459      -0.00629561
O        0.80979159       9.80944746      -0.22437504      -0.02961355      -0.00220204      -0.01508078
O        1.76829872       8.05096309      -1.22274613      -0.02845818      -0.00172013      -0.01553011
C        3.16277395       9.77714978      -0.29463903      -0.03147858      -0.00540388      -0.01680970
C        1.85468394       9.12422687      -0.62981980      -0.03308278      -0.00005794      -0.01360592
H        3.20232744      10.77442631      -0.73472275      -0.02770956      -0.00901660      -0.02452159
H        3.24423969       9.91831823       0.78394027      -0.03458932       0.00308554      -0.01807740
H        3.99591790       9.17192704      -0.63747040      -0.03323068      -0.01173903      -0.01171433
H       -0.03629595       9.34259902      -0.50083402      -0.03755040      -0.00281900      -0.01588571
O        3.29489531       7.60526542       7.24573564      -0.00227892       0.00019267      -0.00477386
O        1.76263385       9.19252528       6.80623329      -0.00395271       0.00100148       0.00324804
C        1.01462340       6.97191993       7.33122463      -0.00176448      -0.00126666      -0.00240263
C        2.02168592       8.05549744       7.10830047      -0.00276844      -0.00009060      -0.00098126
H        0.88758313       6.42249021       6.39413565      -0.00271598       0.00140442      -0.00388193
H        1.34118907       6.26481817       8.09025308      -0.00014038      -0.00319527      -0.00492364
H        0.05953424       7.41362308       7.59684590      -0.00169478      -0.00278066       0.00046093
H        3.89088822       8.37967717       7.17766341      -0.00255118       0.00053200      -0.00574970
O       11.88460302       6.73125383      10.78721885       0.02101374       0.03152642      -0.00738295
O       10.96747820       8.64907202      11.48877932       0.00751894       0.02036554       0.00769636
C        9.53539302       6.93537708      10.61411325       0.01952666       0.01098529       0.01787709
C       10.84756105       7.52554578      11.01623391       0.01907937       0.01759166       0.00418860
H        9.50321369       6.86228711       9.52519104       0.01119183       0.00678650       0.01850951
H        9.42841334       5.91549010      10.98380537       0.03009176       0.01150271       0.02130748
H        8.72401406       7.56588227      10.96492040       0.01875906       0.00670983       0.02416877
H       12.72486781       7.22991550      10.99239522       0.02666584       0.03869548      -0.01322366
O        9.25752752       7.10148270       2.04744340       0.00715357      -0.01393327       0.00276622
O        9.65136431       7.91464687       4.09649889       0.00925505      -0.01412252       0.00018954
C       11.41858721       7.98490051       2.47397602       0.00004488       0.01388329      -0.00057903
C       10.05036864       7.68789178       2.97821208       0.00882685      -0.00364280       0.00852519
H       11.74866604       7.23069000       1.76562272       0.01466939       0.01277773       0.00340500
H       11.40505123       8.95197887       1.96921448      -0.01639456       0.00835732      -0.00993752
H       12.09884939       8.02856848       3.31759401       0.00257542       0.03276690      -0.00334424
H        8.52702983       6.64769795       2.55182893       0.01212712      -0.01427874       0.00092638
O        5.81588122       3.43064720       5.85153163       0.00271481       0.01267642       0.00204372
O        7.46905713       2.12237496       6.61390345      -0.00058109       0.00569040      -0.00287229
C        6.90060535       4.13801290       7.81594658       0.00544374       0.00360572       0.00367796
C        6.80219766       3.12202551       6.72402005       0.00235677       0.00710285       0.00072029
H        6.77356520       5.14694759       7.42482955       0.01007444       0.00531757       0.00640262
H        6.08959888       3.94639306       8.52314414       0.00386871       0.00490640       0.00227593
H        7.84828394       4.03845682       8.33764422       0.00448948      -0.00154918       0.00430055
H        5.76645753       2.70656804       5.21120417       0.00065444       0.01395249       0.00032064
O        2.75369353       4.17636032       8.60432639      -0.00916090       0.01630926       0.01021522
O        3.92647153       3.02227051      10.12984231       0.00588149       0.00226742      -0.01210974
C        3.64884416       5.40783560      10.37820936       0.00179877      -0.00111765       0.01601928
C        3.47031577       4.06992435       9.73634400       0.00026724       0.00511837       0.00288123
H        4.28415679       6.01982811       9.73433600      -0.00577150       0.00766867       0.01694867
H        2.70182497       5.93923140      10.44832947       0.00026530      -0.00540593       0.02866188
H        4.11150555       5.30461516      11.35551353       0.01029862      -0.00965777       0.01103929
H        2.74056129       3.31463105       8.16367154      -0.01150879       0.02172691      -0.00048910
O        2.94820465       4.41365212       5.79615982      -0.01315406      -0.01255989       0.01912194
O        1.52636144       5.36473180       4.34401347       0.01810312      -0.00230265      -0.00493774
C        1.54362917       2.96283768       4.60526806       0.00000295      -0.00324565      -0.00808396
C        1.97121996       4.36907584       4.86565230       0.00306365      -0.00628567       0.00224340
H        2.40753866       2.34415108       4.36045222       0.00023161      -0.00462773      -0.00464875
H        1.09245788       2.56817403       5.51622606      -0.00812555      -0.00692602      -0.01384297
H        0.80455260       2.93430989       3.81349928       0.00704977       0.00307744      -0.01480235
H        3.15952405       5.34102035       5.99186756      -0.00854612      -0.01395965       0.02133770
O       11.53288425      11.38827375       8.99591898      -0.00968599       0.00591260       0.02399188
O        9.29059195      11.52744296       8.97097836      -0.01092601      -0.00957721       0.02502039
C       10.36952708       9.60703446       8.00023069       0.00403386       0.00780821       0.00610805
C       10.30873600      10.93203741       8.70343937      -0.00608367       0.00024611       0.01936021
H       10.78332255       9.73287304       6.99665474       0.00161919       0.02198350       0.00698200
H       11.05009035       8.93852361       8.52544809       0.01138490       0.00835357      -0.00285210
H        9.37763778       9.16266783       7.95244512       0.00800179      -0.00068005       0.00272183
H       11.45543806      12.23463398       9.47461909      -0.01391289       0.00210521       0.03070362
O        7.65199163       9.63538792       5.51448494       0.00646269      -0.00608344      -0.00139606
O        7.33669792       7.75801350       6.69981002       0.00633314      -0.00014377       0.00806051
C        5.92650593       8.21522788       4.79365373       0.00537288      -0.00905751       0.00676060
C        7.02849143       8.46534411       5.76631003       0.00579807      -0.00443506       0.00443417
H        5.18983302       9.01246718       4.90375127       0.00551470      -0.00841963       0.00375894
H        6.30162528       8.24652329       3.77190869       0.00442652      -0.01404434       0.00628439
H        5.46260878       7.25393145       4.98708267       0.00520044      -0.00819054       0.01200673
H        8.42394106       9.68001625       6.09727401       0.00578779      -0.00315198      -0.00096250
