148
Lattice="12.009712538931367 0.0 0.0 0.0 12.009712538931367 0.0 0.0 0.0 12.009712538931367" Properties=species:S:1:pos:R:3:forces:R:3 energy=-98458.8828125 stress="0.0016909034457057714 -0.0003404174785828218 -0.0005247484368737787 -0.0003404174785828218 0.0008650756790302694 -0.00028198136715218425 -0.0005247484368737787 -0.00028198136715218425 0.0016385570634156466" pbc="T T T"
O        6.82276343      11.44632563       6.52308352       0.01636606       0.00214748       0.01682690
H        6.89659381      11.97662882       5.64105574       0.00732414      -0.00426975       0.03342316
H        7.40342622      10.64997681       6.51954631       0.00525764      -0.00357729      -0.00844504
H        6.92701636      12.02069337       7.44455287       0.01632974      -0.00495324       0.01539022
O        6.03679309      11.61433791      10.84908182      -0.01939505       0.00234926      -0.03135896
H        5.05721768      11.67111776      10.69564240      -0.01265866      -0.03399801      -0.02729461
H        6.24289530      10.67391108      10.90712141       0.02706104       0.02079403       0.01159258
H        5.15480019      11.19828270      12.77527681      -0.01484088      -0.00130859       0.02934460
S       12.20982040      -2.09071445       1.23251633      -0.01829827       0.02453101       0.01511183
S       13.19745564      -0.34587124       0.64198539      -0.00892717       0.02079690       0.01396459
O        4.01578860       5.78687546       7.14734822       0.01315545       0.00851303      -0.00360268
C        3.20401169       4.66430138       7.49931874       0.00761179       0.00659663      -0.01342627
H        2.16737431       4.80404428       7.18416314       0.01104650       0.00962434      -0.02432910
H        3.23230401       4.58888913       8.58583095      -0.00406385       0.00238207      -0.01477379
H        3.60289537       3.74274461       7.06900165       0.01075605       0.00689688      -0.01244992
H        4.05996877       5.88037901       6.18759579       0.01054417       0.02196389       0.00413936
O        8.59021724       9.32931558       6.46712297      -0.00934896       0.00643992      -0.01661885
C        9.91139934       9.83597825       6.15266035      -0.00628954       0.01390839      -0.00304876
H       10.63699972       9.02258810       6.15964048      -0.01351874       0.00791991      -0.00523530
H       10.23139210      10.58778752       6.87132673      -0.01481933       0.01212254       0.00387360
H        9.84538931      10.25351973       5.15030090       0.00288717       0.02325971       0.00114286
H        8.61412356       8.93997119       7.34987831      -0.02759191       0.02766034      -0.01212448
O        5.43013836       7.39334564       5.24694046       0.01640701      -0.00796652      -0.00301640
C        5.57306829       8.22904897       4.09070150       0.00113629      -0.00300709       0.00092124
H        6.37650874       8.95806380       4.23479763      -0.00192720       0.00109297      -0.00292453
H        4.63513983       8.76509494       3.95965566      -0.00402403      -0.00687049       0.01410952
H        5.77229187       7.64356688       3.19141127      -0.00583969       0.00516573      -0.00603804
H        6.24900568       6.89239235       5.33741843       0.02934980       0.00138479      -0.00768970
O        2.25513874       2.55104499       3.04026196      -0.02405667      -0.00171269       0.00043583
C        3.37912589       2.59688401       2.17824591      -0.01488402      -0.00375433       0.01134348
H        3.49825933       1.66975738       1.60810594      -0.00418673      -0.00741830       0.01779191
H        4.30731746       2.79074485       2.72992592      -0.02473110       0.00205100       0.02556643
H        3.24531433       3.41409020       1.46732791      -0.00584420      -0.00697836       0.00469960
H        2.10044191       1.62328416       3.29132850      -0.02825119      -0.00270357      -0.00474785
O        1.76130994      11.99818470       4.00126181       0.00626981       0.00614971       0.02039480
C        2.46989630      11.63810465       5.18739620       0.01108616      -0.00503992       0.01559471
H        3.03940699      12.51260669       5.50210289       0.00688790      -0.00690237       0.02632824
H        3.15623465      10.80890680       5.01200197       0.01327063      -0.00176644       0.00205795
H        1.78096611      11.36851241       5.99378874       0.01295614      -0.01688991       0.01325607
H        1.59667056      11.20758858       3.47096501      -0.00881278       0.01239592       0.02275138
O        8.60429640       6.91467477       4.85157413      -0.02990820      -0.00396860       0.01537356
C        9.66615954       6.14071294       5.43218300      -0.01750438       0.00064535       0.00035480
H        9.27558145       5.18459323       5.77641583      -0.00680353      -0.00510955      -0.00358015
H       10.11322349       6.65649780       6.28376225      -0.01441193      -0.00044695      -0.00021452
H       10.44828332       5.95610801       4.69254909      -0.02368627       0.00987627      -0.00899215
H        8.56536295       7.77557742       5.29831379      -0.03142976      -0.00535014       0.01889721
O       12.47694021       8.45836074      10.43301740       0.00789475       0.00869882       0.00519690
C       11.38949798       7.58437193      10.20097484       0.01035479       0.00285375       0.01226321
H       10.42781348       8.11319530      10.19110106       0.00612554      -0.00306818       0.02194860
H       11.33397267       6.78743459      10.94922448       0.02418700      -0.00254568       0.00860468
H       11.53810829       7.12820354       9.22016737       0.00538624       0.00843325       0.00898805
H       12.39486297       8.84395253      11.34435122       0.01050331       0.00342658       0.00601376
O        5.82250992       3.07241247       5.71844191       0.01668844      -0.02483815      -0.01051514
C        6.51360028       4.14941468       5.09927648       0.00139889      -0.00681281       0.00329008
H        7.41270014       3.80507496       4.57801020       0.00648206       0.01481244      -0.00346549
H        6.81709625       4.84571357       5.88271785      -0.00857450      -0.00963745       0.00933754
H        5.87722156       4.67132737       4.37464530      -0.00829992      -0.00763808       0.01203132
H        6.06507829       2.27473607       5.23365799       0.01956982      -0.01348432      -0.02558820
O        4.72206515       9.20829449       7.35660497       0.00859195      -0.00602793       0.00413698
C        3.48691332       9.03578990       8.03565542       0.00701407      -0.00224062       0.00476551
H        3.45939106       8.10789436       8.61394347       0.00408192      -0.00048813       0.00745812
H        2.63671786       9.03201044       7.34324681       0.00711936      -0.00317560       0.00467631
H        3.36687793       9.87800807       8.71608775       0.00677837      -0.00061068       0.00241902
H        4.85538023       8.46464375       6.74847216       0.00018060       0.00056344      -0.00411917
O        6.88726653       0.74885965       4.38385042       0.00755024       0.01179010      -0.00310057
C        5.88930344       0.30013676       3.43689911       0.01407675      -0.00584322       0.00066584
H        5.91914462      -0.77866610       3.30081691       0.03053302      -0.00585938      -0.01048032
H        6.04479021       0.79523469       2.47963740       0.00449669      -0.00184570       0.00087196
H        4.91518380       0.58851551       3.82516227       0.01115170      -0.02276293       0.00740814
H        7.77701765       0.77195229       3.95311958       0.00750539       0.00477109      -0.00519934
O       11.68357373      10.49839304       8.80487396       0.00668025       0.01758373      -0.00497362
C       10.75706367      11.14183967       9.66262036      -0.00242230       0.01103830      -0.00962266
H       11.16042497      11.27499887      10.67002656      -0.00680985       0.01963087      -0.00941029
H        9.81469980      10.57999990       9.75391467       0.00397778       0.00065288      -0.00933788
H       10.52807505      12.12359238       9.24582843      -0.01203633       0.00660378      -0.01455741
H       12.10799079       9.78866819       9.32996120       0.00393028       0.01768157      -0.00336277
O        8.55863845       7.05453608       2.05290535      -0.00442159       0.01611605       0.02413774
C        9.90305445       7.19461539       1.61094192      -0.00512844      -0.00572374       0.01511060
H       10.27640968       6.25582295       1.18930774      -0.01256857      -0.02049303       0.04127780
H       10.56690444       7.50480347       2.42273582       0.00384277       0.01694647       0.00026855
H        9.94739200       7.96438330       0.83878705      -0.00824761      -0.03134882      -0.01023814
H        8.55310386       6.95266638       3.02113425       0.00084078       0.01142883       0.02430394
O        9.36050571       0.90126393       3.36210299       0.00917619      -0.02520496      -0.02680439
C       10.45178046       1.46274605       4.10524174      -0.00102229      -0.00539518      -0.01210344
H       10.02774994       2.02422978       4.93492421       0.00017855      -0.01041059      -0.01494870
H       11.03922447       2.13994617       3.48258559      -0.00497518      -0.00521800      -0.01568712
H       11.10903940       0.67894353       4.48517141       0.00494924      -0.00068778      -0.01288208
H        9.72159868       0.38648881       2.63267975       0.00317135      -0.03343409       0.00984219
O        2.93959350       6.29119546       2.95528517      -0.00796607      -0.00037488       0.00655645
C        1.78350310       5.88184267       2.23227841      -0.01114053       0.00720115       0.00568393
H        1.73545580       6.36371934       1.24955626      -0.00727262       0.00604731       0.00467142
H        0.86896727       6.12414423       2.78319874      -0.01039454       0.01616223       0.00305724
H        1.82490891       4.80240813       2.11249310      -0.02068520       0.00645685       0.00834257
H        2.78454865       7.22974863       3.18304360       0.00203006       0.00216334      -0.00129109
O        7.10617329       0.63244819       8.62144589       0.03144702      -0.01253089       0.00598881
C        7.38536314       2.03912664       8.73635294      -0.00752807      -0.00671665       0.00330099
H        8.16654956       2.19648547       9.48048924       0.00048792       0.00356814      -0.00816382
H        6.49392766       2.60473326       9.00455623      -0.02435991      -0.02990809       0.00088364
H        7.72492268       2.39305073       7.76599526      -0.01938793      -0.01945513      -0.00361672
H        6.70696377       0.26544768       9.45557623      -0.00503448      -0.00512426      -0.01290396
O        4.41167108      10.83197904       1.25929903      -0.02484804      -0.00397015       0.01437783
C        4.12878051       9.54635481       0.69524542      -0.00942181      -0.00669906       0.00901302
H        3.72552382       9.63168505      -0.31985938       0.00093362      -0.00977636       0.00412250
H        3.36458529       9.08762200       1.31829644      -0.00950387      -0.01813313       0.00334865
H        5.00884343       8.90737914       0.69329561      -0.00179511       0.00288451       0.00818273
H        2.40541210      11.50086010       1.21521795       0.00171824      -0.00345049      -0.01629662
O        0.23868528       3.54099538       9.98564807       0.00441402       0.01032206      -0.00935972
C        0.52301205       3.87770076      11.33934186       0.00792773      -0.00505970       0.00330491
H       -0.35747040       4.27749310      11.85400691       0.00611442      -0.00324664      -0.00197712
H        1.33809508       4.60349498      11.41542470       0.00660080      -0.00317782       0.00075635
H        0.82051195       2.95861436      11.84193761       0.00358402      -0.00174531       0.00006936
H       -0.00010580       4.34773304       9.52097543       0.00436228      -0.01441211       0.00617538
O        6.44987811       5.31907227       8.31335836       0.01641634       0.00019962       0.01061773
C        7.03387516       6.59203728       8.47870222       0.00935060       0.00376499       0.00898698
H        6.28694345       7.37790737       8.63145568       0.00594801      -0.00073764       0.01534845
H        7.63939175       6.86775536       7.59906419       0.00121899       0.01015862       0.00548941
H        7.69399050       6.55832300       9.34797185       0.01576829       0.00862788       0.00456357
H        5.59679178       5.45132696       7.85444300       0.01661932      -0.00375028       0.00859869
O        3.44675718      -0.11357707      10.35722681      -0.00756091       0.00480378      -0.00495917
C        3.01685467       0.92914614       9.48705981      -0.01220134      -0.00397465      -0.01140536
H        2.57678126       1.76065050      10.04369168      -0.00760134      -0.00245425      -0.01403415
H        2.28528559       0.55716973       8.76565296      -0.01883227      -0.00594254      -0.00235754
H        3.89570975       1.28842930       8.95150774      -0.01408371      -0.00690795      -0.01823676
H        2.70636736      -0.35331027      10.95357925      -0.00630015       0.00400269      -0.00479802
O        1.95763519       8.79232654       3.52624337       0.00465758       0.01628037       0.00030226
C        1.05759055       8.55593111       4.59701970       0.00278246       0.00563248      -0.00374682
H        0.19916884       7.95347639       4.28018739       0.00986272      -0.00240806      -0.00793864
H        0.68481992       9.49455374       5.01812749      -0.00850494      -0.00001958      -0.00013252
H        1.59365240       8.01406003       5.37658272       0.00650033       0.00670217      -0.00635923
H        1.42343433       9.09755523       2.74000679       0.00136460       0.02413607       0.00600170
O        4.98222237       6.49855766       1.07500269      -0.00069684      -0.01389956      -0.00402300
C        5.78503874       5.35499435       0.87368499       0.00158069      -0.01330823      -0.00334488
H        5.18782167       4.46232367       0.65653805       0.00524703      -0.01273954      -0.01734497
H        6.43479430       5.14402512       1.73120148      -0.00946772      -0.01709879       0.00355235
H        6.42417193       5.55083129       0.01298138       0.01274621      -0.00596075       0.00694069
H        4.33264889       6.32691628       1.78262260      -0.00342238      -0.01690045      -0.00832809
O        0.11686603       3.62168831       6.01996215       0.01909371      -0.00891322      -0.03281432
C        0.63128654       2.45293726       6.66039074       0.00709300       0.00021468      -0.00253244
H        1.71503318       2.38127772       6.54602075       0.00929341      -0.00097234       0.01459828
H        0.18268576       1.53889592       6.26081865       0.01353148      -0.00629658       0.00475647
H        0.39475599       2.52642263       7.72015999      -0.00787843       0.01625297      -0.00840271
H        0.52591464       3.67541032       5.15000145       0.02676839      -0.02517991      -0.02237581
O        7.34309430       9.38955790       1.26120300       0.01349521       0.01845181      -0.04472238
C        8.27141579      10.22915058       1.91292618      -0.00017148       0.01563260      -0.01960850
H        9.30143041      10.07269477       1.57208183       0.00763866       0.01450834       0.00275894
H        8.25275178      10.09864864       3.00629296      -0.02733743       0.01002198      -0.02150908
H        7.98959491      11.25988278       1.69167527       0.00046135       0.01602376      -0.01795074
H        7.59798228       8.47092434       1.47589217      -0.00322389       0.02011153      -0.02321300
