149
Lattice="12.468998122376036 0.0 0.0 0.0 12.468998122376036 0.0 0.0 0.0 12.468998122376036" Properties=species:S:1:pos:R:3:forces:R:3 energy=-641342.25 stress="-9.615845192456618e-05 -0.0007567908905912191 -7.86941782280337e-05 -0.0007567908905912191 -0.0004754643887281418 -0.0003734211786650121 -7.86941782280337e-05 -0.0003734211786650121 0.0012527188519015908" pbc="T T T"
Pm       7.62144973      11.44972403       9.59129169      -0.00378826      -0.00543612       0.00414878
Pm      10.79417079      13.21585195      -0.33899777       0.01246625       0.00606102      -0.01200771
O       11.66595941      10.76776759       0.14508105      -0.00870243      -0.00172953      -0.02094877
O       11.98415523      13.56119339       0.96096284       0.03661293      -0.00270382      -0.03161818
O       11.82666338      10.51490438       2.45085164      -0.00699992       0.00536253      -0.04876995
C       11.75658098      10.66312306       1.31239446      -0.00347631      -0.00639407       0.03014399
O        6.03285931      10.85417946       5.62095751      -0.00694126      -0.00411248       0.00654507
O        8.24861836      10.91912559       7.95732122       0.00159316       0.00207566       0.00358945
O        7.74381279      12.20759403       4.81821263      -0.00959194      -0.00284696       0.00620136
C        6.90150180      11.51796582       5.22469045       0.00039232       0.00337545       0.00216284
O        7.24064672      11.31458502      -0.43290215       0.02192295      -0.00226688       0.00934789
O        9.02780423      12.11817383       0.69762333       0.01367110       0.02334452       0.00384074
O        8.43453867      13.00235007      -1.24720965       0.01368593      -0.00521189      -0.00905591
C        8.19100045      12.13773398      -0.27085006       0.01655756       0.00504644       0.00109711
O        1.09765046       3.51156236      10.20971928      -0.00748718      -0.00539124       0.01126875
C        2.13063007       2.66520513       9.69384264       0.00163087       0.00766629       0.00848028
C        2.52399692       1.67490780      10.76452459       0.01557446       0.01181152       0.00638747
H        1.77623946       2.14713989       8.79751554       0.00742474       0.00480527       0.00783902
H        3.00272316       3.25967884       9.40192656      -0.00565171       0.01796871       0.00918885
H        3.29071407       0.99601844      10.38989597       0.02881042       0.02672594       0.00698924
H        2.92428666       2.17931037      11.64338212       0.00422523       0.01639870       0.00882041
H        1.66265529       1.08171221      11.08662713       0.02506401      -0.00312491       0.00228477
H        0.51118898       3.72275445       9.47431063      -0.00647168      -0.00472052       0.01050629
O        4.89287383       2.52823108       0.74191015       0.01658130       0.00855535       0.00397438
C        4.37477144       3.32441836       1.81064969       0.00347698       0.00294726       0.00179827
C        4.21091760       2.57671135       3.11693251       0.00112659       0.00044471       0.00005293
H        5.01846633       4.20321791       1.96497862      -0.00429517       0.00772968       0.00694232
H        3.41271675       3.69427460       1.45312336       0.00298735      -0.00374243      -0.00367801
H        3.95560762       3.27466703       3.91683353      -0.00599325      -0.00151062      -0.00054309
H        3.42964167       1.81948977       3.05505451       0.00487958      -0.00298354      -0.00428148
H        5.14653009       2.08765717       3.40224447       0.00226584       0.00486596       0.00384766
H        5.64174002       2.02502461       1.07848406       0.01506048       0.00996751       0.00955477
O        7.77205443       4.88796742       1.99394538      -0.00796747       0.00504628       0.00577164
C        7.61895664       4.43524954       3.35384991      -0.00068185       0.00456187       0.00644964
C        6.81549855       5.39667617       4.19582303      -0.00569946      -0.00167301       0.00905731
H        7.15959429       3.44083912       3.34799464       0.00742367       0.00083354       0.00810245
H        8.63563629       4.32390224       3.73094227       0.00129858       0.01281988       0.00346407
H        6.66336066       5.00046159       5.20046123      -0.00014468      -0.00287703       0.00948706
H        7.31111339       6.36369266       4.27005989      -0.01272324       0.00198697       0.00821936
H        5.82493345       5.55181494       3.75920245      -0.00803651      -0.00890449       0.01182141
H        6.89287803       5.08419335       1.65271900      -0.01084757      -0.00844426       0.00562276
O       11.78408040       2.46895654       8.31637859       0.00839341       0.00188107      -0.00275719
C       11.80026714       1.22642948       8.99851866       0.01141199       0.00086303      -0.00452399
C       10.41442000       0.64232305       9.13314739       0.01421034      -0.00660207      -0.01087411
H       12.48494368       0.51456245       8.52323856       0.01701790       0.00495732      -0.00246838
H       12.22218853       1.46428994       9.99253374       0.00696476       0.00149067      -0.00248098
H       10.43441040      -0.27592531       9.74436744       0.01498204      -0.00746286      -0.01228189
H        9.74524503       1.37307562       9.59302984       0.00792947      -0.01114012      -0.01310880
H       10.00149360       0.35326461       8.16447068       0.01951420      -0.00786311      -0.01243246
H       11.38775577       2.34475082       7.44728099       0.00014514       0.00412306       0.00074700
O        9.16144012       5.27432306      10.74183596       0.01055723       0.00942057       0.00894896
C        8.71520638       4.06270387      11.31833916       0.01011825       0.00638646       0.00098878
C        9.79261025       3.42485467      12.18162697       0.00725961       0.00358354       0.00296268
H        7.81603738       4.21976454      11.92926351       0.00698599       0.00163199      -0.00214106
H        8.43054971       3.40156176      10.49725926       0.01516935       0.00984827      -0.00354335
H        9.36922145       2.58534168      12.75305257       0.00648908      -0.00274185      -0.00687355
H       10.64897612       3.11925660      11.55606577       0.01269262       0.01251886       0.00639136
H       10.17414879       4.14189563      12.90957050      -0.00071321      -0.00091475       0.01146054
H        9.41266289       5.85775170      11.47775855       0.00201128       0.00832944       0.01316300
O       10.49870281       7.31997994       6.92155726      -0.00095201       0.00328010       0.00064373
C        9.65936574       6.38301391       6.27155368      -0.00336801       0.00234455       0.00524329
C        9.97918527       5.00150921       6.79653236      -0.00117294       0.00316268       0.00616190
H        8.60177722       6.61759311       6.45112466      -0.00280881       0.00231326       0.00879908
H        9.81677580       6.41600598       5.18191368      -0.00744286       0.00078462       0.00460845
H        9.34606260       4.25446859       6.31109298      -0.00164309       0.00207428       0.00845093
H       11.02721263       4.76253127       6.60178018      -0.00132054       0.00387941       0.00437439
H        9.81129790       4.95476562       7.87365395       0.00103481       0.00438305       0.00659972
H       10.26118952       8.20885726       6.58729951      -0.00246767       0.00310527       0.00072986
O        1.22503792       8.01106000       1.71648815      -0.00146726      -0.00297093      -0.01300395
C        2.41759814       7.99389807       2.50451868      -0.00690620      -0.00039569      -0.00480795
C        2.71358932       6.62594921       3.07960843      -0.00952283       0.00078547      -0.00033411
H        3.27111099       8.34308470       1.90860418      -0.00316650      -0.00028510       0.00055388
H        2.25088300       8.72715688       3.29528267      -0.01316874       0.00081682      -0.00731742
H        3.61766277       6.65452673       3.69114457      -0.01325682       0.00242768       0.00510861
H        1.88960018       6.27477800       3.70020982      -0.01308897       0.00157464      -0.00463875
H        2.87697592       5.90236882       2.27662982      -0.00426741      -0.00073072       0.00215405
H        1.27906796       7.28563357       1.08702126       0.00510713      -0.00174403      -0.01375926
O        4.48878235       8.72676743       9.69850438      -0.00425583      -0.00434928       0.00003022
C        5.38490329       9.81964959       9.53540465      -0.00582111      -0.00241521       0.00635891
C        4.64169494      11.14890730       9.50607431      -0.00819558      -0.00399998      -0.00312580
H        6.11381703       9.78059402      10.36902597      -0.01286390       0.00164434       0.01266605
H        5.90365946       9.62775232       8.58584533       0.00312919      -0.00306747       0.01116467
H        5.28893412      12.01431000       9.28663580      -0.00654855      -0.00363693       0.00375344
H        3.88010922      11.13052665       8.72742377       0.00024633      -0.00602071      -0.01112376
H        4.17543912      11.34837784      10.47085528      -0.01895935      -0.00408277      -0.00842178
H        3.96315672       8.88029112      10.49079375      -0.01416185      -0.00280635      -0.00694376
O        1.96032093      12.23124919       2.53868516      -0.00760657       0.01114956      -0.01828042
C        3.13569551      11.77017845       1.88994312      -0.00570714       0.00893646      -0.01137650
C        2.85806329      10.99724454       0.61371148      -0.00040805      -0.00216696      -0.00623477
H        3.81655214      12.60025106       1.66461679      -0.00573057       0.00802511      -0.01629189
H        3.63684936      11.12677812       2.61823925      -0.00595976       0.01553360      -0.00537753
H        3.80250677      10.62102696       0.20823379       0.00138319      -0.00560914       0.00095940
H        2.19221718      10.15302484       0.79820814      -0.00145681      -0.00019415      -0.00197180
H        2.40390642      11.64924495      -0.13540757       0.00253585      -0.00842695      -0.01339542
H        1.43030344      12.76896416       1.93302673      -0.00895421       0.00498671      -0.02323288
O        5.39660748       3.90143073      10.00008440       0.00250267       0.00144881       0.00637764
C        5.20434084       5.30355535      10.22373151       0.00060004       0.00129797       0.00607805
C        4.15025481       5.57341623      11.27488319      -0.00234008      -0.00039886       0.00344095
H        6.15885951       5.77293344      10.49054707      -0.00047350       0.00206362       0.00869524
H        4.89654404       5.71291043       9.25911663       0.00299999       0.00094727       0.00515211
H        4.02045758       6.64898579      11.40508637      -0.00301817      -0.00064127       0.00460800
H        3.19128318       5.13124706      10.99891742      -0.00149743      -0.00031751       0.00044425
H        4.45853939       5.15432723      12.23534832      -0.00475298      -0.00170859       0.00359495
H        5.44064464       3.46453369      10.86020305       0.00452071       0.00125631       0.00629407
O        5.04974807       7.72076935       7.08186715      -0.00433552      -0.00782171       0.00131649
C        3.89324000       8.31043653       6.49766411      -0.00135112      -0.00923151      -0.00579128
C        2.66018512       7.44460713       6.66676398      -0.00474304      -0.00319257      -0.00092450
H        3.71227184       9.30736445       6.92203841       0.00117106      -0.00494146      -0.01526931
H        4.13236514       8.45545533       5.44222973       0.00109257      -0.01951608      -0.00662827
H        1.79151786       7.89054322       6.17825161      -0.00213633      -0.00504087      -0.00686110
H        2.83218719       6.45345713       6.24665867      -0.00726330      -0.00646082       0.00608579
H        2.41865928       7.32796753       7.72577478      -0.00774625       0.00620384      -0.00055881
H        4.86845536       7.65853207       8.02699489      -0.00743064      -0.00151393       0.00120467
O        9.11929975       9.83828342      10.60586165      -0.01251106      -0.01551911      -0.00677162
C        9.41183498       8.52741743      10.01016870       0.00467038      -0.00667328      -0.01655282
C       10.86470896       8.16133731      10.14649307       0.00517076       0.00147759      -0.00135893
H        8.76110362       7.79684631      10.49125185       0.00376749      -0.01675168      -0.03375112
H        9.12703121       8.62567749       8.96413683       0.01761468       0.00284832      -0.01877475
H       11.01795106       7.18822264       9.68144284       0.01676517       0.00576943      -0.00636744
H       11.49563120       8.88479245       9.62892032       0.00741512       0.00920169       0.01233581
H       11.16660102       8.10598103      11.19376134      -0.00723148      -0.00470694       0.00181386
H        8.97445841       9.73017644      11.55560071      -0.01907723      -0.02360781      -0.00891864
O        9.43842401       6.72427841       0.73287778      -0.01581848       0.00385126      -0.00532964
C       10.09212516       7.60526976       1.65223071      -0.00677115      -0.00385034      -0.00422108
C        9.10302727       8.45832840       2.42098078      -0.00010121       0.00216159      -0.00260320
H       10.72747662       7.03478293       2.34024433      -0.01154587      -0.01115736      -0.00605509
H       10.76280973       8.21950721       1.04888230      -0.00177515      -0.00867152      -0.00342345
H        9.61255533       9.10652730       3.13489281       0.00369355      -0.00758319       0.00317055
H        8.50861019       9.08146451       1.74921769       0.00910637       0.01232960      -0.00126620
H        8.42061910       7.82129697       2.98690716      -0.00951419       0.00569600      -0.01014725
H        8.87829298       6.12386474       1.25877156      -0.01732405       0.00535361      -0.00507808
O        9.93297692       9.84448655       6.01328106      -0.00377333       0.00295164       0.00238173
C       11.21519249      10.46775459       5.98629487      -0.00440693       0.00425488       0.00252478
C       11.16238759      11.90300385       5.50113706      -0.00431727       0.00105661      -0.00707579
H       11.68152312      10.41161300       6.98017374      -0.00770117       0.01112208       0.00454545
H       11.82557483       9.86810647       5.30851675      -0.00128171       0.00056872       0.00857899
H       12.16912722      12.32336335       5.44558753      -0.00469789       0.00219756      -0.00569920
H       10.71580371      11.95965618       4.51021797      -0.00037311      -0.00624129      -0.00913441
H       10.55685968      12.51526313       6.17333324      -0.00798170       0.00480355      -0.01393685
H        9.37207958      10.28347363       6.69047150      -0.00411327       0.00285942       0.00228202
O        5.66469510       3.62266918       7.01612024       0.00023029      -0.00456798       0.02634406
C        5.69858223       2.22094108       7.21208428      -0.00079501      -0.00654775       0.00826459
C        7.02357367       1.76644979       7.80579663      -0.00539613      -0.01438513       0.01280218
H        4.86562816       1.90407223       7.85353006      -0.00593165      -0.01598961      -0.00290799
H        5.54829065       1.76931723       6.22839171       0.00745169       0.00577891       0.00151646
H        7.07595773       0.66623716       7.82535428      -0.00247166      -0.01411466      -0.00579049
H        7.85442651       2.09848168       7.17990130      -0.00062375      -0.00139382       0.02643391
H        7.15612301       2.18051082       8.80933059      -0.01461640      -0.03057867       0.02069944
H        5.67029294       4.01441816       7.89780958      -0.00269226      -0.01731580       0.03220683
