147
Lattice="12.664466442313147 0.0 0.0 0.0 12.664466442313147 0.0 0.0 0.0 12.664466442313147" Properties=species:S:1:pos:R:3:forces:R:3 energy=-2002479.625 stress="0.000238961583818309 0.00029198374249972403 0.0006974080461077392 0.00029198374249972403 -0.0004263624723535031 -0.0002748588740359992 0.0006974080461077392 -0.0002748588740359992 -0.0007456017774529755" pbc="T T T"
Pm       5.24981238      11.39991471       6.77375976      -0.01983530       0.01245153       0.02031994
Pm       0.18919849      11.37590735       4.87553696       0.00015661      -0.00067177       0.02024041
O        3.28086116      10.39709333       2.01639138       0.00235485       0.04135049       0.00661869
O        1.63221255       9.77954927       4.33934745      -0.00022700       0.00669764      -0.00224154
O        1.91955142      12.30085946       3.76784124       0.00367016       0.01234315       0.03925139
O        4.48294265      11.00601244       4.61106325      -0.00014674      -0.00446737       0.01652687
W        2.96647420      10.81851155       3.64848603      -0.00037110       0.01550242       0.01525271
O        3.49678098      12.50632403       7.79021670      -0.02026305       0.00811437       0.01791298
O        1.97223869      10.61453987       9.44113625      -0.00617850       0.01528241       0.02541161
O        3.25795599      10.01741372       6.93986618      -0.02039970       0.01138040       0.02492478
O        0.73599913      11.55163815       6.87143840      -0.01972845       0.00066822       0.02626416
W        2.28617543      11.17697826       7.85085217      -0.01102244       0.00823167       0.02517998
O        7.97442863       8.86018967       8.95122547      -0.00072557       0.00007033      -0.01787801
O        7.70157856      11.33761068      10.39332576       0.02001452       0.00024724      -0.01385474
O        5.40969420      10.33558008       8.71688710      -0.00037432       0.00826338       0.01586062
O        7.38501244      11.37497202       7.41662586      -0.01152188       0.00155520      -0.00861278
W        7.21376563      10.41975976       8.98992142       0.00512069       0.00102359      -0.00509262
O        5.87248788       7.54429180      11.80179279      -0.00206912       0.01671278      -0.00770238
C        3.84022124       6.39795108      11.59706028      -0.00016814       0.01226959      -0.00529069
C        4.95950610       5.42459723      11.23178055       0.00114711       0.01481825      -0.00392091
C        4.52651576       7.73001943      11.34402334      -0.00406617       0.01394799      -0.00314401
C        6.19723162       6.14981668      11.76165797      -0.00161594       0.01682585      -0.00057070
H        2.93565341       6.26448275      11.00499830      -0.00207557       0.01040959      -0.00065678
H        3.57889544       6.30020817      12.65408939      -0.00043107       0.00706257      -0.00827646
H        4.84311601       4.43255533      11.66585995       0.00257876       0.01479793      -0.00316972
H        5.01891851       5.31107661      10.14767026       0.00043357       0.01794668      -0.00361085
H        4.52573743       7.97501224      10.27396715      -0.00797066       0.01460190      -0.00239456
H        4.09564166       8.56969077      11.88901194      -0.00439993       0.01285240      -0.00128227
H        6.43612500       5.82595838      12.78125230      -0.00530955       0.02052692       0.00182217
H        7.07951619       5.99217681      11.13604167       0.00111359       0.01542733       0.00384229
O       11.42234838       8.97774243      10.67045826      -0.00720473      -0.00230193       0.00393888
C       11.47747661      11.28508093      10.13949957      -0.01262021      -0.00171316       0.00266419
C       10.94265068      11.11945909      11.56079418      -0.01224589      -0.00367385       0.00281519
C       11.26437349       9.88530839       9.57351473      -0.00397249      -0.00325322       0.00303569
C       11.42397819       9.71479262      11.90014553      -0.00685561      -0.00139701       0.00318313
H       10.94458514      12.04691956       9.56815924      -0.01706430      -0.00564726       0.00181141
H       12.54162757      11.52612830      10.15435064      -0.01426405       0.00493906       0.00360843
H       11.32850803      11.86477673      12.25741434      -0.01542572      -0.00178263       0.00233482
H        9.85319642      11.16457338      11.56585508      -0.01211706      -0.00748606       0.00182525
H       10.25392909       9.76606292       9.16271112      -0.00082272      -0.00771559      -0.00281954
H       11.99306975       9.61991192       8.79967423       0.00267375      -0.00116321       0.00807729
H       12.44663033       9.73029631      12.30136895      -0.00601369       0.00290019       0.00099155
H       10.77212795       9.20313929      12.61388955      -0.00287834      -0.00482097       0.00441292
O        8.79138879       7.59818218       6.31843036       0.00111617      -0.01206893      -0.01804230
C        8.70458390       5.36605963       6.95461901      -0.00214745      -0.00332737       0.00912702
C        7.30463099       5.94188330       7.16091170      -0.00236136      -0.00055209      -0.00266987
C        9.53223432       6.63552168       7.06313192      -0.00152319      -0.00315166      -0.00462793
C        7.39232120       7.26655686       6.40081740       0.00075033      -0.00902283      -0.01645370
H        8.97877166       4.60427919       7.68230475      -0.00503088       0.00672749       0.02002180
H        8.80007781       4.94818214       5.94682827       0.00074784      -0.01649117       0.01526311
H        6.49778545       5.31005927       6.78899356      -0.00127679      -0.00410409       0.00139419
H        7.13628270       6.12739432       8.22309497      -0.00665073       0.01102739      -0.00580403
H        9.62819144       6.95237846       8.10930681      -0.00396728       0.00952816      -0.00857329
H       10.52720743       6.56469960       6.61544898      -0.00030717      -0.00873411      -0.00111227
H        7.01206921       7.19127386       5.37819476       0.00194591      -0.01855434      -0.01603204
H        6.85804799       8.06066451       6.92914631       0.00148486      -0.00280350      -0.02546102
O        8.44032865      10.87734160       1.19779668       0.00576127       0.00886513      -0.00956765
C        6.18879197      10.45542808       0.49872125       0.00809675      -0.00370777      -0.00889814
C        6.30064139      11.80420563       1.20850857       0.00102597      -0.00481062      -0.00551349
C        7.54601996       9.80903767       0.78370005       0.01474857       0.00587303      -0.01909159
C        7.77171701      12.11802639       0.99712151      -0.00147104       0.00505489      -0.00633074
H        5.35906052       9.85821442       0.86310394       0.01520038      -0.01104358      -0.00631355
H        6.06461112      10.61005106      -0.57166062       0.00012401      -0.00255434      -0.00795522
H        5.63544427      12.56579553       0.79947291      -0.00482287      -0.00852217      -0.00214057
H        6.08493332      11.68375410       2.27515337       0.00393050      -0.00927716      -0.00545371
H        7.49643740       9.10152602       1.61235900       0.02344565      -0.00282845      -0.02664149
H        7.95692008       9.31554371      -0.09879894       0.01679641       0.01985464      -0.02546227
H        7.94189704      12.48279966      -0.02381538      -0.00447310       0.00810543      -0.00572133
H        8.18589283      12.83866779       1.70941217      -0.00530562       0.00563064      -0.00490496
O        3.50821151       6.74571158       6.17002215       0.00702512      -0.02774978       0.00081030
C        1.29447164       6.10365124       5.90570098       0.00411260      -0.01065314      -0.00740773
C        1.89013666       6.22061160       4.49289155       0.00595111      -0.00268497      -0.00599033
C        2.21173350       7.02341107       6.69719574       0.00866389      -0.02435565       0.00138246
C        3.34973601       6.65864547       4.75527175       0.00566301      -0.00499828       0.00033396
H        0.24739756       6.40456951       5.95653444       0.00578822      -0.00609541      -0.00548822
H        1.38101432       5.08164551       6.28526193      -0.00112014      -0.01394808      -0.01627963
H        1.83441613       5.28534859       3.93636206       0.00536518       0.00003937      -0.01048476
H        1.36733202       6.98318932       3.91576558       0.00678369       0.00012183      -0.00298011
H        1.95120822       8.07209482       6.51530967       0.01508737      -0.02014434       0.01284055
H        2.23634291       6.84768284       7.77205440       0.00745528      -0.03356139      -0.00047523
H        4.09230692       5.94944840       4.38401670       0.00575083       0.00208220      -0.01304980
H        3.55162206       7.63203800       4.28880553       0.00335296       0.00721908       0.02686149
O        7.31667958       3.18768342      10.18321137       0.00147595       0.00380948       0.00691423
C        6.53119298       1.31730339       8.96815072      -0.00480516       0.00476688       0.00966190
C        7.87369651       1.76625478       8.39554013      -0.00254613      -0.00136147       0.01016372
C        6.10323345       2.54163498       9.76109308      -0.00066222       0.00857654       0.00639752
C        8.43493446       2.50688737       9.59807946      -0.00069874      -0.00177971       0.00936848
H        5.78729619       1.03903025       8.22132948      -0.00529601       0.00727655       0.00902012
H        6.69762840       0.47487296       9.63974540      -0.00887295       0.00528044       0.01137152
H        8.49026690       0.92792241       8.07533641      -0.00527677      -0.00370494       0.01119982
H        7.73408248       2.45070117       7.55150771       0.00024633      -0.00180784       0.00945048
H        5.53299928       3.24583403       9.14469809       0.00375985       0.00956595       0.00364760
H        5.50264988       2.28981563      10.63792547      -0.00304613       0.01362683       0.00614709
H        8.85561147       1.79051017      10.31564824      -0.00439197      -0.00203127       0.01120782
H        9.19647386       3.25285784       9.36327179       0.00252077      -0.00549307       0.00871134
O       10.79335628       3.39516328       1.08266792      -0.00367910       0.00460753       0.00353794
C        9.21409837       5.11848360       1.33631446      -0.00355905       0.00503892      -0.00406626
C        8.47936233       3.87840370       0.82581541      -0.00275296       0.00457089      -0.00394234
C       10.63231805       4.81070153       0.89107058      -0.00265011       0.00377467      -0.00050883
C        9.49605378       2.77817020       1.11072742      -0.00350446       0.00435808      -0.00168386
H        8.83297443       6.05437414       0.93062319      -0.00202630       0.00415406      -0.00740848
H        9.16211647       5.17171524       2.42825230      -0.00584500       0.00723821      -0.00439930
H        7.52874870       3.69644338       1.32804402      -0.00374319       0.00466740      -0.00582819
H        8.27993896       3.95726615      -0.24426615      -0.00072423       0.00433479      -0.00427687
H       10.77095724       5.05897457      -0.16834424      -0.00043628       0.00131919      -0.00085294
H       11.40724937       5.32125420       1.46672060      -0.00357303       0.00457399       0.00014138
H        9.33622784       2.35537833       2.11263336      -0.00628427       0.00211129      -0.00306031
H        9.47331330       1.95867226       0.38939509      -0.00156723       0.00547978      -0.00315493
O       12.05368297       0.93721476       4.90286256      -0.00849780      -0.00502834      -0.00103925
C       12.03083055       3.18826947       4.16152435       0.00222686      -0.00272942       0.00443935
C       11.35176342       3.09508710       5.52579343      -0.00110662      -0.00537357       0.00245059
C       11.97917830       1.75410970       3.67606438       0.00397395      -0.00198431       0.00056005
C       11.93317596       1.81154162       6.07512672      -0.00287481      -0.00692225       0.00007218
H       11.53458005       3.85240332       3.45783462       0.00344142      -0.00169127       0.00471140
H       13.06667930       3.51444836       4.27682100       0.00174063      -0.00252624       0.00800005
H       11.55408251       3.94863820       6.17102017      -0.00165614      -0.00731298       0.00520669
H       10.26888645       3.00363976       5.41100413      -0.00071767      -0.00519970       0.00000647
H       11.02925731       1.52269991       3.19221125       0.00800845       0.00030128      -0.00797255
H       12.80743210       1.45951237       3.03260513       0.00931928      -0.00121734       0.00720794
H       12.93483327       1.95861708       6.48715684      -0.00140458      -0.00883981      -0.00241436
H       11.31545472       1.29560378       6.80833066      -0.00200844      -0.00691964       0.00097246
O        5.37507125       1.02969976       5.81024567      -0.00358346       0.00282121       0.00862045
C        4.01171996       2.71373854       4.94841006       0.00541854       0.00291023      -0.00374538
C        5.21608828       2.60925426       4.01155153       0.00597072      -0.00880274      -0.00146616
C        4.60134543       2.19016598       6.23419313       0.00063418       0.00835127       0.00047106
C        5.91055288       1.32608614       4.48090081      -0.00043568      -0.00839868       0.00757783
H        3.63043173       3.72890880       5.05427491       0.01062390       0.00557396      -0.01051068
H        3.20403801       2.05712514       4.61343625       0.00260015       0.00532082      -0.00035375
H        4.93945864       2.55702243       2.95986366       0.00598081      -0.01546580      -0.00112244
H        5.86891459       3.47396579       4.14914756       0.00967649      -0.01121101      -0.00741932
H        5.28202082       2.92053130       6.68445194       0.00342396       0.00773153      -0.00277922
H        3.88710697       1.84461689       6.97533481      -0.00257489       0.01555569       0.00044011
H        5.67638244       0.46777252       3.85209757      -0.00330718      -0.01143485       0.01337132
H        6.99435373       1.43122742       4.55882941       0.00000024      -0.01283942       0.00915506
O        8.32568097       9.27341163       3.87939205       0.00085998      -0.00373763      -0.01206167
C       10.10798955      10.78340433       4.33459499       0.01021099      -0.01848944      -0.00316741
C        8.74570641      11.43997909       4.59723804       0.01451276      -0.00873005      -0.00690715
C        9.73578854       9.38616495       3.76486298       0.00143653      -0.01164156      -0.01229040
C        7.91035564      10.19767961       4.87400323       0.00516848      -0.00263596      -0.01108108
H       10.72550307      11.37745227       3.63600368       0.01866931      -0.02098943       0.00254160
H       10.63000162      10.67404681       5.30827915       0.00434266      -0.02879231      -0.00147962
H        8.75504972      12.13806452       5.43344607       0.01613603      -0.00901397      -0.00643885
H        8.39360272      11.93392827       3.69153477       0.02198981      -0.00572312      -0.00809321
H        9.99112374       9.30228212       2.70846017      -0.00002124      -0.00552364      -0.01310515
H       10.22081672       8.58870425       4.33995467      -0.00313884      -0.01882923      -0.01859576
H        8.13541918       9.81193891       5.87140628       0.00092798      -0.00564337      -0.01117992
H        6.82771902      10.34547937       4.75221047       0.00737661       0.00461750      -0.01105672
