147
Lattice="12.982680136788238 0.0 0.0 0.0 12.982680136788238 0.0 0.0 0.0 12.982680136788238" Properties=species:S:1:pos:R:3:forces:R:3 energy=-765889.375 stress="-0.0018908391939476132 0.0007041807984933257 -0.00037904709461145103 0.0007041807984933257 -0.0032863449305295944 0.000568365678191185 -0.00037904709461145103 0.000568365678191185 -0.003389842575415969" pbc="T T T"
Pr      10.19074321      13.24515258      11.26222790      -0.00564055      -0.00338262       0.01699962
Pr       9.44628486      10.72870901       6.12408459      -0.00634612      -0.00634058       0.00420864
S       10.06477641      11.65806590       0.67488186      -0.00075280       0.00578493       0.01361424
O        9.66503050      12.23145484       1.93277002      -0.00694779      -0.00774226      -0.01873630
O       10.41891361      10.26272808       0.69111605       0.04397768      -0.02164596       0.00275953
O        8.97468708      11.93723461      -0.38413733       0.03024787      -0.03069049      -0.01346254
O       11.21525774      12.47315719       0.03521217      -0.01020485       0.01467156      -0.00683013
S        9.08415144      12.06141059       8.74271011       0.00912961       0.00366771       0.00071797
O       10.36946793      11.77181826       9.45538671       0.00778045       0.00989883       0.00431215
O        8.29851296      12.90311982       9.66034252       0.00699791       0.00721749      -0.00123533
O        9.37923743      12.74169811       7.45395299       0.00492968      -0.00246218      -0.00021033
O        8.42950352      10.78417902       8.36253357       0.00756480       0.00111133       0.00976522
S       12.10514523      11.42275955       5.22446383      -0.01004714       0.01331735       0.01842543
O       12.90190036      12.39525917       5.93220104      -0.02889669       0.00718200      -0.02742255
O       12.68901878      10.84084904       4.04652545       0.00073516      -0.02776903      -0.00180972
O       11.62867278      10.29920430       6.18354185      -0.00549654       0.01004344       0.01628566
O       10.72106205      12.01638057       4.89297625      -0.01634622      -0.02180532      -0.01697448
S       11.21288400       1.75866188       2.66920949       0.01024675       0.00158644      -0.01688814
O       10.76566328       2.56965565       1.48230794       0.00794387       0.00252974      -0.01495516
C        9.84262605       1.73895158       3.83101877       0.01313245       0.00013012      -0.01573557
C       12.25896814       2.84925021       3.67062740       0.01105005       0.00006115      -0.01771489
H        9.07264186       1.10671922       3.39628769       0.00808798       0.01155131      -0.02246585
H        9.46310347       2.74618590       3.98402891       0.02068078       0.00085792      -0.00470965
H       10.18347326       1.29421779       4.76307774       0.01104294      -0.01240435      -0.02120276
H       12.60321273       2.27229410       4.53023996       0.00807524       0.00173882      -0.01572487
H       11.69283469       3.72906436       3.98373838       0.01251775       0.00185449      -0.02090270
H       13.11109699       3.14210302       3.06035942       0.01301674      -0.00260648      -0.01598649
S        7.06724868       9.62604805       3.43912042      -0.00555432       0.00390849       0.00056106
O        7.97506682      10.21539007       4.55755725      -0.01403669      -0.00924280       0.01161095
C        8.20110139       8.77645683       2.35463314       0.00078225       0.01034185       0.00127241
C        6.67196042      11.00790582       2.40482429       0.00434075       0.01200613       0.00813779
H        8.52285130       7.86649475       2.85254799      -0.00796866       0.00444809      -0.00387672
H        9.04540549       9.42204027       2.11728434       0.00437918       0.00881913       0.01614994
H        7.66888926       8.53635228       1.43156533       0.00770935       0.01981613      -0.00474386
H        6.10670993      10.60477489       1.56335624       0.01249909       0.01869073       0.00012469
H        7.59233858      11.48741946       2.07665595       0.00828254       0.01302027       0.02027714
H        6.04303002      11.68935487       2.97592307      -0.00151347       0.00745355       0.00643708
S        3.66472071       3.80181856      10.81140896       0.00318706       0.00010329      -0.01498362
O        5.08225094       4.25604681      10.68840877       0.00658846      -0.01115134      -0.01235834
C        3.63703047       2.02717496      10.44554179      -0.00749351       0.00057000      -0.01351543
C        2.85778199       4.32438548       9.28672505       0.00832205       0.00886117      -0.01426166
H        4.06083479       1.50970269      11.30268221      -0.01093251      -0.00294347      -0.01461817
H        4.23832975       1.84374315       9.55482743      -0.01310447      -0.00156388      -0.01615487
H        2.60834626       1.69904897      10.30113407      -0.01127140       0.00786361      -0.01142617
H        1.87067837       3.87082149       9.22014733       0.00435419       0.01804094      -0.01243578
H        3.48764276       4.03537882       8.44463306       0.00400876       0.01086945      -0.01717272
H        2.76909413       5.40727696       9.33776807       0.01708830       0.00875166      -0.01039620
S        4.44153351       1.64741090       3.59201206      -0.00261598       0.00115621      -0.00746107
O        4.93209365       0.45009326       2.84010875      -0.00947466       0.01362395      -0.03254795
C        2.83552777       1.24312211       4.31402632       0.00452828      -0.01059020       0.00116000
C        3.82954004       2.73666124       2.30494770      -0.01551440       0.02373198       0.01740360
H        2.98316987       0.42218801       5.01270585       0.01077637      -0.02140743      -0.01357013
H        2.13403645       0.93932322       3.53824254      -0.00118054       0.00142761       0.00206256
H        2.47225060       2.13268324       4.83066088       0.00692193      -0.02004627       0.01859251
H        3.32927930       3.61207020       2.71390965      -0.01672603       0.01288576       0.03819030
H        3.16093069       2.15693460       1.66583891      -0.02468860       0.03625478       0.01607959
H        4.68999590       3.07613598       1.73599336      -0.02177510       0.03530182       0.01460292
S        7.24756278       4.34828049       2.97701448       0.00775361      -0.00278477       0.00335300
O        7.53788543       3.83550284       4.35519056       0.01586416      -0.00074488       0.00151908
C        8.78607882       5.09506043       2.38882030       0.00226617       0.00144917      -0.00441074
C        6.32573893       5.86760586       3.18081738       0.00378242      -0.00578004       0.00591555
H        9.46634920       4.29224525       2.09543313       0.00360009       0.00352713      -0.00575501
H        9.20843466       5.67395751       3.21254212       0.00330016       0.00413185      -0.00734308
H        8.58617679       5.75411281       1.54514684      -0.00375043      -0.00105263      -0.00455558
H        6.21682718       6.33506538       2.20514214      -0.00192628      -0.00716611       0.00621472
H        6.83887923       6.51290872       3.89355254       0.00489934      -0.00371240       0.00268494
H        5.34432495       5.62028708       3.57478057       0.00666831      -0.00866078       0.01065541
S       12.34785042       2.58203222       9.14857810      -0.00294551       0.00114608       0.00104602
O       11.63346698       1.56260088      10.02248001      -0.00191116       0.00759162       0.00709327
C       11.30853253       4.04029556       9.18139578       0.00462717       0.00461027       0.00028880
C       12.10824258       2.06639235       7.46708841      -0.00693296      -0.00219965       0.00336343
H       11.13673351       4.26754190      10.23178461       0.01068561       0.00911440      -0.00008485
H       10.36705441       3.85007291       8.66578278       0.00232157       0.00481673       0.00573312
H       11.86801789       4.85044530       8.71353330       0.00504513       0.00093867      -0.00583546
H       12.55128034       2.83987909       6.83682635      -0.00636222      -0.00552385       0.00046770
H       11.04625600       1.94166979       7.25650071      -0.00741410      -0.00014128       0.00713800
H       12.63206258       1.12223530       7.31377833      -0.01006135      -0.00410903       0.00479188
S        8.09797452       2.70785587      12.76995867      -0.01648974      -0.00545527       0.01130700
O        9.15771663       2.14145769      11.80114435      -0.02054074      -0.00952125       0.01316673
C        6.59289648       1.96204260      12.18617784      -0.01682854      -0.01533833       0.02446252
C        7.86184160       4.35557278      12.14683255      -0.02567065      -0.01027840       0.00306812
H        6.64691425       0.90324135      12.43486064      -0.00936871      -0.01369630       0.02874894
H        6.51603518       2.13271023      11.11398985      -0.02192875      -0.01999849       0.02465981
H        5.76833641       2.44787900      12.70483977      -0.01685554      -0.01911153       0.02714568
H        7.00859146       4.80654135      12.65611855      -0.02560873      -0.01116273       0.00339213
H        7.66304888       4.30795187      11.07723382      -0.03021400      -0.01871381       0.00487682
H        8.77764934       4.90055454      12.36136313      -0.02677459      -0.00602492      -0.00407559
S        9.62574772       7.22736165       5.65479759      -0.00580829      -0.00222802       0.00469038
O        9.39225014       8.42860664       6.56984509      -0.00051308      -0.00401172       0.00756541
C        8.67583597       5.90219557       6.35852407      -0.00169820      -0.00219235       0.00772893
C       11.29468659       6.70533882       6.02942702      -0.00376773      -0.00067976      -0.00479624
H        7.64716715       6.25995568       6.39346772      -0.00050411      -0.00030820       0.01637144
H        9.03802512       5.66674170       7.35764050       0.00503527      -0.00522389       0.00428274
H        8.69906424       5.04432757       5.68016251      -0.00793537       0.00011480       0.00499192
H       11.52520156       5.82001583       5.43774650      -0.00582713       0.00041454      -0.00636479
H       11.37382885       6.51163817       7.09842745       0.00185781      -0.00100301      -0.00555938
H       11.93638277       7.53807190       5.74511363      -0.00634937       0.00005260      -0.00728714
S        3.67737956       6.40344324       0.13918488       0.00711924      -0.00385380      -0.00670719
O        4.38062507       5.24294153       0.76725710       0.01955938      -0.00078356      -0.01639497
C        4.32856997       7.87064880       0.95499575       0.00036703      -0.00385183      -0.00296128
C        2.01556777       6.47230454       0.84248475       0.01024455      -0.01757067       0.00138828
H        5.34544588       8.00724849       0.58332156      -0.00056043       0.00153673      -0.00250688
H        4.32568757       7.70120214       2.03223718       0.00114433      -0.00713421      -0.00388610
H        3.73456912       8.74242762       0.68932967      -0.00373170      -0.00623013      -0.00009785
H        1.52096897       7.37673350       0.48601677       0.00252889      -0.02124432       0.00356411
H        2.07672575       6.46024023       1.93062737       0.01435965      -0.01690440       0.00084515
H        1.48204840       5.59732739       0.47735448       0.01462266      -0.02074134       0.00347624
S        3.83054771       9.46247067      10.85435487       0.00231934       0.00323340      -0.00170350
O        2.67256343       9.58352358       9.91648234       0.00581586       0.00103045      -0.00523734
C        5.04486216      10.73224457      10.43039861       0.00016075       0.00649986       0.00332814
C        4.83931071       8.07645813      10.30485289       0.00761166       0.00707883       0.00021830
H        4.63505933      11.69536393      10.72793756      -0.00293630       0.00488693       0.00301829
H        5.22319966      10.71254917       9.35553313       0.00286977       0.00792940       0.00404564
H        5.96807471      10.52551566      10.97474596      -0.00089529       0.00874321       0.00555307
H        5.68732992       7.98792618      10.98488926       0.00751345       0.01018858       0.00026721
H        5.18374848       8.25761427       9.28817148       0.00676139       0.00799683       0.00028753
H        4.22638488       7.17995042      10.34902587       0.01085609       0.00522012       0.00012536
S        3.49024140      10.26102427       3.29768769       0.00501925       0.00351524      -0.00820708
O        3.75791321      10.95239146       4.59456989       0.01763217      -0.00251460      -0.00773311
C        2.47340603      11.35691386       2.30147954       0.00126213      -0.00273484       0.00027561
C        2.22836212       9.00743940       3.60487829       0.00886440      -0.00168180      -0.00460081
H        3.10489567      12.21367764       2.07519387      -0.00480898       0.00456272       0.00093064
H        1.59292694      11.62908271       2.88132862      -0.00471728      -0.00946651      -0.00552684
H        2.19731163      10.83142662       1.38800816       0.00898961      -0.00487248       0.00024169
H        1.80159079       8.69955618       2.65201416       0.00390087      -0.00495424      -0.00116167
H        1.44810998       9.45678996       4.21786562       0.01213518      -0.00280009      -0.00165202
H        2.72883002       8.17096990       4.09233227       0.01103730      -0.00172324      -0.00535714
S        4.07225171       7.29533573       6.72600082      -0.00918719      -0.00395074       0.00432587
O        4.41999282       7.08444871       5.28340561      -0.00593108      -0.01463698       0.00686157
C        2.31964801       6.87126022       6.89549348      -0.01323974       0.01301917      -0.00027237
C        3.86240489       9.05534649       6.99515886       0.00824362      -0.00174767      -0.00670912
H        2.23509817       5.79394012       6.75995458      -0.02254358       0.01395063      -0.00057031
H        1.76234253       7.40009470       6.12258737      -0.00573727       0.01732013      -0.00238931
H        1.97548380       7.16999826       7.88586549      -0.01185285       0.01642552      -0.00114824
H        3.40437641       9.21904344       7.97393985       0.00725436       0.00201653      -0.00832471
H        3.25677324       9.47764982       6.19731268       0.01630247       0.00073098      -0.01086378
H        4.84894493       9.51415793       6.94333716       0.01349133      -0.01376870      -0.00553197
S        8.62898966       7.56511970      11.39621354       0.00718415      -0.00549877       0.00668368
O        7.58612643       8.43534949      12.03684704       0.00235999      -0.01660454       0.01461130
C       10.08093734       8.55703720      11.03601649      -0.00389755       0.00960445       0.00480889
C        8.13210993       7.31719397       9.67810345       0.00132459      -0.00175728       0.00879443
H       10.48209416       8.89143609      11.98920951      -0.00102020       0.00716315       0.00366160
H        9.80770207       9.40526398      10.40993098      -0.01595089       0.00999098       0.01195370
H       10.79610475       7.91161916      10.52318954      -0.00225465       0.01904837      -0.00447327
H        8.96792744       6.84742169       9.16193951       0.00063689       0.00302248       0.00411701
H        7.91926370       8.28643292       9.22609084      -0.00388822      -0.00157911       0.01246743
H        7.25975642       6.66563543       9.65490513       0.00354372      -0.00455035       0.01025040
