146
Lattice="11.774399336136872 0.0 0.0 0.0 11.774399336136872 0.0 0.0 0.0 11.774399336136872" Properties=species:S:1:pos:R:3:forces:R:3 energy=-189966.0 stress="-0.003448858391493559 -0.0006084037013351917 0.0005215994315221906 -0.0006084037013351917 -0.0018201398197561502 0.0008482207485940307 0.0005215994315221906 0.0008482207485940307 -0.0007613844354636967" pbc="T T T"
N        7.24115050       8.44820016       7.52940088       0.00394800      -0.01389103      -0.00783887
C        7.06993757       7.76530755       8.67931845       0.00724927      -0.00348139       0.00505409
C        7.52176922       9.76823176       7.51401260       0.00178058      -0.00724369      -0.00110942
C        7.21154672       8.40333995       9.89069709       0.00324431      -0.00405617      -0.01116682
C        7.66617619      10.44991103       8.70350860      -0.00429231      -0.01244221      -0.01293188
C        7.52320743       9.76091554       9.90538656      -0.00134635      -0.00196043      -0.00518724
H        7.18529899       7.93074756       6.64644969       0.00825026      -0.01598078       0.00021356
H        6.83606184       6.71597117       8.59314163       0.01306942      -0.01158737       0.00113604
H        7.62180378      10.23181408       6.54460313       0.00140731      -0.01362080      -0.00973542
H        7.07561376       7.82841502      10.79790168       0.00443965      -0.00256044      -0.00002363
H        7.89286126      11.50694376       8.70035838      -0.00806044      -0.00286278      -0.01170417
H        7.66478234      10.28755165      10.83938585      -0.00811233       0.00024208      -0.01008308
N        9.51711545      10.72467911       3.21958355      -0.01801494       0.01532429       0.00139753
C        8.57252964      10.81423031       2.27824190      -0.01755606       0.00519966       0.00134587
C        9.61305777       9.58821460       3.91075542       0.00018872       0.01491997       0.00064409
C        7.69862625       9.77335147       1.99813561      -0.00599520      -0.00390212       0.00299730
C        8.79908698       8.49197175       3.68028552       0.00936931       0.00542517       0.00036333
C        7.82321234       8.58238493       2.69733809       0.00595243      -0.00175355       0.00489009
H       10.66795410      12.04863062       2.89440276      -0.01071799       0.02177158      -0.00338499
H        8.53852296      11.74625487       1.71702547      -0.02959845       0.00261247      -0.00298512
H       10.39052471       9.54372565       4.66653302       0.00148903       0.01716606      -0.00604452
H        6.94254427       9.90451719       1.23597232      -0.01250730      -0.01513163       0.00575212
H        8.94421760       7.58311444       4.24184816       0.01788315       0.00539486       0.00093093
H        7.18462447       7.73854519       2.47142399       0.00733419      -0.00439531       0.01193202
O        8.96897490       1.73723067       0.70407956      -0.03556454       0.02605182       0.02111161
O       11.35258911       3.28826855       0.64268654      -0.02471268       0.00862646      -0.02076209
O       11.21477613       1.00556160       2.51723116      -0.00983423       0.01671028      -0.00626159
O        9.56303110       3.48513054       2.84827658       0.01543379       0.01947713       0.00556648
Mo      10.25494064       2.42042840       1.66153165      -0.01231843       0.01471853      -0.00274551
O        2.61904005       2.43234051       8.92676378       0.02185585       0.01724929       0.00388104
C        2.66749804       4.70490395       9.49655375      -0.00404891       0.01848626      -0.00813457
C        1.85571771       3.97404903      10.56332197      -0.00059777       0.01773521      -0.00599682
C        2.55091320       3.72925440       8.33731530       0.00256602       0.01261902      -0.00288460
C        2.24027523       2.52132458      10.31064770       0.00573063       0.01798421      -0.00039011
H        2.27936544       5.69217986       9.24968698      -0.00965834       0.01475862      -0.01295215
H        3.71259360       4.80092941       9.80563209      -0.00481221       0.02571628      -0.00856818
H        2.06267994       4.27837492      11.58723758      -0.00151978       0.02227040      -0.00722638
H        0.78619430       4.11215339      10.40733217      -0.00109532       0.01298334      -0.00535100
H        1.59189558       3.85833165       7.81820815      -0.00149584      -0.00106626       0.00167668
H        3.35548084       3.80589116       7.60174873      -0.00289223       0.01838939      -0.00789690
H        3.10883921       2.22474513      10.91207021      -0.00090867       0.01956724       0.00903198
H        1.42201953       1.82676581      10.52051412       0.00504017       0.01644045      -0.00878052
O        4.31084585       3.18498560       2.94360781      -0.00106949      -0.00335163      -0.01369933
C        2.72385747       1.45329589       3.18403263       0.00172046      -0.00509357       0.00277114
C        3.74111190       1.05933709       2.11197067       0.00078082      -0.00942659       0.00344986
C        2.91714659       2.95710342       3.22271797       0.00106585      -0.00457597      -0.00394339
C        4.90450290       1.97792636       2.44639880       0.00017348      -0.00822854       0.00030455
H        1.69574645       1.18919972       2.94534416       0.00149450      -0.00673161       0.00608223
H        2.99143829       1.00606589       4.14546505       0.00218429      -0.00141014       0.00417444
H        4.02651177       0.00885102       2.12998650       0.00092950      -0.00915390       0.00740992
H        3.33998221       1.28807056       1.12167857       0.00100389      -0.01372398       0.00250641
H        2.30849807       3.44325560       2.45099174      -0.00379267      -0.00832689      -0.00203103
H        2.67574488       3.40802559       4.18824632       0.00584436      -0.00102498      -0.00447136
H        5.53799307       1.54042839       3.22872596      -0.00545070      -0.00367895       0.00718862
H        5.54684546       2.22598165       1.59783561       0.00579327      -0.01565361       0.00261632
O        6.97705226       6.37603278       5.26101865      -0.00438012      -0.00764824       0.04367210
C        6.15015776       4.25171291       5.82524335      -0.01186776      -0.01179314       0.00782132
C        6.96954887       4.09899091       4.54900896      -0.00168001       0.00138223       0.01291305
C        5.79011956       5.72148386       5.74535623      -0.01177718      -0.01183957       0.02042863
C        7.76924736       5.38763006       4.51987582      -0.00597185       0.00468335       0.02606989
H        5.27612329       3.60288753       5.86087819      -0.01128352      -0.01266682      -0.00590477
H        6.76959422       4.05582879       6.70590064      -0.02039783      -0.02025582       0.01135865
H        7.62023053       3.23113120       4.51770508       0.00223392       0.00461504       0.01234075
H        6.29321035       4.04589755       3.69723748       0.00562638       0.00281563       0.00712690
H        4.96512549       5.88268078       5.04126947      -0.00180703      -0.00425508       0.01113850
H        5.51411732       6.17756316       6.69991093      -0.02422701      -0.02190065       0.02128282
H        8.73550517       5.28085252       5.01674193      -0.00297391       0.00219835       0.01869109
H        7.95271380       5.74607280       3.50689685      -0.01327173       0.01852340       0.03011557
O       11.70689677       1.14447672       6.96784484       0.01838261      -0.02518189      -0.00855318
C        9.38312654       0.94382499       6.71718302       0.01767987      -0.00041068      -0.00365995
C        9.86271531       1.99718705       5.72580842       0.02340704       0.00279433       0.00209931
C       10.51479344       0.96463515       7.73297652       0.01890570      -0.01347205      -0.00559531
C       11.36655677       1.74848405       5.70531913       0.02283508      -0.00197640       0.00140661
H        8.41711217       1.18413527       7.15840882       0.02018507       0.00332495      -0.00096647
H        9.33568518      -0.03134449       6.22390489       0.01169312       0.00242004      -0.00829069
H        9.42554550       1.91822561       4.73339757       0.02396451       0.01033583       0.00146979
H        9.63488153       2.99708132       6.10651744       0.02733108       0.00147298       0.00702018
H       10.38114927       1.79016698       8.43864836       0.02791467      -0.01328659      -0.00354627
H       10.61669003       0.04112515       8.30949515       0.01161086      -0.01537123      -0.00768049
H       11.63731204       1.05689593       4.90443913       0.02398390       0.01142058      -0.00905955
H       11.94554014       2.66678353       5.56855063       0.02551898      -0.00128794       0.01888723
O        8.19701773       2.42846688       9.36948022      -0.01300335      -0.00279641      -0.01134616
C        8.04185335       4.47084333      10.58589715      -0.00022365      -0.00783333      -0.00159496
C        6.71505404       4.13709973       9.90671913      -0.00623351      -0.00249487       0.00815594
C        9.00508148       3.51120865       9.88710146      -0.00724496      -0.00748742      -0.01125050
C        6.84660134       2.63023452       9.78358835      -0.00996673      -0.00173384      -0.00065219
H        8.34388874       5.51342027      10.48285824       0.00173946      -0.00847933       0.00063999
H        7.98582865       4.24114799      11.65226478       0.00827067      -0.01208135      -0.00224566
H        5.83980677       4.46514357      10.46181806      -0.00069876      -0.00479835       0.01737607
H        6.67018423       4.57125178       8.90181879      -0.01566192       0.00297818       0.01134631
H        9.49445656       3.99210848       9.03112496      -0.00924605      -0.00649391      -0.01154241
H        9.76826016       3.11779833      10.55877592      -0.00532618      -0.01197746      -0.01658750
H        6.67951233       2.15146668      10.75833972      -0.00312463      -0.00506839      -0.00140309
H        6.18860897       2.17537767       9.03989090      -0.01590398       0.00284986       0.00225553
O       12.14372463       6.64211921       7.38575744       0.02512339      -0.01397338       0.00088727
C       10.19865630       7.44874447       8.46007967       0.02462950      -0.02205932       0.00488102
C        9.79251304       6.66687746       7.21414007       0.02559233      -0.01482490       0.00037244
C       11.65741441       7.73772788       8.16817003       0.02327561      -0.01788080       0.00585569
C       11.03846606       5.83146410       6.96188811       0.02618617      -0.01224148      -0.00495555
H        9.64374035       8.37072699       8.61493388       0.02258933      -0.02423656       0.01032785
H       10.09133706       6.83061656       9.35423444       0.02791145      -0.02771957       0.00101107
H        8.89957846       6.05368823       7.33849385       0.02608450      -0.01565789      -0.00270987
H        9.61818223       7.35123680       6.37905081       0.02602665      -0.00999886       0.00453041
H       11.75608985       8.66619614       7.58901574       0.02122229      -0.01582092       0.00939673
H       12.26120446       7.83176435       9.07112099       0.02402675      -0.02003537       0.00506967
H       11.01397331       4.91285785       7.56120473       0.02692486      -0.01590261      -0.01115504
H       11.18318851       5.56233972       5.91422589       0.02739954      -0.00553353      -0.00627428
O        5.74137585       6.66711970       0.37471643      -0.00533022       0.00194536      -0.00602484
C        4.27443278       7.53846550       1.98525036      -0.00690584       0.00780207      -0.01272887
C        4.17820832       6.02100279       2.04460588      -0.00481731       0.00791293      -0.00302961
C        4.80327738       7.73097141       0.57960565      -0.00970630      -0.00083850      -0.01463082
C        5.42851079       5.58873518       1.29092637      -0.00606531       0.00473985      -0.00335920
H        3.32011182       8.02357713       2.14898035      -0.00657484       0.00883919      -0.01319025
H        4.98748217       7.91122193       2.72568354      -0.00477117       0.01375058      -0.01795349
H        4.14134392       5.61323164       3.04928193      -0.00161310       0.01409394      -0.00032410
H        3.27893975       5.68716000       1.52312173      -0.00569338       0.00294013       0.00166535
H        3.98617817       7.65435347      -0.15137777      -0.00981537      -0.01042503      -0.01315877
H        5.31929726       8.67910821       0.41527645      -0.01411167      -0.00003332      -0.02332903
H        6.28623547       5.45311145       1.95579673      -0.00549725       0.00469724      -0.00426820
H        5.28841532       4.66510449       0.72760955      -0.00789234       0.00340921      -0.00031853
O        4.41714132      10.69358509       8.47975286      -0.00112993      -0.00580338      -0.00123421
C        2.74733928       9.10609378       7.94792133      -0.01757574       0.01290593       0.00168777
C        2.31893701       9.87323400       9.19753458      -0.00369376       0.01169437       0.00684482
C        4.23687370       9.38447778       7.94380083      -0.01556110      -0.00091365      -0.00733486
C        3.17544136      11.12373504       9.08053719       0.00516009       0.00490624       0.00375888
H        2.53495554       8.03809678       7.96792121      -0.02664583       0.01537874      -0.00273164
H        2.26922875       9.53549401       7.06655432      -0.02026859       0.02104263       0.00750408
H        1.25607736      10.10801414       9.22657651      -0.00172621       0.01963753       0.01502213
H        2.57443487       9.30439453      10.09728563      -0.00240603       0.00862980       0.00398105
H        4.74099400       8.65647980       8.59245710      -0.01654181      -0.00924927      -0.01597756
H        4.68812287       9.33961159       6.94782781      -0.02278109      -0.00052501      -0.01051870
H        2.70330534      11.86806521       8.43514346       0.00772309       0.00816959       0.00603208
H        3.40514225      11.59335022      10.03850956       0.01404303       0.00434019       0.00172120
O        1.14756334       7.68500210       3.31760308      -0.01321828       0.00298837       0.00820577
C        1.63626765       9.72948969       4.39944952      -0.00803640       0.00813079      -0.00386888
C        1.63038509       9.97411041       2.88998574      -0.01586369       0.00091660      -0.00519258
C        1.80496736       8.21597662       4.47459651      -0.00810088       0.00857741       0.00220096
C        0.92990160       8.72994028       2.35734460      -0.01566923      -0.00269866       0.00312208
H        2.43308339      10.26587162       4.91450115      -0.00515528       0.00979893      -0.01030508
H        0.69094657      10.04400401       4.84590052      -0.00472286       0.01040644       0.00107650
H        1.11877426      10.88945207       2.59859096      -0.01868135      -0.00121444      -0.00750787
H        2.65737458      10.02691135       2.52266012      -0.01806334       0.00109883      -0.01056723
H        2.87121794       7.94650137       4.44547673      -0.00842351       0.00790936      -0.00055176
H        1.36186946       7.75405307       5.35915707      -0.00441477       0.01251087       0.00582239
H       -0.14630606       8.89254192       2.25300408      -0.01563865      -0.00411762       0.00378349
H        1.31325520       8.40619085       1.38382894      -0.01706704      -0.00821728       0.00456485
