149
Lattice="11.22416700564844 0.0 0.0 0.0 11.22416700564844 0.0 0.0 0.0 11.22416700564844" Properties=species:S:1:pos:R:3:forces:R:3 energy=-78848.953125 stress="-0.0010966260451823473 -0.00038339642924256623 -0.0011704631033353508 -0.00038339642924256623 -0.0015640553319826722 0.0009102181938942522 -0.0011704631033353508 0.0009102181938942522 2.845046401489526e-05" pbc="T T T"
N        7.22884822       6.14384074       1.48176902      -0.00572520      -0.00162941      -0.01567501
C        7.88659272       7.05997023       0.76330212      -0.00902668       0.00538531      -0.00670993
C        6.28470664       6.55552101       2.33363371      -0.00107870      -0.00429610      -0.00925336
C        7.63242850       8.41799351       0.87422847      -0.00922439       0.00382662       0.00241967
C        5.96450849       7.89260259       2.50775695       0.00090159      -0.00565746       0.00028165
C        6.65526149       8.84121939       1.76344659      -0.00758173       0.00171940       0.00492434
H        7.17977734       4.46105617       1.11517800       0.02187930       0.00675008      -0.00169522
H        8.63792971       6.68023012       0.07498008      -0.01311782       0.00625998      -0.00972605
H        5.75480334       5.78475576       2.88311731       0.00343567      -0.00518772      -0.00931387
H        8.18013912       9.13364574       0.27994248      -0.01034449       0.00434104       0.00584204
H        5.17040670       8.17562668       3.18773240       0.00809264      -0.00771769       0.00774867
H        6.43616946       9.89548131       1.88340453      -0.00633065       0.00188226       0.00831474
N        1.13025731       9.63677429       3.94361731       0.01533765      -0.00345168      -0.01016048
C        0.92288020      10.33365750       5.06778884      -0.00157194      -0.01028787      -0.00030160
C        2.24402243       9.78409864       3.21132208       0.00933939      -0.00672499      -0.00909606
C        1.85668457      11.24296348       5.51663883       0.00843113      -0.00683139      -0.00476954
C        3.22648795      10.66745666       3.61676424       0.01244153      -0.00320828      -0.00187075
C        3.02714154      11.39996556       4.78170421       0.00393735      -0.00347358       0.00310720
H        0.36210258       8.94572642       3.55597573       0.01133788      -0.00276867      -0.01096413
H       -0.00820783      10.15731928       5.58803509      -0.00235398      -0.01104422      -0.00367498
H        2.32493042       9.17882109       2.31756429       0.02013288      -0.01162453      -0.01286197
H        1.64546439      11.82192085       6.40434785      -0.00008205      -0.00691475      -0.00538604
H        4.12995790      10.79394439       3.03152077       0.01030205      -0.00356144       0.00522897
H        3.78874402      12.09268861       5.11664682       0.00724663       0.00381106       0.00228492
S        9.58774701       0.99080238       0.44227538       0.00174023      -0.00282831       0.00439563
O        9.23844323      -0.14983597       1.32158195       0.00324300      -0.00583923       0.00349426
O       10.98179242       0.88547362      -0.03078752       0.00706029       0.01159461       0.02078116
O        8.64641594       1.05310378      -0.70898383       0.00294614       0.00659905       0.00061619
O        9.43342756       2.27008381       1.24189682       0.01529533      -0.00651014       0.00457001
N       10.01915655       6.03441359       9.32565384      -0.00161193       0.00311872       0.00523563
H       10.92031836       5.73167189       8.97481076      -0.00203329       0.01576002      -0.00655472
H        9.93944438       7.02171182       9.10406090      -0.02096617       0.00418922       0.01628608
H        9.31862124       5.55529199       8.76470795      -0.00323611      -0.00568328       0.01560928
N        5.75172888       2.59414767       5.98746005      -0.01255588       0.01030836       0.00827497
H        6.54378473       2.11125320       6.44185836      -0.01658970       0.01236913       0.01812521
H        5.64011971       2.21546724       5.05267235       0.00149516       0.00915268       0.00731140
H        4.91901685       2.34105555       6.50987362      -0.02179502       0.00684270      -0.00852340
N        1.27762559       6.73847068       6.89653182       0.00294530      -0.01187938       0.00549400
H        0.87893570       7.28550452       7.65119944      -0.00551637      -0.00408649      -0.00471633
H        1.92947364       6.07602336       7.31639793      -0.00161563      -0.01021475       0.01571969
H        0.52099908       6.20823427       6.47836828       0.00604019      -0.00921522      -0.00306066
N        6.20313338       0.72011557       2.75505156       0.00046977       0.00216386      -0.00397128
H        5.66358518       1.57726052       2.85343130       0.01242890       0.00871423       0.00136354
H        6.95959401       0.86839454       2.09190362      -0.00642404       0.00422928      -0.01158901
H        6.67742750       0.48465463       3.62364507       0.01955859       0.01908029      -0.00983920
N        8.57656003       9.52255184       8.89760629       0.00325515      -0.00680154       0.00852335
H        8.01604178       9.63732139       8.05390134       0.00153176      -0.00486067       0.01017024
H        9.55067020       9.42792652       8.63263431       0.00157276      -0.00618406       0.00134408
H        8.52547108      10.40321366       9.41182101       0.00683043      -0.00634582       0.00788540
N       10.56623013       8.04889744       2.77067925      -0.00596005       0.01105359      -0.00692609
H       10.98696591       7.15552855       2.50368725      -0.01759049       0.01048708      -0.02117314
H       10.32963615       8.57189174       1.93123247      -0.01514895       0.02024271       0.00143361
H        9.68709120       7.82115483       3.21834489       0.00038680       0.01404889       0.00703367
N        4.23329990       3.24827733       2.69616868       0.00949809       0.01159944      -0.00226285
H        4.16745036       3.80476136       1.83541763       0.01590579       0.02474900       0.00502997
H        4.29390879       3.93619928       3.44442219      -0.00041336       0.00408361       0.00496104
H        3.32083352       2.81161133       2.80906526       0.00592861       0.01485078      -0.01857525
N        7.05064620       3.42109800       0.98670346       0.00694814       0.00149016      -0.00614493
H        6.67294369       3.19811147       0.04848006      -0.00650716      -0.01040756      -0.00356096
H        6.36314858       3.11443298       1.67344593       0.02273831      -0.00681420       0.00600356
H        7.98486203       2.92041039       1.10951976      -0.00283444      -0.00731656       0.00260822
N        2.75814784       6.61849932       2.88120785       0.00018497       0.00467652       0.00074982
H        3.29081117       6.42345549       2.03994389       0.00103691       0.00943590       0.00036223
H        1.88732233       6.10222765       2.77966047      -0.00191884       0.00862149      -0.00016489
H        3.28019886       6.18786472       3.64176563      -0.00001575       0.00180629      -0.00095272
N        6.01031614       2.20920559       9.77768751       0.01257740      -0.00364226       0.00434077
H        5.16825563       1.71623417      10.07114445       0.00685715       0.00686441       0.00319424
H        6.81119149       1.61572962      10.01070094      -0.00039240      -0.02495371      -0.00631989
H        6.00630708       2.27259454       8.76693553       0.00548646      -0.00074040       0.00450294
N        2.97213719       8.86326502      -0.30910244       0.01915169      -0.01016548      -0.00403395
H        2.36688953       8.08839579      -0.55958942       0.02361915      -0.01387757      -0.00339549
H        3.89934693       8.60828052      -0.65286120       0.01766254      -0.00405005      -0.01282438
H        2.65449353       9.62710960      -0.89894248       0.01160243      -0.01187138      -0.00221398
N        1.37143976       3.46799474      10.73843425      -0.01739627       0.00470246      -0.00313619
H        0.64441434       4.17694404      10.76063255      -0.01014762       0.01192258       0.00632725
H        0.95080756       2.65694723      11.19561343      -0.02063534       0.00433287      -0.00583888
H        1.44001044       3.17311281       9.76885498      -0.02711596       0.01118130      -0.00579607
N        7.42223847       4.81248409       7.87690650       0.00840327       0.00182500      -0.01534250
H        6.98820428       4.21852925       7.17468579      -0.01024376       0.00647324      -0.00716505
H        6.84184484       5.63931514       7.97364824      -0.00083070      -0.00437029      -0.01672271
H        7.35463027       4.29968421       8.75058417      -0.00971329      -0.00153035      -0.01826609
N       -0.02311474       1.89202465       7.63505226       0.00102842       0.00220620      -0.00241432
H       -0.41553898       2.70616395       7.17859560      -0.00115586       0.00569651       0.00578302
H        0.95758165       2.08066798       7.80757307       0.00307620      -0.00176403      -0.00935823
H       -0.46691971       1.79275005       8.54348218       0.00815201      -0.00131984       0.00059852
N        3.82192329       8.38962135       6.40322994       0.00224590      -0.00329515      -0.00080907
H        3.57019981       9.19197120       6.97170384      -0.00603868      -0.00608083      -0.00060914
H        3.84705079       8.74478921       5.45251492       0.00565419      -0.00334071      -0.00071647
H        2.99830841       7.78175340       6.43021571       0.00860026      -0.01199519      -0.00279265
N        5.59688189       7.74983089       9.35491986       0.00858574       0.00172959      -0.00654730
H        5.95350414       6.87319330       9.71502984      -0.01648567      -0.00738614      -0.00367533
H        5.17522407       7.57251747       8.44757598       0.00537109       0.01776588      -0.00807565
H        6.41180322       8.34201238       9.21199443       0.02293213      -0.01730489      -0.00168961
N        4.18238081       4.73457800       0.01460973      -0.01010098      -0.00372455       0.01749742
H        4.76459514       4.20606675      -0.62900616      -0.00654939       0.00163131       0.01714786
H        4.22138063       5.70637116      -0.27098768      -0.01647136      -0.00580394       0.01029634
H        3.22204515       4.39361851      -0.10993434      -0.00699183      -0.00938213       0.00881267
N        8.42160489      10.64063184       4.28733634       0.01122949      -0.00157681      -0.00737067
H        8.87055557      10.93944221       3.41953063      -0.00428039      -0.02213197      -0.02261518
H        8.30394638       9.63720070       4.22588520       0.03339247      -0.00636465       0.03273619
H        9.04534109      10.83455738       5.05983037       0.01228045       0.04236981      -0.01891798
N       -0.13122169       8.90493395      -0.59087393       0.01209144       0.00207678      -0.00120009
H       -0.47512463       7.99322788      -0.30895318       0.00906309       0.00396706       0.00140308
H       -0.87632350       9.57478894      -0.42952491       0.01669316       0.00637481       0.00274840
H        0.60447216       9.17048321       0.05281567       0.01499046      -0.00259142      -0.00271871
N        3.96789903       0.66130821       0.35144649      -0.01122531      -0.00116570       0.01297653
H        3.02669725       0.37324529       0.59826230      -0.01796780       0.00473888      -0.00585552
H        4.24334051       1.35436835       1.03881420      -0.02350250       0.00478129       0.01202800
H        4.55536562      -0.14742097       0.52659340      -0.02205965      -0.00420582       0.03439777
N        8.95395049       2.85749837       4.47609591      -0.00820375      -0.01601215      -0.00719713
H        9.12608296       2.58010307       3.51246801      -0.01944728       0.00730626      -0.01612058
H        9.22875451       3.83016922       4.55982869       0.01510814      -0.02506773       0.01833440
H        7.95015867       2.82736810       4.60820513      -0.00603401      -0.00232654       0.01176160
N        2.38515845       0.61055522       8.90582511       0.00216194       0.00643870       0.00855365
H        2.60049283      -0.22594805       8.37717073      -0.00985299      -0.00206590       0.01704548
H        1.47823278       0.44935062       9.33920437       0.00463810       0.01859984       0.01817224
H        3.06296940       0.67758374       9.66247259       0.00726229       0.00699725       0.00376629
N       -0.08362223       5.01239619       2.63855568      -0.01339862       0.00894418       0.00604410
H       -0.87395939       4.73946529       2.06088263      -0.00504387      -0.00107361      -0.00064982
H       -0.44753180       5.12540147       3.58141922      -0.02145589       0.01097981       0.00278077
H        0.50716005       4.18318303       2.66496430      -0.00395123       0.01629877       0.01405951
N        2.14775409       3.52331451       5.39709898      -0.00202801       0.00254694       0.00341415
H        1.59670979       3.04459307       4.68487998      -0.00475958       0.00331860       0.00486942
H        3.10675023       3.24180670       5.22684552      -0.00007453       0.02462413      -0.02203184
H        2.13565996       4.50778045       5.14572702      -0.02606202       0.00564981       0.01655307
N        3.39761784       4.65429708       8.01651826      -0.01008051      -0.01193902       0.00508386
H        3.13953451       4.56720538       8.99236804      -0.01303373      -0.04029221       0.00175877
H        4.37634363       4.39203661       7.96546301      -0.00694887       0.00199973      -0.00058460
H        2.87282679       3.95843064       7.48905137      -0.00339795      -0.00045583      -0.01737585
N        6.40486734      10.17817861       6.74456225       0.00688437      -0.00840229      -0.01007956
H        5.94541830      10.92402115       7.25322117      -0.00476096      -0.01132176      -0.01627520
H        5.73437882       9.42810634       6.61201046       0.01321917      -0.01482524      -0.00630598
H        6.66583349      10.55008161       5.83663557       0.00373966      -0.01218300      -0.01287474
N        9.32469316       6.17485501       5.54411082      -0.01200855      -0.01300019      -0.00297411
H        8.54299006       6.28782767       4.90687330      -0.01125295      -0.00466885      -0.00264363
H        9.61459193       7.11075487       5.80636286      -0.00183347      -0.01669672      -0.00168500
H        8.93509011       5.75165504       6.38662299      -0.01420937      -0.00780542      -0.00128123
N        4.78044108       5.54350086       5.25986558       0.00263228       0.00641198       0.00657761
H        5.40365513       4.75824436       5.44055436      -0.01141319      -0.00325816       0.01311571
H        5.32787261       6.39623623       5.28656085       0.01817067      -0.00351547      -0.00078198
H        4.17447880       5.60137720       6.07474947       0.00008258       0.02380204       0.00313315
N        0.57502821       1.88483540       3.00880212       0.01331247       0.00364670       0.00588757
H       -0.20513642       2.12275552       2.39020570       0.02802382       0.00715397      -0.01143321
H        0.13344264       1.56783874       3.86655091      -0.00967430       0.00681290      -0.00432304
H        0.97653167       1.06026341       2.57613694       0.01690533       0.00136466       0.01364782
N        8.11484657       1.51226185       7.42924873      -0.00525528       0.00222677      -0.00265209
H        8.47932456       1.76456834       8.34506370       0.00428174      -0.01150927      -0.00263807
H        8.79399077       1.81770288       6.73676847      -0.00351828      -0.00204704      -0.00255105
H        8.15414817       0.49785146       7.42504523      -0.02285048       0.00146337      -0.01453144
