146
Lattice="12.515819747892065 0.0 0.0 0.0 12.515819747892065 0.0 0.0 0.0 12.515819747892065" Properties=species:S:1:pos:R:3:forces:R:3 energy=-74039.703125 stress="-0.0013195311184972525 0.0004356561112217605 -0.00025322406145278364 0.0004356561112217605 -0.0003440037544351071 -0.00018615522276377305 -0.00025322406145278364 -0.00018615522276377305 -0.0007789974333718419" pbc="T T T"
N        7.64659961      11.18624584      10.00143883      -0.02315360      -0.00816434       0.02610402
C        7.68379170      10.02141574       9.32504363       0.01361994       0.01914513       0.01333186
C        6.78601705      11.40581624      11.01920657      -0.01990384       0.01038021       0.00693351
C        6.83026207       8.99799036       9.67562358      -0.00983260      -0.00827455       0.00539696
C        5.91055340      10.41212186      11.39132584      -0.04258028      -0.02143603      -0.00496782
C        5.93818248       9.18732563      10.72867299      -0.01114027       0.00107388      -0.01475171
H        8.39410707      11.87620544       9.89537711      -0.00322098       0.00667149       0.04899986
H        8.41799415       9.94062078       8.53888062       0.01191251       0.01187386       0.03454965
H        6.84980939      12.37504468      11.49001340      -0.03949912      -0.01336880       0.01618434
H        6.87910586       8.05905732       9.14166281       0.01255962       0.00678885      -0.00191459
H        5.22818671      10.59243923      12.20862910      -0.04284707      -0.01441604      -0.01828603
H        5.28158285       8.38673640      11.03997903      -0.01768551      -0.01362150      -0.02276572
N        6.60925515      11.39315285       2.96905636       0.00591587      -0.00184407      -0.00808009
C        5.41736379      10.77578921       2.79444737       0.00155246       0.00883318      -0.00477007
C        7.44630972      11.08243963       3.98574327       0.00593203      -0.00213998      -0.00979111
C        5.03704743       9.77753028       3.66083836      -0.00445092       0.01332480       0.00055010
C        7.09456089      10.08961457       4.87195428      -0.00048193       0.00317068      -0.00340845
C        5.88140416       9.41649679       4.71206375      -0.00478093       0.01194161      -0.00050260
H        6.89661935      12.11998386       2.32345622       0.01145722      -0.00645524      -0.01393664
H        4.80875292      11.11633403       1.97176854       0.00222799       0.01017316      -0.00365029
H        8.35975385      11.65176239       4.04625135       0.00993495      -0.01017287      -0.01353722
H        4.08588241       9.28700593       3.50943678      -0.00807190       0.02058086       0.00387010
H        7.77275075       9.84805180       5.67904135      -0.00037877       0.00138377      -0.00484064
H        5.59553526       8.62732681       5.39521568      -0.00896184       0.01567523       0.00275648
S       11.16511672       0.39203083       0.18836017      -0.02608967      -0.00985960       0.01097696
S        9.31344934       0.19611564      -0.38913781      -0.02602273       0.00820777       0.00509343
C        3.20757801      11.74960067       5.95099354      -0.00894952       0.01264513       0.00034460
C        2.04750346      11.11348107       5.19888014      -0.00425380       0.00739858      -0.00228301
C        3.45087514      11.12568963       7.31840592      -0.00379771       0.00886869      -0.00235611
C        1.86253289      11.64388841       3.78231358      -0.00962923       0.01432645       0.00113009
C        4.71354419      11.64968247       7.98466349      -0.00530270       0.01235124      -0.00250889
C        0.77329024      10.91142838       3.01305057       0.00189772       0.00502057      -0.00596808
H        4.12053862      11.65494838       5.35253077      -0.00854114       0.02230353      -0.00049469
H        3.03492993      12.82579665       6.06491365      -0.01686075       0.01071069       0.00531063
H        1.12179643      11.25709498       5.76781573      -0.00486350      -0.00374787      -0.00081815
H        2.20145665      10.02741377       5.15769665       0.00487737       0.00908875      -0.00861526
H        2.58405917      11.30494456       7.96228003      -0.00349027       0.00266942      -0.00031070
H        3.52184976      10.03691857       7.20925408       0.00088605       0.00961158      -0.00615346
H        1.64907885      12.71726570       3.81606052      -0.02546138       0.01074189       0.00833666
H        2.81223724      11.55059507       3.24513414      -0.00743502       0.03173610       0.00208969
H        5.59805763      11.37196878       7.40483192      -0.00460099       0.01731998      -0.00363314
H        4.83107077      11.24494734       8.98971868      -0.00289588       0.01075097      -0.00360014
H        4.69857106      12.73854928       8.06263878      -0.00947970       0.01197553       0.00010332
H        0.98048834       9.83909621       2.97625979       0.01649161       0.00815158      -0.01285445
H       -0.19716742      11.03735203       3.49441683      -0.00069702      -0.01138182      -0.00722860
H        0.66770401      11.27335434       1.98968814      -0.00110472       0.01068801      -0.00355685
C        5.73201867       3.40233904       2.96333551       0.00228751      -0.00559849      -0.00394552
C        6.92010516       2.45208659       3.03734931       0.00267897      -0.00456983      -0.00126732
C        4.37968485       2.69786473       2.98464097       0.00320160      -0.00715113      -0.00478969
C        8.27446855       3.15209762       3.03950196       0.00223873      -0.00410426      -0.00012594
C        3.21266475       3.67575499       2.98104525       0.00178856      -0.00903666      -0.00462856
C        9.43970349       2.18614613       3.19608332       0.00136632      -0.00381967       0.00644704
H        5.78232045       4.10567447       3.80377081       0.00064410      -0.00466275      -0.00474912
H        5.81163538       4.00989865       2.05482416       0.00283146      -0.00666270      -0.00452808
H        6.88520725       1.77123402       2.17535993       0.00432595      -0.00556923      -0.00032155
H        6.82918275       1.83333476       3.94032306       0.00184363      -0.00353118      -0.00079465
H        4.30595604       2.02962640       2.11876050       0.00452601      -0.00673822      -0.00509647
H        4.31913520       2.05772377       3.87250976       0.00382097      -0.00775664      -0.00526890
H        8.38555624       3.71178007       2.10638439       0.00472119      -0.00741608      -0.00169468
H        8.29154069       3.89293965       3.84629002       0.00012884      -0.00132850      -0.00270593
H        3.25670248       4.32415691       3.85804637      -0.00032513      -0.01030816      -0.00362200
H        2.24871942       3.16458234       2.99452889       0.00276229      -0.01070724      -0.00657201
H        3.24002822       4.31659893       2.09632516       0.00175062      -0.00770044      -0.00357041
H        9.37430968       1.64667689       4.14580442      -0.00064676       0.00100671       0.00891383
H        9.46384332       1.45901278       2.38227308       0.00208941      -0.00780582       0.01017289
H       10.40059837       2.70248280       3.17764275       0.00177042      -0.00478162       0.00485990
C        2.12760005       6.13033079       8.49961411       0.00253656      -0.00209558       0.00293555
C        2.05722410       6.95556228       7.22210387       0.00728825      -0.00117421       0.00329092
C        2.04431685       6.98431637       9.75860426       0.00525467      -0.00197929       0.00286999
C        2.15048208       6.13029723       5.94550014       0.00510525      -0.00072914       0.00295499
C        2.12034626       6.17401617      11.04514691       0.00200809      -0.00182405       0.00304425
C        2.16709120       7.00483642       4.70068269       0.01012824      -0.00036553       0.00337484
H        1.31743841       5.39171098       8.50584791      -0.00049162       0.00132808       0.00206208
H        3.06196857       5.55502337       8.50754968       0.00013655      -0.00579834       0.00368003
H        2.86673537       7.69598107       7.22962657       0.01030084      -0.00457904       0.00458195
H        1.12505130       7.53379765       7.20979078       0.00987896       0.00273544       0.00284823
H        2.84805879       7.72978209       9.73783183       0.00840408      -0.00543781       0.00223080
H        1.11096331       7.55480846       9.73865945       0.00760016       0.00168334       0.00264928
H        3.05675346       5.51547881       5.98051329       0.00235650      -0.00456722       0.00352121
H        1.30970879       5.43050489       5.90042412       0.00222641       0.00296876       0.00177737
H        1.31484960       5.43780373      11.09158804      -0.00050378       0.00099495       0.00300654
H        2.03839604       6.80976417      11.92880401       0.00386750      -0.00146185       0.00285947
H        3.06494760       5.62824489      11.11198594       0.00000235      -0.00508986       0.00366344
H        1.28329333       7.64392564       4.66185277       0.01183201       0.00185421       0.00143147
H        3.04345627       7.65765140       4.70972472       0.01190981      -0.00284234       0.00541911
H        2.19539260       6.41889695       3.78134091       0.01080896      -0.00024197       0.00338535
C       11.00360085      10.65689614       8.06307489       0.01259895      -0.00094265      -0.00163420
C       11.12707818       9.44813152       8.98233800       0.01171683      -0.00149888      -0.00250740
C       10.81761079      10.31255245       6.59162834       0.00664279      -0.00071204      -0.00085704
C       11.16910900       9.84449317      10.45135305       0.01639392      -0.00239450      -0.00230713
C       10.55889195      11.54721958       5.73923753       0.00430465      -0.00061142       0.00017942
C       11.16458835       8.67200720      11.41942822       0.00634461      -0.00364354      -0.00371978
H       10.16283798      11.28329209       8.39146732       0.01565564       0.00118275       0.00156721
H       11.88585610      11.29564415       8.18096567       0.01517585      -0.00380814      -0.00476754
H       12.02558876       8.88097773       8.71485342       0.00894824      -0.00435111      -0.00517440
H       10.28651885       8.76224386       8.80992973       0.00906694       0.00152275      -0.00060307
H       11.70188697       9.78113290       6.22499117       0.00447905      -0.00173712      -0.00440445
H        9.98592942       9.60355639       6.48633177       0.00539491       0.00042497       0.00269877
H       12.04265862      10.47657640      10.63552718       0.02226096      -0.01059121      -0.00274453
H       10.31426611      10.48892779      10.67941585       0.02228197       0.00487706      -0.00172921
H        9.65728246      12.06880542       6.07430365       0.00419554      -0.00204652       0.00162126
H       10.44051961      11.29708084       4.68416539       0.00349237      -0.00017938       0.00020836
H       11.38405210      12.25856178       5.81275805       0.00352429       0.00027061      -0.00076364
H       10.27641231       8.04874671      11.28480222       0.00153549       0.00399003      -0.00632189
H       12.04135163       8.03302260      11.29364358       0.00129077      -0.01049471      -0.00350147
H       11.16052550       9.03454890      12.44757748       0.00736601      -0.00540343      -0.00317764
C        6.31562247       3.84755773       8.36558623      -0.00054637       0.00266147       0.00078762
C        7.09226112       5.10006949       7.97839437      -0.00141801       0.00275961      -0.00000060
C        5.71877144       3.92113102       9.76672573       0.00078849       0.00229460       0.00126773
C        7.71783180       5.03048886       6.59006806      -0.00078142       0.00160050       0.00045103
C        4.88421092       2.69844260      10.12247419       0.00000408       0.00297192       0.00121075
C        8.49744468       6.28725186       6.22567208      -0.00205818       0.00189230      -0.00065524
H        5.51362876       3.67840657       7.63609200      -0.00111607       0.00230374       0.00157450
H        6.97550118       2.97442835       8.29796112      -0.00034532       0.00305700      -0.00005193
H        7.87701009       5.28593259       8.72199429      -0.00178018       0.00389863       0.00003980
H        6.41433997       5.96285770       8.02160337      -0.00175944       0.00250857      -0.00101827
H        6.52695821       4.04305907      10.49582883       0.00144762       0.00089168       0.00064741
H        5.09940267       4.82204709       9.84437959       0.00180095       0.00283608       0.00239481
H        8.37758922       4.15852228       6.53363526       0.00011538       0.00232357       0.00196584
H        6.92863820       4.85911883       5.85016144      -0.00016013      -0.00025786       0.00030181
H        4.04083335       2.58671079       9.43710775      -0.00074838       0.00433712       0.00198396
H        4.48346613       2.76052522      11.13598933       0.00110027       0.00268846       0.00157532
H        5.48278020       1.78679999      10.05349798      -0.00095138       0.00258343      -0.00008142
H        7.84854033       7.16761975       6.25572578      -0.00310116       0.00102595      -0.00300068
H        9.31807703       6.45781976       6.92645894      -0.00336942       0.00403474       0.00028113
H        8.92347298       6.22689620       5.22232109      -0.00054239       0.00072598       0.00016457
C        7.98092291       6.81620219       1.59462392      -0.00147247      -0.00355095      -0.00010750
C        9.21489355       7.56764993       2.07482519      -0.00036039      -0.00483626      -0.00085510
C        6.78526664       7.74436558       1.45302412      -0.00112797      -0.00307852      -0.00110205
C       10.47471504       6.71672871       2.12800915      -0.00107026      -0.00609219      -0.00234259
C        5.48064287       7.04424307       1.10401755      -0.00054383      -0.00365049      -0.00201458
C       11.68278025       7.50297133       2.61237023      -0.00052726      -0.00920683       0.00157127
H        8.19296419       6.32825765       0.63608975      -0.00220794      -0.00451296       0.00031120
H        7.74084824       6.01399748       2.30063237      -0.00211319      -0.00283508       0.00039184
H        9.01445219       7.98235107       3.07183158       0.00085348      -0.00516055      -0.00059041
H        9.38892082       8.42954423       1.42014102       0.00005437      -0.00483370      -0.00058605
H        6.66176408       8.27663295       2.39832742      -0.00220795      -0.00247439      -0.00150576
H        7.01839823       8.50697676       0.70240583      -0.00091370      -0.00375843      -0.00168234
H       10.30365820       5.85318938       2.78063200      -0.00246111      -0.00816849      -0.00560310
H       10.67445122       6.30827501       1.13196495      -0.00056747      -0.00292531      -0.00347537
H        5.57186197       6.46337189       0.18222558       0.00066275      -0.00355944      -0.00190865
H        4.66199071       7.75669173       0.96886705      -0.00058930      -0.00403082      -0.00281785
H        5.18421801       6.35239393       1.89510656      -0.00087670      -0.00377366      -0.00238150
H       11.87121024       8.36397124       1.96847800       0.00115953      -0.00702007       0.00509031
H       11.52163622       7.88534413       3.62425886      -0.00092626      -0.01304600       0.00285251
H       12.58538311       6.89220520       2.62529887      -0.00126734      -0.01031540       0.00007795
