144
Lattice="12.295362278654768 0.0 0.0 0.0 12.295362278654768 0.0 0.0 0.0 12.295362278654768" Properties=species:S:1:pos:R:3:forces:R:3 energy=-834267.125 stress="-0.0014393170131370425 -0.0002300278501934372 0.0008944181317929178 -0.0002300278501934372 0.0008412681054323912 0.0007654208166059107 0.0008944181317929178 0.0007654208166059107 0.0015729543520137668" pbc="T T T"
Sm       7.31134422      12.56670563      -2.26442972       0.00066345      -0.00971043       0.00130156
Sm       5.83415469      10.53902932       4.69391651      -0.00383598       0.00487188       0.00114398
S        8.80116235       6.13634465       7.83442618       0.00179410       0.00279009      -0.00372571
S       10.89441754       2.34888451       7.00731836       0.00282139       0.00051349       0.01274744
S       10.81346326       5.65971314       7.00789337       0.00140737       0.00256915      -0.00527301
S       11.45633908       4.09860848       8.06431822       0.00392011       0.00656915      -0.00048135
O        8.65037488       5.29307616       9.00032277      -0.00088307      -0.00423241      -0.00874794
O       11.63851552       2.18051829       5.78587487       0.00715837      -0.00003738       0.00162637
O        7.88460513       5.84318769       6.73900223       0.00316155       0.00851479      -0.00800276
O        8.95772360       7.56031805       8.07873982       0.00138724      -0.00008619       0.00435188
O       10.98396918       1.33595665       8.02807230       0.00430852       0.00841257       0.00466400
O        9.41294673       2.56673242       6.55369662       0.00487071       0.00170083       0.00308597
S        7.97389823      12.40858921       3.90240598      -0.02338970      -0.01821896       0.00344551
S        7.36239342       8.71076577       1.95988194      -0.01796260       0.00374889      -0.00480005
S        6.78790582      11.99635600       2.07972006      -0.01188621       0.00490945      -0.00413211
S        7.85543319      10.66272715       1.00110228      -0.01372360       0.00380328      -0.00477856
O        8.93477706      13.43048072       3.64103877       0.00594506       0.01009563      -0.00992484
O        6.34183099       8.11733012       1.11333061      -0.01270378       0.00041859      -0.00853312
O        8.44017301      11.06969622       4.24386539      -0.01851502       0.01082987      -0.00559410
O        6.81581848      12.76683838       4.75551512      -0.00445712       0.00874239      -0.00903188
O        8.63835319       8.06670288       2.01634278      -0.01404142       0.00326192      -0.00117385
O        6.79714926       9.07082670       3.28365751      -0.02000733       0.00399761      -0.00896615
S        2.64882931       7.10695402      10.66824253       0.00250304       0.00294554       0.00512552
S        2.50950622      11.42223607       9.70894604       0.00264755       0.00150883      -0.00266403
S        1.30824952       8.41275874       9.44871651       0.00336886      -0.00052125       0.00047269
S        1.08159997      10.06257691      10.54437773       0.00118539       0.00198674      -0.00364736
O        2.94797299       7.87017797      11.86185136      -0.00082642       0.00538307       0.00382423
O        1.85999129      12.45252404       8.95270432       0.00547686      -0.00193268      -0.00609991
O        3.74873713       6.85295374       9.76775006       0.00437284       0.00146931       0.00796127
O        1.78017048       5.94628615      10.87041170       0.00267446       0.00230205       0.00591531
O        3.01849403      12.11084373      11.03825732       0.00034308       0.00240499      -0.00307050
O        3.58301024      10.68294687       9.10268320       0.00497204      -0.00154579       0.00119197
O        3.83970772       0.98331605       2.26615890      -0.01623785       0.00136614       0.00508353
O        4.10460434      -0.19632506       4.13936823      -0.00922360       0.00017744       0.00195985
C        2.50957752       1.60485365       4.09694080      -0.00564322       0.00204760       0.01268305
C        3.54795016       0.71324924       3.52836232      -0.00924673      -0.00066261       0.00657961
H        1.69537194       1.73207386       3.38327662      -0.00580943       0.01054240       0.01470339
H        2.13774723       1.22092274       5.04161409      -0.00607478      -0.00197597       0.01087204
H        2.95884999       2.58812315       4.26520709      -0.00033414      -0.00143072       0.01867098
H        4.57534637       0.40837397       1.97786996      -0.01795614       0.00001478       0.00108467
O        8.05483110       4.38920173       4.54934906       0.00446764      -0.00458841       0.00204068
O        6.33121570       5.59898616       3.81325289       0.01284856      -0.00035226      -0.00672776
C        7.57282520       4.24727040       2.25880031       0.00999057      -0.00657839      -0.00007284
C        7.24789244       4.80845707       3.61011603       0.00701487      -0.00204241      -0.00131738
H        8.44469262       4.78988212       1.88617578       0.00235432       0.00245997      -0.00486226
H        7.84251749       3.19535985       2.33711209       0.02041419      -0.00328605       0.00235352
H        6.74450236       4.39601973       1.57172025       0.00577477      -0.01654294       0.00276239
H        7.89006479       4.87094044       5.40561687       0.00352275      -0.00058019       0.00020447
O       10.47197191       2.06715567      12.67088138       0.00048622      -0.00056899       0.00341564
O        8.82926631       0.85136996      11.77116933       0.00580682       0.00009309      -0.00602968
C        9.37970456       2.93888567      10.77141191       0.00316496       0.00516784       0.00379440
C        9.53582240       1.87679341      11.79515744       0.00153427       0.00005098      -0.00113185
H        9.78337887       3.90094954      11.07339570       0.00015342       0.00451243       0.00930406
H        9.94117192       2.61426727       9.88857374       0.00625806       0.00998159       0.00390610
H        8.33365347       3.04721183      10.47673885       0.00394383       0.00311771       0.00050512
H       10.63726963       1.30079883      13.28681788      -0.00008957      -0.00160307       0.00063092
O       10.07439744       6.39652823       3.59140131      -0.00444078      -0.01535690      -0.03446260
O       12.27626640       6.53196944       4.00363754      -0.01437700      -0.00441265      -0.00455642
C       11.27432953       4.39229911       3.51140311       0.00566624      -0.00973165      -0.00583518
C       11.29956949       5.86855103       3.74622165      -0.00015813      -0.00445861      -0.01277444
H       10.37484751       3.94981994       3.93439954       0.00751367      -0.01236220      -0.00504126
H       11.25452162       4.21878855       2.43209107       0.00844961      -0.01568541      -0.00480916
H       12.15846452       3.92818658       3.93505216       0.00738631      -0.00190155      -0.00093271
H       10.13785762       7.36146769       3.62884410      -0.01127568      -0.01411557      -0.03675716
O        4.30901885       5.22873328       2.28172628       0.00915211       0.00559101      -0.00172621
O        3.37238912       6.84388728       3.46021019       0.00912702      -0.00628555       0.01399457
C        2.03982009       5.66326352       1.82394507       0.00753528       0.00695917       0.00677663
C        3.27832659       5.98223691       2.58750038       0.00902912       0.00179780       0.00709122
H        2.27772800       5.26294836       0.84276366       0.00528804       0.00804891       0.00588292
H        1.49180881       4.90607168       2.38881811       0.00488056       0.00832395       0.00605035
H        1.39921203       6.53531443       1.73048597       0.01059122       0.00954254       0.00910214
H        5.09626322       5.46472272       2.88581796       0.01124017       0.00254872      -0.00255245
O        6.59636695      10.77106503       8.99935206       0.00232756      -0.00787464      -0.00137946
O        6.29263472      10.36499118       6.84778850       0.00294218      -0.00100747      -0.00200844
C        5.91901068       8.57177651       8.37579917      -0.00143337      -0.00506306      -0.00785862
C        6.30077355       9.96853739       8.05629095       0.00147277      -0.00488846      -0.00405711
H        6.35717135       8.24362066       9.31316484       0.00066926      -0.00953984      -0.01062733
H        4.83460806       8.56007801       8.50951267      -0.00115466      -0.00257486      -0.00483242
H        6.18334682       7.89447495       7.56758612      -0.00540391      -0.00294623      -0.01085886
H        3.50726393      11.42094485      11.70980423       0.00001792       0.00260371       0.00146906
O        4.18040620       9.29011298       2.05522654      -0.02518776      -0.01298197      -0.01384717
O        4.19853040      10.65058146       0.30404119      -0.00669488       0.00430737      -0.00060738
C        2.15984914      10.35961216       1.56811762      -0.01272053       0.01166556      -0.00848007
C        3.58427295      10.11958678       1.23940854      -0.01410841       0.00004036      -0.00677586
H        1.62048318       9.44000143       1.32942226      -0.02366756       0.02571797      -0.03454103
H        2.05292835      10.52665247       2.63963172      -0.01571706      -0.01373921      -0.00542974
H        1.74048441      11.18385092       1.00055813       0.00168184       0.03106824       0.01003030
H        4.99032772       8.87759081       1.62509610      -0.02264452      -0.00874588      -0.01129177
O        3.72789249       2.40972178      11.14724309       0.00398308      -0.00142205      -0.00048805
O        5.86487025       1.80898400      10.96462415       0.00259409      -0.00554089      -0.00246212
C        5.27022597       4.15398205      10.94687753       0.00732996      -0.00427443       0.00230613
C        4.98652010       2.70502573      11.02269841       0.00457349      -0.00418454      -0.00054570
H        4.72661348       4.56145864      10.08922809       0.00767183      -0.00188243       0.00319752
H        4.86234766       4.65119102      11.82910699       0.00826763      -0.00538538       0.00335836
H        6.33200490       4.35634181      10.84938383       0.00759935      -0.00590853       0.00239164
H        3.55652135       1.43570466      11.10991357       0.00158025      -0.00115287      -0.00316664
O        2.01023844       8.60792443       4.55542477       0.00124001      -0.00542265       0.00046363
O        3.99578743       9.39651082       5.19794501      -0.00138307      -0.00011439       0.00007621
C        2.00463181      10.39152224       6.08076970      -0.00277030      -0.00615788       0.00222820
C        2.74203044       9.41440862       5.23185894      -0.00063613      -0.00369817       0.00063144
H        1.14756731      10.79776945       5.54559882      -0.00658312      -0.01067462       0.00519146
H        1.62412754       9.85226152       6.95236903       0.00326796      -0.00742544       0.00421774
H        2.66092376      11.18074426       6.43212430      -0.00525558      -0.00289226      -0.00063850
H        2.54260212       7.86792461       4.03632267       0.00518209      -0.00615358       0.00326569
O       11.43729565       6.15350407      11.23778023       0.00368330       0.00408304       0.00475633
O       11.80660302       8.10398040      12.28704726       0.00255620       0.00595105       0.00161803
C        9.63965332       7.66426749      11.34229633       0.00230682       0.00234538       0.00429523
C       11.05997290       7.35142944      11.68963141       0.00302708       0.00449729       0.00340748
H        9.53237923       7.68213835      10.25654765       0.00160959       0.00169636       0.00411642
H        8.96958257       6.88841396      11.71106927       0.00364564       0.00156003       0.00534307
H        9.36642895       8.62378545      11.76733019       0.00119821       0.00213467       0.00404391
H       12.42534828       6.08177761      11.28349167       0.00380456       0.00443918       0.00443081
O       11.66535305      12.02412656       4.26912874      -0.00561446       0.00139832       0.00614834
O       11.46749083      12.74219194       2.16488033       0.00246395       0.00412875       0.00381619
C       11.34434999      10.37788400       2.61926924      -0.01085941       0.00278866       0.00557338
C       11.49441950      11.81983434       2.96253014      -0.00393376      -0.00118881       0.00709373
H       12.00889216       9.75537362       3.21882831      -0.01245993      -0.00047129       0.00441739
H       10.32121216      10.09038049       2.87127234      -0.01178175       0.00646751       0.00771625
H       11.50223522      10.19816017       1.56000404      -0.01290630       0.00163243       0.00538200
H       11.59061552      12.97523654       4.48774317      -0.00007091       0.00067908       0.00591074
O        7.47674513       1.46940641       8.13761402       0.00417417      -0.00357187       0.00535801
O        6.35776037       2.78683678       6.73533681       0.00756809       0.00360972       0.00846565
C        5.10096987       1.15132969       7.93585822       0.00435829      -0.00178194      -0.00040093
C        6.35965373       1.88620992       7.54884259       0.00553995      -0.00189292       0.00595942
H        4.84683717       0.45085818       7.13513812       0.00074031       0.00785942      -0.00766680
H        5.18550834       0.54605020       8.84861751       0.00421593      -0.01224361      -0.00737788
H        4.28443760       1.86554169       8.04428162       0.00606595      -0.00109383       0.00773290
H        8.74486689       2.33934416       7.25820175       0.00538513       0.00518005       0.00505984
O        4.16775428       4.15603331       5.88718942       0.00889170       0.00112030       0.00762266
O        3.70414766       4.00793946       8.07500814       0.00399712      -0.00168669       0.00645864
C        2.49366728       5.59416919       6.73888342       0.00684655      -0.00007927       0.00593984
C        3.49457811       4.51202591       6.99183489       0.00646508      -0.00029743       0.00684023
H        3.04003361       6.52532263       6.57864026       0.00692512      -0.00014699       0.00534325
H        1.91230242       5.40677745       5.83630019       0.00712185      -0.00073346       0.00581987
H        1.84844363       5.70280939       7.60403382       0.00643713       0.00040348       0.00558065
H        4.92991692       3.58954645       6.16949863       0.00862155       0.00120324       0.00824267
O        9.01084555      11.67493839       7.03456846       0.00709265       0.00982296      -0.00315702
O        9.26720087      11.67710280       9.24769618       0.00093105      -0.00480990      -0.00210072
C       10.78956924      10.40946416       7.89765806      -0.00035930      -0.00298801      -0.00583127
C        9.64537863      11.31209865       8.12272897       0.00283326       0.00018322      -0.00451943
H       11.15225924      10.50335919       6.87831738       0.00066656      -0.00163738      -0.00537059
H       11.56782691      10.62910022       8.62363701      -0.00001325      -0.00745936      -0.00478736
H       10.44139296       9.38335902       8.05893245      -0.00352120      -0.00232750      -0.00799425
H        8.28147718      12.29174546       7.26346346       0.00982994       0.01218829      -0.00029251
