148
Lattice="13.152436357204524 0.0 0.0 0.0 13.152436357204524 0.0 0.0 0.0 13.152436357204524" Properties=species:S:1:pos:R:3:forces:R:3 energy=-856176.25 stress="-0.0009682292584329844 0.0003460636507952586 0.0006442399462684989 0.0003460636507952586 -0.0003861620498355478 -3.163341716572177e-05 0.0006442399462684989 -3.163341716572177e-05 -0.0015255108010023832" pbc="T T T"
Sm      10.63882803      12.53762004       1.21213138      -0.00782511      -0.00482655      -0.00282192
Sm       5.49890762      11.79314192       1.71107022       0.00669309      -0.00897419       0.00420797
S        9.00259981      11.56061988      12.28175394      -0.00257619      -0.00410137      -0.00242740
S        7.42820122      12.24655016      13.40574863       0.00213152       0.00406477      -0.00019795
S       13.16250047      13.80378279       0.31273279      -0.01389623       0.02543988      -0.00479329
S       11.77236993      13.26486656      -1.10439697      -0.02407674       0.02994459       0.00186402
S       12.59318167      12.21184333       3.20759429      -0.00943604      -0.00171296      -0.02274787
S       13.51493662      12.00652981       1.38874094       0.00456082       0.02284881      -0.01968926
S       10.27365103       2.38835789       3.38843730       0.00198927      -0.00119188      -0.00237957
O       10.09354886       1.30361288       2.33675240      -0.00230613      -0.00211447       0.00029254
C       11.81240699       3.22342328       2.99675888       0.00313482      -0.00645120      -0.00423078
C       10.81521947       1.59478069       4.90140065       0.00427596       0.00080574      -0.00199643
H       11.60814003       3.95468382       2.21852282       0.01222134      -0.03572710      -0.03166731
H       12.51120140       2.46351171       2.64924305       0.01421562      -0.01118511       0.03381684
H       12.17729668       3.71602842       3.89604671      -0.01768841       0.02728363      -0.01592439
H       11.03180608       2.38651885       5.61926207      -0.00002084      -0.00010712       0.00006105
H       11.69197080       0.97952699       4.69622986       0.00729871       0.00528461      -0.00228511
H        9.99097502       0.98887387       5.27166882       0.00739503      -0.00441564      -0.00456786
S        8.71752999      11.45176353       4.15464103      -0.01414239      -0.00524254       0.00106204
O        9.48449366      11.50777864       2.84969251      -0.00892374       0.00183501       0.00502414
C        7.66172028      10.03676390       4.01362083      -0.01588619      -0.00303707      -0.00975270
C        7.40348066      12.71216088       3.98433377      -0.01189646      -0.00254625       0.00416438
H        8.28112581       9.14010420       4.05072264      -0.01718259      -0.00371994      -0.01234010
H        7.17785610      10.06595928       3.02754308      -0.01351939       0.00000359      -0.01076457
H        6.96462141      10.09173879       4.85147843      -0.01689606      -0.00567611      -0.01037626
H        6.47364454      12.35463956       4.44283070      -0.01511471      -0.00513598      -0.00442540
H        7.34598566      12.92307016       2.90371378      -0.00590129       0.00843927       0.00630088
H        7.71377185      13.63547589       4.47054538      -0.01484890      -0.00746059       0.01479393
S        3.44103485       1.47147498       1.17480476      -0.00241032      -0.01509690       0.01067039
O        4.61878302       0.66326664       1.81284515      -0.00470179      -0.01510182       0.01517746
C        4.04100389       3.10057787       0.79553209       0.00656164      -0.02303860      -0.01040685
C        2.40962821       1.87581202       2.57076452       0.00397390       0.00950284       0.00785893
H        4.91465186       3.01446215       0.14910222       0.00694036      -0.03363787      -0.00804703
H        4.26073609       3.63468553       1.72299911       0.00960122      -0.01356884      -0.01732427
H        3.23306791       3.59591432       0.24522020       0.00985870      -0.02731758      -0.01852333
H        1.62925006       2.53405384       2.19068407       0.01168546       0.01482008       0.00156771
H        3.01607276       2.39601816       3.31161339       0.01040152       0.01123950       0.00101696
H        1.96477021       0.95391686       2.94553598      -0.00603878       0.01888198       0.01795145
S        5.60381817       4.96832264       4.04995680       0.00400090      -0.00870562      -0.00557113
O        4.27061611       4.41274951       3.64406140       0.00806236      -0.01218909      -0.01497352
C        6.07315739       6.33025982       2.96913790       0.00415415      -0.00908425      -0.00410944
C        6.84930004       3.82281691       3.41691395       0.01084122      -0.00478658       0.00352001
H        5.37239125       7.13895114       3.15486502      -0.00124536      -0.01225888      -0.01016644
H        5.99889950       6.01780891       1.92651437       0.01354850      -0.01150410      -0.00401217
H        7.09255383       6.61849080       3.23114810       0.00106032      -0.00339464       0.00152670
H        7.83198819       4.22258353       3.66220273       0.00792771       0.00116113       0.00548061
H        6.72916009       3.71664775       2.33637594       0.01562461      -0.00880248       0.00342207
H        6.69491168       2.86490403       3.91220537       0.01469257      -0.00423460       0.00560647
S        7.95105518       3.42644626      11.62816461      -0.00888956       0.00894428       0.01240051
O        6.74759365       3.83923612      12.42106616      -0.00325358       0.01106605       0.01967233
C        7.59840505       1.79276752      10.94974216      -0.01785862       0.01171714       0.01001339
C        9.16680926       2.85553476      12.82678539      -0.00595674       0.00323197       0.00564289
H        6.82275013       1.91353724      10.19666398      -0.01834604       0.01606425       0.01131679
H        7.24368091       1.14573898      11.75140026      -0.01910127       0.01150952       0.00922552
H        8.50458631       1.37630931      10.50750308      -0.02056621       0.00820637       0.00818588
H       10.01759182       2.39614623      12.32011286      -0.00794058       0.00488010       0.00092322
H        8.67779938       2.13573462      13.48410582      -0.00321509       0.00016564       0.00381552
H        9.49016750       3.72889107      13.39211862      -0.00437503       0.00093889       0.00841920
S        9.86886829       7.19205797       6.03059677      -0.00301376       0.00189675      -0.00551593
O        9.13015825       7.26093401       4.72005443      -0.00220037       0.00461390      -0.00571656
C       11.00335912       8.59396904       6.06224818      -0.00227928       0.00063801      -0.00215368
C       11.11021145       5.89500554       5.84208854      -0.00350845       0.00199434      -0.00693098
H       10.40393955       9.48412995       6.24509780      -0.00242907       0.00137959      -0.00764430
H       11.49787389       8.66880532       5.09251898       0.00380754      -0.00185978       0.00083372
H       11.70123186       8.45126637       6.88399017      -0.00715141       0.00097381       0.00200954
H       11.72193208       5.87591384       6.74228239      -0.00436411       0.00037432      -0.00644356
H       11.69987185       6.09121714       4.94617670      -0.00235175       0.00416725      -0.00575303
H       10.55178852       4.96520244       5.73341863      -0.00324611       0.00245774      -0.00958443
S        2.33086277       7.72889134       3.63886605      -0.01507318       0.01247230       0.01039135
O        3.28514806       7.34690815       2.56278507       0.01001197       0.02687821       0.02785254
C        0.68938823       7.15745016       3.13984797       0.00268722      -0.00370100      -0.02583122
C        1.98655160       9.48394383       3.39254917      -0.02422470       0.00919724       0.00922507
H        0.69631131       6.07099369       3.20595125       0.01165349      -0.00351453      -0.02486727
H        0.49949372       7.48690631       2.11918461       0.02341699      -0.00665500      -0.03004740
H       -0.04097716       7.57418564       3.83422069      -0.01781406      -0.01115248      -0.04405757
H        1.22076070       9.84479219       4.07734237      -0.03486397       0.00149631       0.00062346
H        1.69169396       9.60907737       2.34993977      -0.01202916       0.01018694       0.00623181
H        2.92332198      10.01119775       3.58898210      -0.03121512       0.01599511       0.02202195
S        4.77801356      11.30802155       9.38669990       0.01808927       0.00771630      -0.00259900
O        4.27458035      11.90703836      10.66081659       0.02793822       0.01364917      -0.00327432
C        5.72287008       9.83264535       9.84815289       0.01831308       0.00846887      -0.00143978
C        6.21185002      12.29100699       8.91928115       0.01701880       0.00233051      -0.01809514
H        5.01507549       9.04208596      10.09422701       0.01767626       0.01243742       0.00934615
H        6.34224793      10.08086734      10.71232954       0.02561910       0.01221237      -0.00790897
H        6.34698743       9.53445870       9.00755956       0.00987134       0.00073767      -0.00444412
H        6.66857056      11.84930503       8.03619679       0.00921702      -0.00290325      -0.01920608
H        6.90000584      12.32047207       9.76564023       0.02325512       0.00470373      -0.02343430
H        5.83646870      13.28749155       8.69273684       0.01780955       0.00195481      -0.02025218
S        3.41370193       9.63625944      -0.40710706      -0.00004792       0.00251889       0.00060320
O        2.17888157       9.06850675       0.17844182      -0.00656223       0.01806924       0.00896186
C        4.82544943       9.23993534       0.70382862      -0.00507170      -0.00490013       0.00199965
C        3.38019167      11.40173785       0.02596413       0.01437590       0.00320697      -0.00861933
H        4.97305967       8.16285293       0.68575427      -0.01064337      -0.00541776       0.00383997
H        4.56386596       9.48519060       1.75171674      -0.00562945      -0.00333001       0.00123179
H        5.75252688       9.71566643       0.33900314      -0.00113070      -0.01169547       0.00363797
H        4.28137507      11.91181740      -0.35521787       0.02213152      -0.00783072      -0.00410734
H        3.16437894      11.48738035       1.10969026       0.00829831       0.00981878      -0.01097138
H        2.55024512      11.85230487      -0.51482082       0.02406475       0.01070268      -0.01645206
S        4.71414813       9.19350058       5.73013888      -0.00799358      -0.00105077       0.00715017
O        5.37261844      10.50244697       6.09997823      -0.00050926      -0.00499749       0.00600961
C        3.28849721       9.00173069       6.80874828      -0.00294372       0.00238230       0.01412386
C        5.71579097       7.87170778       6.42504138      -0.00873497      -0.00621614      -0.00114533
H        2.59153223       9.79758029       6.55418530       0.00025809       0.00729255       0.02092716
H        3.60246616       9.08923354       7.84767289       0.00248754      -0.00389804       0.01287290
H        2.83611412       8.03275925       6.60215001      -0.00960084       0.00618912       0.01205906
H        5.20912584       6.92388222       6.24500728      -0.01104771      -0.00433566      -0.00364697
H        5.85733311       8.02840678       7.49239416      -0.00432462      -0.01064248      -0.00104803
H        6.67386043       7.86218170       5.90480114      -0.01070145      -0.00541081      -0.00445652
S       10.20012480       6.36586478       9.40489673       0.01153457      -0.00740230       0.00455835
O       11.36704887       7.05150422       8.74917379       0.00768220      -0.00697488      -0.00201172
C        8.94738561       7.62173729       9.71654023       0.01117364      -0.00930327       0.00740068
C       10.68993821       6.09616870      11.11713960       0.01894566      -0.00362085       0.00275314
H        8.64232514       7.98211122       8.73596106       0.00052512      -0.01680537       0.00828081
H        9.36246018       8.42723494      10.32265888       0.01494390      -0.00432633      -0.00186418
H        8.09248358       7.14537918      10.19417271       0.01751724      -0.00797787       0.01901411
H        9.80578473       5.82005312      11.69028116       0.02241987      -0.00856191       0.00556232
H       11.12868511       7.02152839      11.49146680       0.01549866      -0.00161588       0.00167755
H       11.42467084       5.29292654      11.13197990       0.02266991      -0.00001374      -0.00034912
S        9.33786973       8.13781706       0.60770356      -0.00979531       0.00619978      -0.00506413
O        8.20360908       8.76713460       1.35059006      -0.01449704       0.00294083      -0.01043713
C        9.74807333       6.61907847       1.51286517      -0.01566538       0.00298363      -0.00831646
C       10.88172097       8.99748725       1.03435732      -0.01383448       0.00628038       0.00848424
H        8.90272325       5.94291604       1.38800252      -0.01465024       0.00375322      -0.01746211
H        9.87819508       6.86097250       2.56977241      -0.02287868      -0.00155845      -0.00646466
H       10.64778533       6.18297742       1.07604247      -0.01282357       0.00447336      -0.00332425
H       11.71979033       8.40522139       0.66418042      -0.00978043       0.00968866       0.01428074
H       10.94300801       9.13811991       2.11397188      -0.02257589       0.00527353       0.00884020
H       10.87165052       9.95072715       0.49860474      -0.01153261       0.00606509       0.00859562
S        7.19843123       4.61292357       7.19323349       0.00301090       0.00413036       0.01110959
O        6.94920342       5.56965154       8.31417155       0.00402752      -0.00423968       0.01797771
C        5.79229987       3.47344099       7.19217477       0.00554991       0.00179407       0.00704265
C        8.42419533       3.41603063       7.76867053       0.00652707       0.00221959      -0.00018269
H        4.92945699       4.02321998       6.82035748       0.00318234       0.00258407       0.01404282
H        5.62087740       3.14071474       8.21689061       0.00945572      -0.00693104       0.00466716
H        5.98847718       2.62648535       6.53493685       0.00575333       0.00802754      -0.00022762
H        8.52656950       2.62498755       7.02503888       0.00568661       0.00794064      -0.00604617
H        8.11353048       3.00854641       8.72707083       0.00927983      -0.00475027      -0.00233427
H        9.36294720       3.95239735       7.88786846       0.00573516       0.00297207       0.00104599
S        2.61676365       5.88562162      10.62358182       0.00247568      -0.01704228       0.01785350
O        1.89458188       5.00811271      11.59126651       0.00823128      -0.03377056       0.00669372
C        2.12175762       5.32748997       8.97326785      -0.00109169       0.00468233       0.01224595
C        4.30785741       5.27295755      10.54578661       0.00417948      -0.00931779       0.00547992
H        1.08687313       5.63434202       8.82888798      -0.00118436       0.00653011       0.01793493
H        2.20465432       4.24036346       8.94267009      -0.00116386       0.00517954      -0.00139894
H        2.75925075       5.78744202       8.21760217      -0.00267445       0.01417849       0.01700290
H        4.85918564       5.71958104       9.71708966      -0.00081371       0.00048245       0.00782388
H        4.26871715       4.18744156      10.44429160       0.00718086      -0.00840461      -0.00525478
H        4.79440415       5.52223946      11.48661336       0.00766512      -0.01729441       0.00558381
