144
Lattice="12.86686082917575 0.0 0.0 0.0 12.86686082917575 0.0 0.0 0.0 12.86686082917575" Properties=species:S:1:pos:R:3:forces:R:3 energy=-869937.8125 stress="0.00023311504628509283 -0.0001617117304704152 -0.0007821251347195357 -0.0001617117304704152 -0.0014211138477548957 -0.0005536396347451955 -0.0007821251347195357 -0.0005536396347451955 -0.0013317823177203536" pbc="T T T"
Tb       9.21445028      12.29633017      11.14542529      -0.00175473       0.00170718      -0.00273669
Tb       7.98199063      12.33124322       6.49889003      -0.00855148      -0.00096321      -0.00681311
O        5.79735557      12.53930717       6.71280116      -0.00417334       0.03127182       0.02887416
O        6.94017101      13.68750765       5.18776894      -0.01533532      -0.00456035      -0.00585818
O        4.69909167      13.93052489       5.32260110       0.00899959       0.02614170       0.04158580
C        5.73044583      13.41493948       5.71393121      -0.02908164       0.03193040       0.01184702
O        8.41206041      10.68547760      12.51774429      -0.01104629      -0.00501287      -0.01259512
O        6.22024001      10.57297914      12.99248321      -0.01159620       0.00748992      -0.01310873
O        7.08371769      12.35734174      11.93906805      -0.00065339       0.00603652      -0.00513357
C        7.19030684      11.17948395      12.52423292      -0.00776669       0.00260274      -0.01038279
O       10.44073201      13.00498994      -0.01740410      -0.01653063      -0.00673604       0.01239157
O       12.24928874      11.79462857       0.53313028      -0.00481343       0.00883257       0.00464475
O       11.31953692      11.62051560      -1.51177944       0.00094366       0.01534021       0.00223970
C       11.40083236      12.12966104      -0.28614385      -0.00637233       0.00593936       0.00732389
S       10.70442460       2.00465876       2.41329045       0.00875950       0.00448823      -0.00098747
O       10.32901820       3.24937912       1.66736541       0.01011264       0.00465298      -0.00087672
C        9.15999725       1.15519942       2.78088349       0.00832146       0.00410493      -0.00359359
C       10.99869956       2.54790361       4.11500923       0.00752706       0.00328004      -0.00049281
H        8.82813309       0.69998671       1.84941136       0.01293364       0.00193223      -0.00403485
H        8.43539191       1.87055842       3.16954292       0.00655621       0.00434124      -0.00784928
H        9.35028408       0.38045233       3.52656072       0.00729582       0.00591618      -0.00150649
H       11.19330058       1.66389035       4.72579269       0.01187806       0.00356674      -0.00173962
H       10.11586057       3.08920392       4.46315540       0.00564997      -0.00090180       0.00098723
H       11.87796428       3.19196184       4.08994805       0.00474975       0.00686967      -0.00018770
S        8.42057282      10.01312476       3.79525621      -0.01067910       0.00148511      -0.01632696
O        8.79928609      10.96704142       4.94923604      -0.01846609      -0.00343964      -0.00946200
C        9.63533563      10.31519186       2.52838655      -0.00462660       0.00959845      -0.00827017
C        6.96370681      10.74516978       3.11385689      -0.00817400       0.00175107      -0.02038017
H       10.55443049       9.81738363       2.82929913      -0.00275281       0.01869419       0.00016114
H        9.80831968      11.37988229       2.39674192      -0.01340145       0.01061654      -0.01096126
H        9.25014423       9.91298917       1.58913735       0.00573711       0.00318769      -0.00962730
H        6.72069329      10.28720429       2.14987516      -0.00306558       0.00473272      -0.02323863
H        7.13369049      11.81454531       2.98933943      -0.00911564       0.00222215      -0.01622992
H        6.15173485      10.57756045       3.82271016      -0.01156233      -0.00105686      -0.02491939
S        4.02016757       3.42794793      10.18092864      -0.00414622      -0.01118201      -0.00597119
O        5.03392142       4.08556598       9.30577153      -0.00617957      -0.00239724      -0.00167906
C        3.90781481       1.71242983       9.64006573      -0.00006311      -0.00773114      -0.01660132
C        2.39741220       3.96919902       9.59075921      -0.00585997      -0.01092362      -0.00100955
H        4.83323358       1.23090897       9.95207868       0.00161025      -0.00695045      -0.02040031
H        3.81586286       1.67822310       8.55401924      -0.00034010      -0.00257530      -0.01677716
H        3.06516330       1.23243208      10.13814552       0.00178225      -0.01279418      -0.01848795
H        1.61380975       3.49397988      10.18146133      -0.00408451      -0.01292296      -0.00023276
H        2.29717944       3.73584298       8.53041707      -0.00879052      -0.00781035      -0.00125620
H        2.36502100       5.04640506       9.74746856      -0.00617028      -0.01151076       0.00231654
S        2.52823041       3.12524144       3.71384073       0.01100409      -0.00228691       0.00708747
O        1.71186073       4.07427581       2.88767827       0.00734138      -0.00085425       0.01001096
C        4.22214891       3.25395966       3.13618493       0.00708377      -0.00550154      -0.00442442
C        2.23629306       1.46615272       3.08459879       0.00329372      -0.00149280       0.00917616
H        4.54819615       4.26574258       3.35998202       0.00940303      -0.00530270      -0.01078724
H        4.24544577       3.09715510       2.05768668       0.00057893      -0.01088387      -0.00348893
H        4.82185489       2.52189447       3.68096147       0.00969694      -0.00344023      -0.00365239
H        2.91502564       0.77799049       3.59139470       0.00459749      -0.00344556       0.00495400
H        2.39989201       1.47277219       2.00681839      -0.00344892      -0.00143104       0.00817569
H        1.19926271       1.21065001       3.29200045       0.00429632       0.00065151       0.01553641
S        7.46515365       4.93446723       3.18939567       0.00725079      -0.00407873       0.00642610
O        8.09583274       4.53022136       4.49200204       0.00870508      -0.00166664       0.00675130
C        8.68789880       5.91626822       2.31165051       0.00385660      -0.00002813       0.00674859
C        6.36619252       6.32159866       3.53631979       0.00285745      -0.00848156       0.00725785
H        9.51045967       5.24547176       2.06670082       0.00500342       0.00247996       0.00428935
H        9.00812621       6.73477043       2.95674123       0.00235036      -0.00066342       0.00806773
H        8.20648632       6.29980668       1.41542079       0.00167798       0.00073318       0.00821639
H        6.01025814       6.69347518       2.57647123      -0.00357117      -0.01300765       0.00786451
H        6.90509616       7.08367786       4.09584037       0.00185990      -0.00421438       0.00212505
H        5.53058370       5.96612312       4.13205588       0.00781701      -0.01086443       0.01252380
S       10.20518719       0.96805220       8.31458878      -0.01483648      -0.00770566      -0.00233006
O       10.25149026      -0.06686671       7.18747603      -0.01254267       0.00157651      -0.01073629
C        8.78719432       1.98241728       7.87295541      -0.01271436      -0.00271678       0.00244393
C       11.50585099       2.13988748       7.94389800      -0.01058850      -0.00816131       0.01418397
H        7.89218964       1.43419841       8.18295887      -0.01433568      -0.00623146      -0.00903608
H        8.82385869       2.16034845       6.79120920      -0.00750299       0.01076877       0.00517306
H        8.78428945       2.91760347       8.42694492      -0.01571781      -0.01079249       0.01597592
H       11.45587886       2.94939167       8.67094272      -0.00528957      -0.02011053       0.02768540
H       11.37361674       2.51211544       6.92854207      -0.00865608       0.00891985       0.02031934
H       12.45035417       1.61036282       8.03862256      -0.01419695      -0.01583137       0.00550249
S        8.53587667       2.41143332      12.09179253       0.00158453       0.00690168       0.00278711
O        8.82773883       1.72105417      10.74655115       0.00879907       0.00392717       0.00556719
C        6.80938008       2.83090144      12.00016081       0.00119960       0.00326547      -0.00500245
C        9.26748604       4.02305769      11.88582244      -0.00243433       0.00824356       0.00145205
H        6.29066170       1.87389624      12.06737573       0.00241060       0.00270647      -0.00595670
H        6.60811372       3.34091641      11.05731982       0.00314358       0.00224914      -0.00581062
H        6.55364188       3.48013840      12.83732512      -0.00234677       0.00359511      -0.00628263
H        8.98402359       4.63298257      12.73804615      -0.00438959       0.00737712       0.00145954
H        8.91734377       4.45597782      10.94810684      -0.00388797       0.00754232       0.00181894
H       10.34573002       3.87448597      11.89665141      -0.00207146       0.01163660       0.00124167
S        9.17858981       7.00517461       6.03235916       0.01859426       0.00705636       0.00861311
O        9.66099271       8.19187177       6.81219683       0.03272903      -0.00134933       0.01255703
C        8.67113662       5.74893963       7.22125926       0.00991939       0.00840789       0.00582904
C       10.67457900       6.18917931       5.45051247       0.00798237      -0.00556463       0.00014903
H        7.81138464       6.14432164       7.76110561       0.01814297       0.01776142       0.01188774
H        9.48955744       5.57410540       7.92110635       0.01207060      -0.00320496       0.00028220
H        8.39352243       4.86083549       6.65877436      -0.00321249       0.01349732       0.00444055
H       10.40140099       5.27701298       4.92744430      -0.00386328      -0.00323586       0.00247023
H       11.32117656       6.00140837       6.30826927       0.01025367      -0.01121958      -0.00301221
H       11.15817338       6.88586119       4.76837922       0.01087034      -0.01058088      -0.00283322
S        4.72699823       6.27910588      -0.44003076       0.00769663      -0.00040227       0.00229228
O        5.84868669       5.65475921       0.34258939       0.01039922       0.00484759       0.00264108
C        4.69859468       8.00125609       0.03671233       0.00359545       0.00071609      -0.00233358
C        3.19157604       5.79233016       0.37254041       0.01047856      -0.00267686       0.00570375
H        5.59895933       8.49184221      -0.32782424       0.00181922       0.00191207      -0.00474991
H        4.67396938       8.06365251       1.12415653       0.00440384       0.00423811      -0.00255829
H        3.82309063       8.49759223      -0.37987255       0.00233307      -0.00273215      -0.00356773
H        2.36685991       6.34113023      -0.08354084       0.00849425      -0.00571740       0.00589801
H        3.24359074       6.00023227       1.44038517       0.01172049      -0.00016782       0.00507551
H        3.05013324       4.72463327       0.22122386       0.01282139      -0.00316472       0.00801533
S        7.36855416      10.72085966       9.32152494      -0.00106584      -0.00217503      -0.00632796
O        7.84733767      12.15942139       8.93752234       0.00673385      -0.00460488      -0.00500280
C        7.36744112       9.89556117       7.73552279       0.00168282      -0.00220948      -0.00669104
C        5.62032388      10.80340212       9.64209039      -0.00130701       0.01133255      -0.01337322
H        8.39389349       9.91556546       7.34839315       0.00272737      -0.00216074      -0.00413361
H        6.60769868      10.35198377       7.08359072       0.00306217      -0.00296703      -0.00887992
H        7.13578937       8.84758290       7.89786817      -0.00080866      -0.00203171      -0.00695644
H        5.30104316       9.76776085       9.76983030      -0.01206890       0.01460414      -0.01550652
H        5.13814789      11.29091554       8.79411129       0.00664312       0.01825023      -0.01373842
H        5.51064564      11.34750780      10.57932323       0.00070136       0.01107305      -0.01303005
S        3.02289605      10.05971023       2.56966877      -0.00021136       0.01302171       0.00941896
O        3.86710241      10.90123539       3.46255460      -0.01851749       0.02146816       0.01817942
C        1.48374678      10.93552735       2.33616671      -0.00815874      -0.00480813      -0.00592997
C        2.35800159       8.72746104       3.60150048       0.00356516       0.00535965       0.00160426
H        1.67848638      11.79326095       1.69907167      -0.01437663      -0.00375098      -0.00621106
H        1.12376376      11.26406244       3.31216190      -0.02092147      -0.00707365      -0.01004118
H        0.74804645      10.32548141       1.81657991       0.00344086      -0.01525641      -0.00972009
H        1.68583571       8.09871689       3.01683377       0.01334862       0.00109101      -0.00479640
H        1.83497148       9.17690868       4.44595569      -0.00720068      -0.00056936      -0.00199771
H        3.21266932       8.15259588       3.95637000       0.00561778       0.01194981       0.00707624
S        4.67265916       7.73719586       7.10790533       0.00546019      -0.00891221      -0.00562513
O        5.15722672       8.31129379       5.81785309       0.00426036      -0.01306885      -0.00844002
C        4.26800692       6.01272638       6.80379947       0.00351542      -0.00860083      -0.00075190
C        2.98145682       8.33472978       7.34380372       0.00708592      -0.00572573      -0.00559842
H        5.19367889       5.52961493       6.49676959       0.00313495      -0.01148932       0.00326310
H        3.51503495       5.94079375       6.01758714       0.00540690      -0.00918663      -0.00240986
H        3.95034549       5.54632711       7.73424467       0.00033898      -0.00543771      -0.00038132
H        2.55752284       7.87957666       8.23814943       0.00816672      -0.00189803      -0.00326581
H        2.38782760       8.08946061       6.46494106       0.00553402      -0.00856113      -0.00363727
H        3.04331483       9.41458445       7.46439032       0.00848269      -0.00543663      -0.00987510
S        9.06725122       7.45424734      10.25959793       0.00138938      -0.00167274       0.00445959
O        7.69499391       7.83304092       9.77791151       0.00301659      -0.00312048      -0.00210655
C        9.01642400       7.65907608      12.03916614      -0.00980054      -0.01212075       0.00543869
C       10.19740023       8.81188624       9.89901101      -0.00123593       0.00373894       0.01768686
H        8.23100909       6.98652851      12.37910811      -0.01054710      -0.01551332      -0.00300876
H        8.76619050       8.70064081      12.27145292      -0.01228770      -0.01376733       0.00935894
H        9.97890423       7.36731111      12.46198556      -0.01189803      -0.01386979       0.00900510
H       11.18223605       8.55981825      10.29098213      -0.00183053       0.00366416       0.01907245
H        9.84242411       9.71731481      10.39313443      -0.00605987      -0.00031316       0.02168623
H       10.23624148       8.89625019       8.81446344       0.00274729       0.00968208       0.01843171
