150
Lattice="10.873784517060955 0.0 0.0 0.0 10.873784517060955 0.0 0.0 0.0 10.873784517060955" Properties=species:S:1:pos:R:3:forces:R:3 energy=-61311.453125 stress="-0.0017265543574467301 0.00041017960757017136 -0.0005374043830670416 0.00041017960757017136 -0.0009750780882313848 -0.0006915893463883549 -0.0005374043830670416 -0.0006915893463883549 -0.0011208700016140938" pbc="T T T"
N        8.75081956       8.39971741       3.29575598      -0.00079305      -0.00263276      -0.00133905
C        9.56408462       9.42341267       4.05083432      -0.00397736       0.00020647      -0.00189371
C        7.26726732       8.61648453       3.51515234      -0.00112504      -0.00589189      -0.00276922
C        9.14202725       7.01764367       3.78211195      -0.00027576      -0.00163615       0.00022864
C        9.01427008       8.57130285       1.80709057       0.00113894      -0.00247660      -0.00100195
C        9.27111015       9.50611152       5.53740102       0.00122166      -0.00469774      -0.00091755
C        6.81384555      10.05068475       3.40567202      -0.00334263      -0.00666761       0.00078337
C        8.21428897       5.89291753       3.39320152       0.00177306      -0.00265476      -0.00190363
C       10.46278383       8.48560183       1.38042215       0.00138292      -0.00593725       0.00063563
H       10.60561378       9.16103781       3.88252181      -0.00285694       0.00791469      -0.00686293
H        9.40140347      10.37088130       3.54471539      -0.01189187       0.00007975       0.00031906
H        6.76500756       7.99347104       2.77657065       0.00066537      -0.00441343      -0.00498632
H        7.04655903       8.21093494       4.50171711      -0.00144143      -0.00881126      -0.00413293
H       10.14476760       6.83572087       3.39863790       0.00127622      -0.00086927       0.00438367
H        9.21160151       7.09310723       4.86653434      -0.00513731      -0.00141879       0.00053230
H        8.40230157       7.81283669       1.32124766      -0.00097005       0.00067681      -0.00255039
H        8.64188178       9.56127204       1.53846291       0.00497712      -0.00044167       0.00005277
H        9.67082644      10.45079324       5.90484927       0.00574660      -0.00739890       0.00072940
H        8.20664580       9.49633220       5.76371407       0.00218958      -0.00236703       0.00268456
H        9.76455192       8.72569991       6.11603524       0.00113529      -0.00822361      -0.00605707
H        5.72786221      10.04877558       3.45790587      -0.00372621      -0.00848456      -0.01089100
H        7.16796232      10.65325468       4.24013460      -0.01248115      -0.01180835       0.00847042
H        7.09533190      10.52856700       2.46304381       0.00482581      -0.00110286       0.00652590
H        8.67844881       4.95071990       3.67909027       0.00134379      -0.00245790      -0.00091353
H        7.25288116       5.94548061       3.90540609       0.00065045      -0.00261716      -0.00389946
H        8.03690484       5.83679875       2.32171562       0.00391587      -0.00283423      -0.00205237
H       10.46541584       8.55484207       0.29229718       0.00345914      -0.00582071       0.00066721
H       11.04143632       9.33518808       1.73908669       0.00297328      -0.00763258       0.00145747
H       10.95408721       7.54811593       1.64704771      -0.00086232      -0.00695302       0.00108586
N        4.98059493       6.44201406       7.05272921       0.00096879       0.00045632       0.00011440
C        4.46080004       6.91365249       5.71445075       0.00193551       0.00201095       0.00019026
C        4.13917148       7.00240606       8.18876525       0.00107795      -0.00066811       0.00011772
C        6.41009423       6.92675191       7.20534236       0.00095242       0.00022891       0.00083275
C        4.91855340       4.92450332       7.11955557       0.00210595       0.00060660      -0.00146323
C        4.34840278       8.41323282       5.57105598      -0.00016008       0.00198707       0.00398309
C        2.64009926       6.86464276       8.00797469       0.00183576      -0.00624362       0.00407008
C        7.15565144       6.36099737       8.38645290       0.00232545      -0.00509098      -0.00282720
C        5.70538475       4.20374794       6.04992138       0.00611375       0.00294966       0.00021264
H        5.13276996       6.50281623       4.96339802       0.00385405       0.00547776       0.00020973
H        3.49774703       6.42645242       5.57704284       0.00320482       0.00075328      -0.00352855
H        4.44918650       6.46481765       9.08181983       0.00427888       0.00296552       0.00086644
H        4.42533053       8.04832123       8.29938665      -0.00281177       0.00068882      -0.00267790
H        6.90923414       6.66329784       6.27202416      -0.00011522       0.00507689      -0.00065127
H        6.35416103       8.01236495       7.27274847       0.00134609      -0.00003058       0.00555866
H        5.28362919       4.65364137       8.10860374      -0.00010358       0.00025607      -0.00101137
H        3.86762900       4.64919901       7.06427980       0.00280020      -0.00105813      -0.00441856
H        4.03232448       8.60911202       4.54539228       0.00292613       0.00512961       0.00381917
H        3.60677550       8.84807935       6.23799587      -0.00315240      -0.00141813       0.00274940
H        5.28679285       8.93987059       5.73952564      -0.00177279       0.00360607       0.00784207
H        2.18653640       7.10143284       8.96968763       0.00279489       0.00257430       0.00221044
H        2.23643841       7.55447000       7.26688435      -0.00136770      -0.01498538      -0.00191152
H        2.32706478       5.85020985       7.76147367       0.00356293      -0.00932246       0.01521228
H        8.13997375       6.82804666       8.41558201       0.00134933      -0.00388362      -0.00014023
H        6.66603910       6.58623743       9.33339740       0.00248320      -0.01168332      -0.00156195
H        7.31551446       5.28556227       8.32424360       0.00376945      -0.00439247      -0.00882307
H        5.68823177       3.14474776       6.30192290       0.01054262       0.00286578      -0.00011410
H        5.27202263       4.31147280       5.05534098       0.00737302       0.00168988      -0.00029331
H        6.75812620       4.48047531       6.01717572       0.00482222       0.00737470       0.00226989
O        9.71861913       0.68994872       0.97674773      -0.00460887      -0.00232577       0.01005426
O        7.52597294       0.87062008       0.59704740      -0.00129247      -0.00346911       0.00422201
O        8.77144907       2.71582761       0.81056517       0.00353312      -0.00371265      -0.00651342
C        8.67494286       1.42604051       0.78673623       0.00705167      -0.00817833       0.00409453
N        5.28420867       2.60381890      10.76153477      -0.00864974       0.00190447       0.00442495
H        4.47811550       1.98976299      10.81517496       0.00302663       0.00606501       0.00338209
H        5.54751324       2.67966467       9.78205466      -0.00998897       0.00977458      -0.00900817
H        6.07611406       2.08486787      11.17654399       0.00419512       0.00447572      -0.00961255
N        3.01552656       4.85024712      -0.18936120      -0.00569236       0.00939256      -0.01223990
H        2.23353436       4.59885868      -0.79252828       0.00969302       0.00139675       0.00074422
H        2.69631344       4.70731308       0.76414946      -0.00922482       0.01033893       0.00378113
H        3.73802848       4.13865691      -0.31042083       0.00485920      -0.00010419       0.01072389
N        6.58936361       0.11009864       7.11393460       0.01666667      -0.00205192      -0.01013824
H        7.47916193       0.47169930       6.78736375       0.00808700       0.00549236       0.01458590
H        6.79184270      -0.43888389       7.95892548      -0.00100368      -0.00094697      -0.00060855
H        6.09503172       0.92883942       7.45591818      -0.00518036      -0.00157318      -0.01056093
N        2.22610342       2.70899772       6.94412228       0.00301015       0.00243622       0.01048092
H        1.98103675       1.77142667       6.63972613      -0.00497826      -0.01595323       0.01649012
H        1.88161222       3.34329538       6.22311559       0.00365373      -0.01774511      -0.01400637
H        1.67380394       2.91355520       7.77473117      -0.00086272       0.00883148      -0.00604307
N        9.02347401       5.54009806      10.81970899      -0.01384172       0.00039165      -0.00693375
H        9.57741704       5.92156684      11.57565170      -0.00689766      -0.00391205       0.01302360
H        8.83703342       4.57144315      11.09737877      -0.00242781      -0.00143562      -0.01081472
H        8.12584675       6.01200871      10.85222160       0.00041802      -0.00438713      -0.00130129
N        3.40969572       3.10567652       2.59676056       0.00546987       0.00482761      -0.00167708
H        4.23976322       3.44266988       2.11511400       0.01102408      -0.00352516      -0.00497822
H        2.95282772       2.51467459       1.90155020       0.00573610       0.00333965       0.00088463
H        3.74357051       2.46107579       3.31544767       0.00316694       0.00758565       0.00248879
N        1.64000507       1.36684300       0.20751313      -0.00057091       0.02148101      -0.00011250
H        0.66051961       1.17647672       0.46645768      -0.00427148       0.00465246       0.00007860
H        1.89456026       0.69418319      -0.50816347       0.00176460       0.00093259      -0.00395424
H        1.63567886       2.27211966      -0.25253402      -0.00239400      -0.00212213      -0.00037492
N        1.60847072      10.37056067       5.54204824       0.00729996       0.00344175      -0.00279332
H        1.78889891       9.48988820       5.07659013      -0.00088972       0.01197769      -0.00156828
H        1.00128095      10.91000525       4.91833767       0.00195102       0.01271850       0.00148999
H        1.11634010      10.15831360       6.40964831       0.00142382       0.00652156       0.00285327
N        9.67522952       3.07872354       5.97197370      -0.00633282       0.00808629       0.00716330
H        8.95241653       3.09791360       5.24934697      -0.00263686       0.00300430       0.00843097
H       10.07589012       2.14668596       5.93423715       0.00773990       0.01506361       0.00190468
H       10.42508897       3.69403787       5.66441246      -0.00801933       0.01843132       0.00489633
N       10.93123136       3.78552072       9.11139969      -0.00203289       0.00089704       0.00050557
H       10.55961802       3.04234573       9.70130642      -0.00065486       0.00381659       0.01066058
H       10.54720906       3.60311272       8.18563710      -0.00493352      -0.00520785       0.00800818
H       10.42655732       4.61071225       9.43983015      -0.00290573       0.00406228      -0.00082120
N        4.18492568       1.06991170       4.97937582       0.00795813       0.00654002       0.00037143
H        3.39261023       0.45074979       5.18226852       0.01035333       0.00184403       0.00308000
H        4.02570786       1.86856305       5.58752702       0.00446531       0.00514430       0.00589055
H        5.01341912       0.60703888       5.34320022       0.01121833       0.01042834      -0.00517059
N        1.44248812       4.85982295       4.54650820      -0.00905746      -0.00935894      -0.00385581
H        2.24239869       4.45156415       4.05598206       0.00299180       0.00812341      -0.00431277
H        1.68987352       5.82430487       4.73422032      -0.02318170      -0.01146964       0.01648818
H        0.73488528       4.89534652       3.81019038      -0.00442374      -0.00886615      -0.01168333
N        3.95881349      -0.20396615       1.86609920       0.00131522      -0.00585476      -0.00876230
H        3.92815164       0.22221759       2.79082668       0.02069643       0.01283852      -0.01477656
H        3.22859094       0.26445037       1.32946546      -0.00669586       0.00013373      -0.00431953
H        4.84578279       0.10121141       1.47328681      -0.00716452      -0.02809072      -0.02756464
N        7.14987742       9.46746515       9.79767319      -0.00051755       0.00500351      -0.00370851
H        7.34921414      10.27890695      10.41380468      -0.00682808      -0.00007376       0.00594149
H        8.03322958       8.98474063       9.67309253      -0.00970976       0.00641488      -0.00328703
H        6.57221700       8.83192688      10.33892367      -0.00932154      -0.00490692      -0.00125901
N       11.07981601       4.24071691       1.79175242      -0.00288435      -0.00694720      -0.00379923
H       10.32726752       3.58354116       1.53191127      -0.00168437      -0.00553136      -0.01110194
H       11.88354351       3.67718160       2.05211479      -0.00215490      -0.00287906      -0.01215447
H       11.34529034       4.69044852       0.92235337      -0.00408032      -0.00015666      -0.00927107
N        7.51802253       2.61463253       3.57108060       0.02076957      -0.00724377      -0.00008474
H        7.72831152       2.88769140       2.60583774       0.01203942       0.00282370       0.00312098
H        6.51194082       2.47695601       3.61513177       0.00911507       0.00611013       0.00456338
H        7.89864292       1.67547830       3.61981877       0.00129670      -0.00559272      -0.01211310
N        5.81811973       5.88977787       0.88913550      -0.00381848       0.00600810       0.00437507
H        4.92050923       5.83750563       0.41073873      -0.00584714       0.00504877      -0.00573910
H        5.57794483       6.11579199       1.84910143      -0.00744153      -0.00703695      -0.00546370
H        6.14925603       4.92661295       0.89285395      -0.00427227      -0.00006552      -0.00805293
N        0.36277766       1.30244919       3.39344570      -0.00621735       0.01878087       0.01786604
H        0.14449893       2.21920136       3.76854844      -0.00503256       0.00867562       0.00000167
H       -0.21746110       1.18371336       2.54842918       0.00118755       0.00502587       0.00528296
H        1.31520329       1.36848412       3.04814830       0.00578232       0.01518537       0.01243751
N        3.67400071       0.14805339       8.55178389       0.00195050      -0.00058901       0.01318093
H        4.08016025      -0.17048899       7.67780500      -0.00989921      -0.00816417      -0.00136874
H        4.41622361       0.09544078       9.24334374      -0.00038574       0.00401925      -0.00815722
H        3.48399332       1.13554571       8.40056862       0.00131808       0.00538240      -0.00283980
N        3.25855185       7.61906101       2.30177883       0.00871940      -0.00317192       0.00824592
H        2.28571595       7.72351900       2.56920543       0.01211409      -0.02377890       0.00860297
H        3.23944934       7.02295439       1.48015652       0.01451479      -0.00192756      -0.00532602
H        3.55528303       8.55184854       1.99760981      -0.00399644      -0.00043280       0.00869381
N        0.69763438      -1.00899173       8.51670898      -0.01543479       0.02760135       0.00323170
H        1.68046152      -0.74721395       8.62263156      -0.01066652       0.01307868       0.01868026
H        0.58487342      -1.90236157       8.97935385      -0.01066362      -0.00992399      -0.01817174
H        0.16213947      -0.34343955       9.06628656      -0.01498476      -0.01384633       0.01645300
N        7.60433964       2.76529445       8.71891065       0.00260208       0.00833680      -0.01121382
H        8.27822659       2.92187918       7.97162168      -0.00708499      -0.00204118       0.01144174
H        7.60202710       1.76683734       8.90342725      -0.01019370      -0.00513832      -0.00084227
H        8.00975878       3.14636400       9.57276470       0.00102135      -0.00469675       0.00791687
