146
Lattice="12.190756831774241 0.0 0.0 0.0 12.190756831774241 0.0 0.0 0.0 12.190756831774241" Properties=species:S:1:pos:R:3:forces:R:3 energy=-869540.5 stress="0.002297465456649661 0.000735597510356456 -0.0008582935261074454 0.000735597510356456 0.0015748512232676148 0.0001435847152606584 -0.0008582935261074454 0.0001435847152606584 0.0003394348605070263" pbc="T T T"
Tm       7.53995635      13.41939756       1.66651253      -0.00743204      -0.00885263       0.00788222
Tm       2.84449988      10.72055835       4.32738616      -0.01735683       0.01564556       0.01756293
P        4.95874852      11.11462399       7.22607476       0.01041061      -0.01290807       0.00319424
O        5.82428102      12.46266880       6.96753763      -0.01617163       0.01626348       0.01180808
O        4.11866829      11.38552849       8.44226054       0.00303882      -0.01157922       0.02533293
O        5.93821016       9.96226822       7.29649589      -0.00547242       0.02149814      -0.01936800
O        4.05846755      10.94391449       5.95430219      -0.02291608       0.00984292       0.01389515
H        6.65009816      12.27919796       6.50292535      -0.02609590       0.01884336      -0.00897744
P        5.85570942      11.52216688       2.76975511      -0.01115796      -0.00691983       0.01529445
O        6.53965947      10.20128766       3.38431563      -0.01552058      -0.01419801      -0.00029337
O        6.48873776      12.74813306       3.45479472       0.00369364      -0.01391500       0.01451021
O        4.35334569      11.37242935       2.92341859      -0.00842044       0.00482141       0.02117942
O        6.33152348      11.63047370       1.31348105      -0.01613089      -0.00200951       0.00774771
H        6.47191255      10.17579307       4.35007689      -0.00738897      -0.01771212       0.00255060
P       12.16178599      11.20795037       4.39896718      -0.01565215       0.03764814       0.01024517
O       12.76804244      10.56207437       5.80730759       0.03622768       0.00940120      -0.01409632
O       12.06469953      10.05198387       3.44748497       0.01578224      -0.00368059      -0.01733202
O       13.40229394      12.09173560       4.07232848      -0.00901112       0.02822888      -0.01087131
O       10.91337057      11.99768483       4.65432236       0.00993890      -0.02495527       0.01134744
H       12.19547163       9.86890250       6.15631543       0.04918040       0.00768655       0.00081342
O        8.51291727       2.82691530       4.69461420       0.01369172       0.01065752       0.00654578
C        9.83120492       3.00888196       4.17155757       0.01347351       0.00273339       0.00170648
C       10.02628275       2.25329389       2.86871402       0.00562578      -0.00345105       0.00399688
H        9.98728189       4.08169373       4.02889885       0.01840047       0.00191206      -0.00360400
H       10.56115406       2.64710652       4.89906903       0.01423302       0.00413349       0.00138935
H       11.07422514       2.26055526       2.55901333       0.00375959      -0.00396964      -0.00143017
H        9.76366807       1.20265523       3.03195907       0.00571635      -0.00259888       0.01087615
H        9.44219030       2.72013629       2.06520427       0.00119796      -0.00790260       0.00455716
H        8.53951924       1.95630369       5.20252152       0.01123511       0.00910835       0.00831531
O        9.28203599      12.19949621       0.76453955      -0.00468081       0.00325143       0.00412613
C        9.78557472      11.12626081       1.63877858      -0.00212045       0.00305116       0.00141650
C        9.89207418       9.80663660       0.92778154      -0.01015737       0.00323194       0.00002566
H       10.74491038      11.42957214       2.04652749       0.00194079       0.00131349      -0.00567882
H        9.07266628      11.07298496       2.46426080       0.00334918       0.00609251       0.00605687
H       10.28125998       9.08516962       1.64653924      -0.00169124       0.00166848      -0.00591575
H        8.92814090       9.46905160       0.54823846      -0.01497766       0.00413164       0.01174909
H       10.61190524       9.85860387       0.10862275      -0.02059959       0.00329616      -0.00887355
H        9.79597320      12.18856952      -0.04828961      -0.00515011       0.00547046       0.00338215
O        1.90561897       0.52817365       8.94188346       0.00383461      -0.01101816      -0.01301920
C        2.34741092       1.77989732       9.38201338      -0.00385216      -0.00700837      -0.00743651
C        2.38394714       1.88513552      10.90198824      -0.00056235      -0.01270199      -0.00741196
H        3.34044824       1.99578170       8.95533783      -0.00217295      -0.00373925      -0.00814117
H        1.66851867       2.55046405       8.98807008      -0.00480050      -0.01108214      -0.00541535
H        2.66109029       2.88812053      11.23509100      -0.00223650      -0.01337208      -0.00499170
H        1.39918398       1.65789639      11.31125631      -0.00126866      -0.01505214      -0.00763969
H        3.09595668       1.17414196      11.32307541      -0.00017004      -0.01273166      -0.00979226
H        2.70534421      -0.01629971       8.71013027       0.00373425      -0.01040159       0.00310177
O        1.67484069       2.31832470       2.90174273      -0.01645851       0.03665286       0.00685972
C        3.09153644       2.35159279       2.87030514      -0.01858306       0.01835214       0.00415617
C        3.72347339       2.32723161       4.25189124      -0.01522630       0.01512384       0.00280648
H        3.48649694       1.51540156       2.27704375      -0.02901083       0.01233882       0.00561595
H        3.36397506       3.27357622       2.34590194      -0.00826349       0.01411206       0.00028256
H        4.81038407       2.37815270       4.18188741      -0.01511227       0.00566876       0.00103372
H        3.35712460       3.15971233       4.85558148      -0.00737791       0.02048799       0.00139694
H        3.48825567       1.40317001       4.78556266      -0.02335057       0.01819868       0.00459522
H        1.41803795       1.47653703       3.33223478      -0.02428137       0.03137101       0.00281680
O        7.02246577       3.28464396       2.64449792       0.00578779      -0.01788418       0.00943461
C        6.96285198       4.71853975       2.52818502       0.00051811      -0.02015105      -0.00723258
C        6.09529240       5.33232809       3.60699536       0.00312805      -0.01259525      -0.00984454
H        7.97895715       5.12767286       2.58166125      -0.00060037      -0.01647303      -0.01805805
H        6.56841635       4.94011588       1.53578045      -0.00515993      -0.03439824      -0.00819308
H        6.13193112       6.42196053       3.54268970      -0.00421079      -0.01342720      -0.02212932
H        5.06179220       5.00108578       3.50728535       0.00486116      -0.02021943      -0.00010763
H        6.45024000       5.05093513       4.59881441       0.01039305      -0.00016862      -0.00890526
H        7.44122192       3.08935820       3.54141781       0.01460943      -0.00814109       0.00930053
O        9.02504332       0.73004006       6.09809652      -0.00825527       0.01068330       0.00829870
C        9.50650359       1.27720031       7.32771082      -0.00605667       0.00092579       0.00984088
C       11.00347753       1.14301793       7.51627973      -0.00601631      -0.00634499       0.01060848
H        9.21572132       2.33539616       7.34547005      -0.00077921       0.00194901       0.01318376
H        8.96929825       0.78693870       8.14628546      -0.00907013       0.00005463       0.00668874
H       11.30970318       1.61729577       8.45044265      -0.00516283      -0.01345072       0.01387167
H       11.32541048       0.10369171       7.55486996      -0.01118585      -0.00778449       0.00550148
H       11.55676055       1.61334321       6.70265211      -0.00300958      -0.00439397       0.01435994
H        9.77748603       0.28105834       5.60532266      -0.00747742      -0.00124456       0.00932391
O        7.49384839       2.48961220      11.92195934      -0.00215131      -0.00076324       0.00949606
C        8.39709402       3.55373718      11.52774972      -0.00102123      -0.00306129       0.00409955
C        8.98723233       3.32134355      10.15817044      -0.00185446      -0.01043272       0.00499982
H        7.85344927       4.50183492      11.56133259      -0.00094905      -0.00257388      -0.00095571
H        9.18224262       3.60337838      12.28344326      -0.00094068       0.00052995       0.00378631
H        9.62256656       4.16474318       9.88197608      -0.00171585      -0.01195981      -0.00038967
H        9.59163974       2.41534779      10.13182043      -0.00176004      -0.01078314       0.00903249
H        8.20211954       3.23210567       9.40874781      -0.00255606      -0.01430785       0.00604998
H        6.68447045       2.60742578      11.34376319      -0.00021055      -0.00484122       0.00627074
O       11.11675301       5.95497026       6.28407542      -0.00377408       0.00949138       0.01342227
C        9.84886926       6.49457912       5.87775287      -0.00386122       0.00443445       0.00593872
C        8.68940731       5.85514515       6.60819695      -0.00503260       0.00810137       0.00630748
H        9.91035901       7.55632588       6.10655447      -0.00575593       0.00607347      -0.00052053
H        9.73580485       6.39357838       4.79080534       0.00000165      -0.00415462       0.00651187
H        7.75530065       6.37855604       6.39446389      -0.00534844       0.00203989      -0.00479896
H        8.56891763       4.80778208       6.31857232       0.00074624       0.00467271       0.01622371
H        8.86142261       5.91925219       7.68288263      -0.01152418       0.02050454       0.00649916
H       11.08332510       5.00123708       6.16493092       0.00094979       0.00925037       0.01303428
O        2.65981730       8.50602363       3.54853981      -0.00952226       0.01405627       0.01423216
C        1.56105691       7.54742688       3.68961400       0.00195807       0.00133058       0.00546834
C        1.73134545       6.37294734       2.76079058       0.01140599       0.01374665      -0.00884789
H        1.52569068       7.22332216       4.73154040       0.00808439      -0.01290476       0.00151628
H        0.67493133       8.14059462       3.47533643      -0.00407654      -0.00584683       0.01442115
H        0.89069011       5.68869669       2.88591106       0.02115601       0.00186029      -0.01373210
H        1.76935465       6.69853796       1.72132520       0.00509281       0.02650540      -0.00503322
H        2.63225058       5.79929196       2.99478301       0.01919533       0.02204449      -0.01866862
H        3.47547442       8.00311461       3.44592160      -0.00347993       0.02464935       0.00219916
O        4.29577891       8.25341643      10.50150033       0.01121062      -0.00170189      -0.01613966
C        5.26672789       9.29051892      10.76617322       0.01000315      -0.00490572       0.00009263
C        6.66920949       8.82043116      10.45009233       0.01088810      -0.00137427      -0.00043097
H        5.01389125      10.17553434      10.17657631       0.01123384       0.00171405       0.01006103
H        5.16650296       9.53203050      11.82406092       0.00509670      -0.01771622       0.00269735
H        7.37891991       9.61828136      10.67540316       0.01111085      -0.00610641       0.01329458
H        6.93129571       7.94388495      11.04785809       0.00757120      -0.01000904      -0.01116687
H        6.76400263       8.58420407       9.39001911       0.01399208       0.01174686      -0.00285956
H        4.20506978       8.20883746       9.54305012       0.02124751       0.00341327      -0.01798230
O        1.86494586       8.86661113      -0.30476315       0.02137321       0.00922334      -0.02447431
C        2.34853474      10.16481691       0.03755096       0.00690955       0.01079267      -0.01214716
C        1.21150828      11.01643561       0.54291468      -0.00525743      -0.00411171      -0.01317810
H        3.12085628      10.08785372       0.81532567       0.00234556       0.01422934      -0.00738496
H        2.81179826      10.63031359      -0.83817351       0.00847605       0.02224395      -0.00574201
H        1.59331534      11.98036605       0.88533617      -0.01829606      -0.00242250      -0.00393996
H        0.49571710      11.19954229      -0.26182878      -0.00337577      -0.00680699      -0.01561430
H        0.70527330      10.53558767       1.38229086      -0.00411247      -0.01406692      -0.01867235
H        2.59099230       8.45312713      -0.79938762       0.02494785       0.01829082      -0.02830696
O        5.44028844       3.07906241      10.48491779       0.00251783      -0.01090837      -0.00411415
C        5.05829829       4.45789365      10.30656319      -0.00057261      -0.01165432      -0.00783235
C        5.62235490       5.05973189       9.04805738       0.00169629      -0.01361836      -0.00760001
H        3.96811853       4.52857627      10.32784961      -0.00109124      -0.01414254      -0.01110159
H        5.42847253       4.97606376      11.19266355      -0.00473604      -0.00881898      -0.00763667
H        5.34201278       6.10740703       8.95293608       0.00139829      -0.01349819      -0.00810673
H        6.71157927       5.01208450       9.03770897       0.00168438      -0.01069740      -0.00392289
H        5.24791910       4.54584512       8.16074118       0.00788641      -0.02194887      -0.00696757
H        5.07361416       2.53670627       9.77631411       0.00938025      -0.01187883      -0.00573426
O        5.31266275       7.50595755       7.05675624      -0.00703621       0.00035703       0.01884907
C        4.05937645       7.53842140       6.42937071       0.00045860      -0.00320237       0.01155710
C        2.91997796       7.85790395       7.39027224      -0.00701791      -0.00067401       0.00214636
H        4.06377282       8.29554794       5.63199134       0.00305006      -0.00689197       0.00613138
H        3.88726441       6.56113252       5.95762970       0.00545777      -0.00589120       0.01439311
H        1.95296373       7.85924055       6.88072589      -0.00474934      -0.00783500      -0.00311103
H        2.87306536       7.10754625       8.18401687      -0.00921968       0.00257066       0.00633372
H        3.06016768       8.84737793       7.83244274      -0.01275282       0.00058761      -0.00175903
H        5.59686834       8.47237426       7.17232076      -0.00133564       0.00878706       0.00635969
O       10.66716385       7.80969420       8.47951756       0.00947294       0.00922814      -0.00720072
C       10.97873375       8.12875473       9.82907747       0.01456665       0.00162336      -0.00684476
C       10.68449938       6.99069159      10.78898019       0.00786684       0.00034618      -0.01041022
H       12.02036577       8.44920429       9.93751598       0.01718277      -0.00609750      -0.00752821
H       10.34561369       8.98470119      10.06751318       0.02134681       0.00553223      -0.00257356
H       10.92685800       7.28486290      11.81135502       0.00588436      -0.00284431      -0.00878286
H        9.62982319       6.71224390      10.74163458       0.00717512       0.00418556      -0.01413026
H       11.29156217       6.11522181      10.54639320       0.00581721      -0.00116299      -0.01078596
H       11.20185258       7.06485033       8.17755136      -0.00269824       0.00103980      -0.01012176
