147
Lattice="12.945141009795071 0.0 0.0 0.0 12.945141009795071 0.0 0.0 0.0 12.945141009795071" Properties=species:S:1:pos:R:3:forces:R:3 energy=-1312503.875 stress="-0.0022626507561653852 0.00010121844752575271 -0.0003322288393974304 0.00010121844752575271 -0.0028103685472160578 -0.000507713237311691 -0.0003322288393974304 -0.000507713237311691 0.00013050023699179292" pbc="T T T"
Tm      10.23472521      12.94597417      12.46699488      -0.00826154       0.00611463      -0.00271539
Tm       8.64620201      11.16876952       5.82113242       0.00840500       0.00473072      -0.00188236
O        6.55911324      10.69197332       5.78799012       0.00752048       0.00722969       0.00565696
O        5.38397821      11.82168003       3.48696648      -0.00956547       0.01396993       0.02236438
O        7.62272147      12.97405094       5.17656757       0.00556493       0.00170445       0.00690466
O        4.74485967      12.85463604       6.20333748      -0.00818515      -0.00066853       0.01062799
Mo       5.93497832      12.26009846       5.08422371       0.00321680       0.00605831       0.00948104
O        7.48216668      12.87834818       9.61653001      -0.02475226      -0.01561046      -0.00774270
O        9.31872270      11.56019626       7.83285142       0.00444353       0.00371845      -0.00195104
O        7.66879290      10.06303621       9.67587413       0.01295918      -0.00911176      -0.01813813
O        9.77390824      11.65568314      10.83322017      -0.02357101       0.01934785      -0.00675398
Mo       8.55724799      11.53203284       9.47749215      -0.00802481      -0.01188310      -0.00934880
O        9.91772487      11.37463387       4.04767762       0.00126511       0.00074565      -0.00462064
O       10.84419467      11.66279207       1.12307382      -0.02558035      -0.00764143      -0.00872147
O       11.51661661       9.39062841       2.80432301      -0.02452639      -0.01152205      -0.01622911
O       12.65898485      11.87988562       3.38883074      -0.00132167      -0.02140021      -0.02697766
Mo      11.22557595      11.09643129       2.83424042      -0.00961417      -0.01309291      -0.01472446
S       10.72492540       1.23486156       2.67796771      -0.00000715      -0.00721014      -0.00771177
O       10.68716051       1.63774229       1.20232421      -0.00212049      -0.00293541      -0.00635058
C        9.28154131       1.88747412       3.48001224       0.00293493      -0.00477302      -0.00634298
C       11.97320467       2.27175335       3.42989956       0.00376090      -0.01233456      -0.00876892
H        8.40334442       1.44617364       3.01485322       0.00244930      -0.00223775      -0.00713593
H        9.23424143       2.97312075       3.45299162       0.00616835      -0.00460029      -0.00583344
H        9.28094062       1.51935174       4.50606754       0.00083074      -0.00585715      -0.00707452
H       12.01737815       2.01990584       4.48883241       0.00025836      -0.00824705      -0.00794326
H       11.72180126       3.32211868       3.27919271       0.00957020      -0.01182345      -0.01345199
H       12.91874283       2.01190339       2.96120698       0.00285614      -0.01920710      -0.00609447
S        6.55283956      10.11714458       1.31626104      -0.01939511       0.00239956       0.00150657
O        6.82115563       8.96530596       0.38525522      -0.01966006       0.00674403      -0.00094795
C        7.71619077      11.39688319       0.81980126      -0.03362828       0.01155978      -0.00561175
C        7.36294119       9.68987714       2.87008295      -0.00594711       0.00674558      -0.00429749
H        7.40864302      11.75360146      -0.16200348      -0.04006476       0.00484572      -0.00553086
H        8.71004258      10.94634838       0.78345123      -0.02880011       0.02265936      -0.00784627
H        7.67222379      12.20571144       1.54927301      -0.04062289       0.01379770      -0.00906695
H        7.78298020      10.59040503       3.30935428      -0.00702955       0.00802955      -0.00681555
H        8.15555180       8.98270586       2.61931239      -0.00522713       0.00971678      -0.00984374
H        6.62514559       9.26831285       3.54739644       0.00052676       0.00360608       0.00056344
S        2.70607642       2.89842167      10.51790409       0.00757015      -0.01256764      -0.01458907
O        3.41688536       3.22956621      11.78687539      -0.00663310      -0.01851457      -0.00593138
C        3.62574916       1.56769699       9.72783800       0.01802215      -0.00485381      -0.01389521
C        3.10740376       4.20531671       9.33814263       0.01529020      -0.00366700      -0.00146139
H        3.56948385       0.72608081      10.41414458       0.00997155      -0.01259781      -0.02490279
H        4.66484601       1.85834060       9.58431354       0.01985949      -0.00488319       0.00232045
H        3.16651336       1.29875818       8.77638941       0.03102113       0.00280205      -0.02168971
H        2.61741348       3.98380351       8.39031706       0.02618237       0.00133295      -0.00780858
H        4.18715608       4.27129994       9.21090707       0.01611897       0.00089675       0.01039052
H        2.72298325       5.13787921       9.74996270       0.00739095      -0.00789885       0.00004300
S        4.25922084       2.34649691       4.21281219      -0.00480151      -0.00120997       0.02094132
O        5.49591175       1.52611161       3.97676326       0.01034510       0.01609135       0.04184282
C        2.82745980       1.26623062       4.39791232       0.00480783      -0.01615572       0.00431378
C        3.80040729       2.98894371       2.60069400       0.01080412      -0.01195021       0.01359159
H        3.03544207       0.61621577       5.24533268       0.00047140      -0.01177913       0.00790514
H        2.67534719       0.66133047       3.50710853       0.02154486      -0.01944699       0.00439908
H        1.96912460       1.91207583       4.58648239      -0.00284193      -0.02242599      -0.01023077
H        2.83748378       3.48965544       2.70173895       0.00814395      -0.01728606       0.00560459
H        3.72299509       2.16224184       1.89456800       0.01798321      -0.01063135       0.01130114
H        4.54264134       3.70459943       2.25260271       0.00696330      -0.00635614       0.01741545
S        7.21639662       4.89624500       2.99608878       0.01710832       0.00805354      -0.00023556
O        7.77547113       4.44735890       4.31320336       0.02858198       0.01150855      -0.00289893
C        8.56320358       5.75570405       2.15949888       0.00528270       0.02034599      -0.00345215
C        6.24797066       6.36113153       3.32300019       0.00475666      -0.00344771       0.00867203
H        9.34281185       5.01773338       1.97591398       0.00881772       0.02637056      -0.01120971
H        8.94384552       6.54000118       2.81222913       0.00395063       0.01933067      -0.00190867
H        8.20750702       6.17884274       1.21795886      -0.00231558       0.02127115       0.00021107
H        6.11107361       6.89557381       2.38692371      -0.00759110      -0.00532653       0.00964433
H        6.78735456       6.96584371       4.05181665       0.00318831       0.00247738       0.00469802
H        5.28741241       6.07695609       3.74139580       0.01068875      -0.01390682       0.01450306
S       10.75925965       2.37558283       9.76585164       0.01012400       0.00484598       0.01123810
O       11.16279703       1.35531516      10.81513996       0.00565606       0.00923383       0.01703560
C       10.07441335       1.53736617       8.34523353       0.00077008      -0.00135759       0.01970148
C       12.27352550       2.95024650       9.00543983       0.01497862      -0.01679388       0.00650802
H        9.07849239       1.18243164       8.61341788      -0.00110587       0.00763964       0.02304694
H       10.70587400       0.70396149       8.04266726      -0.00654659      -0.00838387       0.02576820
H        9.98243573       2.28002997       7.55084472       0.00422843      -0.00864229       0.01259173
H       11.99296427       3.68881096       8.25400752       0.02747349      -0.02443242      -0.00528747
H       12.81532376       2.11898787       8.55612152       0.00746158      -0.03083381       0.02433561
H       12.86734437       3.41992576       9.78464097       0.01662770      -0.01209560       0.00234142
S        8.00035466       2.52179126      13.08888802      -0.02323094      -0.00745618      -0.00252557
O        8.38476685       1.16459873      12.49084036      -0.01092500      -0.00296527      -0.00596881
C        6.57013829       3.03824891      12.17123027      -0.02225536      -0.01326324      -0.00711596
C        9.16130738       3.68603400      12.40576189      -0.02879831      -0.00069857       0.00297579
H        5.71433041       2.45630182      12.49920565      -0.01959011      -0.02222499      -0.01445214
H        6.76898200       2.87466771      11.11245106      -0.00891674       0.00133835      -0.00735314
H        6.37813442       4.08639163      12.40385698      -0.02925759      -0.01668136       0.00345486
H        8.89162267       4.67557679      12.75797917      -0.04477689       0.00176391      -0.01542776
H        9.07536443       3.67193696      11.32336808      -0.01365937      -0.01601505       0.00235537
H       10.15401270       3.39198709      12.73634899      -0.02832612       0.01828092       0.01661450
S        9.81569152       7.82512794       5.15740345       0.00911531       0.00792569      -0.00145304
O        9.17977973       8.94500878       5.94844121       0.01269275       0.00983495       0.00306106
C        9.33539147       6.32581663       6.00260340       0.01361877       0.01184535       0.00494167
C       11.54358051       7.83527267       5.62649056       0.01107317       0.01055380      -0.01236659
H        8.25938456       6.21806784       5.89830655       0.01204053       0.01799038       0.01687452
H        9.63472887       6.38503960       7.04511894       0.02456920       0.01118429       0.00143518
H        9.78549557       5.47834834       5.48827376       0.00362244       0.00974055      -0.00025768
H       12.03408482       6.97637712       5.16993960       0.00835509       0.00685735      -0.00842194
H       11.61135128       7.80610169       6.71349583       0.01736537       0.01384998      -0.01330620
H       11.96820944       8.74951843       5.22047209       0.00731012       0.00973982      -0.01814368
S        3.91040161       6.12246902       0.08710063      -0.00448346      -0.01305759       0.00245070
O        4.97572984       5.29705981       0.73532578      -0.00392962      -0.01046586       0.00585306
C        3.96138317       7.69936179       0.93368717      -0.00993804      -0.01288867       0.00124484
C        2.31362820       5.59723369       0.74426422      -0.00399208      -0.01729824      -0.00124538
H        4.91922066       8.14814333       0.66896544      -0.01038885      -0.01048354       0.00343563
H        3.89630189       7.52791084       2.00853381      -0.01310781      -0.01201401       0.00110660
H        3.15167092       8.33151620       0.57804328      -0.01018653      -0.01548783      -0.00207569
H        1.54681966       6.24636359       0.32010424      -0.00453062      -0.01938219      -0.00324269
H        2.32465516       5.67970678       1.83109073      -0.00686304      -0.01700752      -0.00146435
H        2.16666365       4.57092866       0.41898432      -0.00091045      -0.01744230      -0.00170600
S        4.07100948       8.90160437      10.77597187       0.00518298       0.00101763       0.00365901
O        2.98576304       8.42140833       9.85604268       0.00145805       0.00387853       0.00045013
C        4.58423786      10.53816437      10.22367442       0.00802299      -0.00138062       0.00251368
C        5.56375665       8.00170343      10.36330047       0.00050956      -0.00365618       0.00205341
H        3.70940672      11.17745721      10.32719752       0.01015644       0.00092467       0.00125087
H        4.93370272      10.52283179       9.19430681       0.00930788      -0.00222363       0.00312147
H        5.39006658      10.88071294      10.87022739       0.00846740      -0.00307745       0.00334278
H        6.35204463       8.29974338      11.05248270       0.00264166      -0.00325885      -0.00017124
H        5.84662397       8.21028448       9.33305967      -0.00059973      -0.00680502       0.00107870
H        5.32955617       6.94882954      10.50743575      -0.00039635      -0.00239290       0.00528345
S        2.95163290      10.05037186       3.27775955      -0.00116205      -0.00090563       0.00211024
O        2.66021072      10.85018065       4.49976872      -0.01101214      -0.00033367       0.00315261
C        2.33846172      11.03097586       1.88969744       0.02449962       0.00620389      -0.00155354
C        1.66680626       8.77806978       3.26170646      -0.01236081       0.01328939      -0.01469655
H        3.09748297      11.78611539       1.69215066       0.02900424       0.00559340       0.01658097
H        1.39609847      11.47987825       2.20746162       0.01945964       0.00681784      -0.01910158
H        2.19863115      10.39947946       1.01302120       0.04303376       0.00865176      -0.00634902
H        1.57570900       8.31248616       2.28306612      -0.00539214       0.01314211      -0.01528649
H        0.72046195       9.23933422       3.53547780      -0.00976336       0.02349550      -0.02553969
H        1.99646479       8.03984979       3.99312656      -0.02988270       0.00994775      -0.01089297
S        3.99335930       7.61202783       6.55802354      -0.00995553      -0.00607631      -0.01056576
O        4.05446965       7.46064636       5.06762270      -0.02331042      -0.00390660      -0.01090717
C        2.33950933       7.06088202       7.02832321      -0.01017898       0.00763138       0.00236931
C        3.76529390       9.34526115       6.92383320       0.00735684      -0.00521743      -0.00467676
H        2.28863544       5.99575790       6.80851137      -0.02193441       0.00876272       0.00043409
H        1.61578984       7.60591417       6.42173760      -0.00980052       0.01605575       0.01005155
H        2.19572016       7.25498130       8.09014476       0.00029603       0.00630612       0.00375623
H        3.40031568       9.41047993       7.94677282       0.01381615      -0.00546271      -0.00244811
H        3.06299793       9.77028783       6.20489131       0.00636324       0.00264259       0.00136709
H        4.73134838       9.83727268       6.79641570       0.01057494      -0.01277110      -0.00806797
S        9.57870736       6.84953349      11.31711583       0.00167346       0.01278104       0.00284398
O        8.23149526       6.49576539      11.86575841       0.00212502       0.01013643       0.00057191
C        9.82203031       8.59818823      11.60994812       0.00555689       0.00945014       0.02025640
C        9.35730427       6.93943930       9.53115318       0.00018421       0.03068492       0.00465357
H       10.01056786       8.72945639      12.67324641       0.01198888      -0.00070781       0.01961696
H        8.91525370       9.11742876      11.30352687       0.00264192       0.01035526       0.02854428
H       10.67777574       8.94825443      11.03377301       0.00189215       0.01562842       0.01911663
H       10.30863181       7.19637005       9.06547924       0.00072175       0.03054079       0.00604594
H        8.59440376       7.68148158       9.29285992       0.00161171       0.03560977       0.01410208
H        9.04387906       5.94255880       9.22327270      -0.00167111       0.03423142      -0.00284306
