146
Lattice="12.364225179448397 0.0 0.0 0.0 12.364225179448397 0.0 0.0 0.0 12.364225179448397" Properties=species:S:1:pos:R:3:forces:R:3 energy=-923711.0 stress="0.0017894289921969175 0.0002983790182042867 -0.0001975342893274501 0.0002983790182042867 0.002008754527196288 -0.0010910462005995214 -0.0001975342893274501 -0.0010910462005995214 0.001485988381318748" pbc="T T T"
Yb       9.53450951      13.52410746       9.10612869       0.01259923       0.01949808       0.01466185
Yb       8.61477813      12.59425631       1.81183330      -0.00092432      -0.00812691      -0.00555721
S        9.21682329      11.75763930       5.86123995       0.00979009       0.03224244      -0.02605048
S        8.37663333      11.37219257       7.70483531       0.03332576       0.02408372      -0.01808381
S        7.91568266      12.95283827       4.73959021      -0.02056211       0.01089972      -0.01495685
S        6.68488648      11.75807347       3.60628718      -0.00247300      -0.01918435       0.00186940
S        7.90055776      13.34917518      11.60109531      -0.00710279      -0.00510064       0.00150758
S        9.68375683      12.12405457      11.54056591      -0.00098950      -0.00422847       0.00127033
O       10.14579329       7.40810109       1.95776948      -0.00212205       0.00378275      -0.00581264
C        9.84753592       6.04062909       1.66811777      -0.00981282       0.00544196      -0.00500561
H        8.84951148       5.93982071       1.23397108      -0.01084098       0.01087338      -0.00410122
H        9.86174875       5.49296067       2.61066484      -0.01178969       0.00524671      -0.00467232
H       10.58616358       5.60321964       0.98964785      -0.01300213       0.00098452      -0.00584668
H        9.88803030       7.95164465       1.18836337      -0.00100762       0.00475422      -0.00662550
O        9.95439041       2.31661248       1.63860109      -0.00421412      -0.00625619       0.00879753
C       11.35331068       2.33016976       1.99532077      -0.00461355      -0.00105463       0.01034066
H       11.41931201       1.92944991       3.00468772      -0.00368359      -0.00530402       0.00888728
H       11.72769100       3.35202457       1.97262521      -0.00996704       0.00140890       0.01355190
H       11.93481338       1.70627134       1.31524266      -0.00251551       0.00537847       0.00581431
H        9.88065607       2.62763829       0.72505996      -0.00647878      -0.00154594       0.01068413
O       10.36783214      11.31123690       2.96443010       0.00176115      -0.00861245      -0.01311731
C       11.47954033      10.63571508       2.33646276       0.01079132       0.00194257      -0.00770217
H       11.11548855       9.82580964       1.70524985       0.02342226      -0.00386721      -0.00756684
H       12.15353876      10.24254785       3.09598283       0.01371634       0.01223794      -0.00514325
H       11.99819779      11.37522877       1.73144449       0.00366335       0.00562266      -0.00932907
H       10.11303690      10.83345443       3.76924562       0.00667744      -0.00487143      -0.00872546
O        3.73611803       4.74547913       2.87845465      -0.00270480      -0.00452587       0.00377351
C        3.76780910       6.10091746       2.45355819      -0.00271990      -0.00371498       0.00676805
H        2.79184640       6.58533303       2.53859299      -0.00524256      -0.00688997      -0.00376356
H        4.06590549       6.09215431       1.40438612       0.00935624      -0.00090573       0.01009259
H        4.49638518       6.68472515       3.01962383      -0.01121262      -0.00195210       0.01596192
H        3.45791910       4.64350521       3.80635036      -0.00707661      -0.00671415       0.00351715
O        7.86333115       2.96187338       9.00020343      -0.00314194       0.00587252       0.00794953
C        6.58167718       2.76323320       8.36002317       0.00376818       0.00150532      -0.00973085
H        6.04250926       3.70794695       8.32822655      -0.00143325      -0.00142398      -0.00990154
H        6.00991034       2.00116379       8.89360439       0.00232905      -0.00520359      -0.02088363
H        6.77650676       2.42827454       7.34337329       0.01868910       0.00897908      -0.00948538
H        7.68836996       3.13643997       9.93479103      -0.01424760       0.00024424       0.00593966
O        3.43823483       8.07465422      -1.27294357      -0.01942796      -0.04219842      -0.00193912
C        4.44680148       8.65253519      -0.43860924      -0.00460032      -0.01486232      -0.02070497
H        5.20782786       7.91683589      -0.16392725      -0.00709651      -0.01182380      -0.00433453
H        4.01818733       9.08313469       0.47029873      -0.01404105      -0.00399590      -0.03046098
H        4.92064227       9.44958028      -1.00796252      -0.00060345      -0.02340926      -0.02791369
H        2.82946999       7.58711565      -0.70998778       0.01739931      -0.01280424      -0.03365675
O       -0.14246742       4.41265412      11.94596016      -0.00880986      -0.01395731      -0.00172931
C        1.25878718       4.38529756      12.18096347      -0.01016873      -0.01148079       0.00710906
H        1.65471609       5.39351191      12.36715942      -0.01427792      -0.01122719       0.01509645
H        1.80486324       3.93683616      11.34645434      -0.00342669      -0.00607815       0.00836778
H        1.44872853       3.77790816      13.06463168      -0.01412105      -0.01570319       0.00546104
H       -0.25407464       4.86061715      11.09077949      -0.00374636      -0.00803194       0.00003985
O        7.49880354       6.14117229       7.99274838       0.00353956       0.00387648       0.00504446
C        7.16385969       7.52201999       8.09487350       0.00369738       0.00445133       0.00378433
H        7.79156300       8.14576837       7.45229478      -0.00148231       0.00320153      -0.00309488
H        7.26007002       7.87911325       9.12416251       0.01106376       0.00789212       0.00212824
H        6.12638781       7.63700639       7.78038524       0.00116837       0.00307636       0.01101433
H        8.47256457       6.07708094       8.08549508       0.00339937       0.00239935       0.00683070
O        1.79134298       1.04280818      10.96786400      -0.00256544       0.00134093      -0.00742704
C        3.12763955       1.44220275      10.68775382       0.00004762      -0.00507157      -0.00597839
H        3.79128805       0.57899988      10.54738577      -0.00387707      -0.00869223      -0.00389182
H        3.53746043       2.07235880      11.48176197       0.00287688      -0.00642055      -0.00603095
H        3.11690122       2.00916198       9.75599439       0.00397105      -0.00579190      -0.00670308
H        1.78511542       0.68038577      11.86911155      -0.00490907       0.00335107      -0.00637877
O        2.28895987       8.73003405       4.53750672      -0.00600287       0.00253944      -0.00500977
C        1.67776453       8.92195817       5.80048654      -0.00305789       0.00213652      -0.00335619
H        1.00031163       8.10529072       6.06439018       0.00166422      -0.00075093       0.00077942
H        1.10780719       9.86049639       5.84691308      -0.00800945      -0.00077415      -0.00356957
H        2.46238088       8.96768003       6.55594080      -0.00076875       0.00820361      -0.00573610
H        1.58710753       8.41309947       3.94517454      -0.00662520      -0.00107833      -0.00245183
O        0.05037837       5.31272210       9.31169132       0.01231062      -0.00141591       0.00412227
C        0.31474190       4.07480473       8.64682547       0.01060819      -0.00490350       0.01019753
H       -0.03629569       4.10231704       7.61144159       0.01616248      -0.00714743       0.00817230
H       -0.21999114       3.28589767       9.18420673       0.00597492      -0.00183588       0.01036891
H        1.37899979       3.83595982       8.66178310       0.00983998      -0.00866004       0.01642299
H        0.79317710       5.91854182       9.15231290       0.02064672      -0.00974211       0.00830090
O        8.95312923       9.11033674       0.12787865       0.00115740      -0.00502875      -0.01017499
C        7.90795391       9.51888154       0.99707795       0.00370051      -0.00028700      -0.00868136
H        7.30364192      10.32151629       0.55267759       0.00855149       0.00361881      -0.00892204
H        8.28740395       9.82787285       1.98035520       0.00711337      -0.00403345      -0.00880745
H        7.24813859       8.67003258       1.17827470      -0.00110379       0.00348595      -0.00857462
H        9.26997258       9.90945308      -0.34057250       0.00438378      -0.00521424      -0.00813146
O        1.94451313      12.75501224       1.40219331       0.00271723       0.00941020      -0.00749336
C        2.43936552      11.67785588       2.19148404       0.00511336       0.01012409      -0.00771953
H        2.04410102      11.70787084       3.21284209       0.01221189       0.01397276      -0.00495785
H        3.53086167      11.67508093       2.25101318       0.00556558       0.00741943      -0.01503838
H        2.11821599      10.74121946       1.73460342      -0.00002077       0.00938672      -0.00272900
H        2.51278879      13.54174826       1.55276511       0.00532037       0.00869697      -0.01062964
O        3.70887704       2.46274476       1.50192312       0.00522232       0.00372225      -0.00536412
C        4.96964665       1.88514041       1.82359200       0.00860050       0.00734815      -0.00287545
H        5.03369614       1.60783027       2.87748085       0.00546926       0.00240970      -0.00087070
H        5.79498804       2.56690774       1.58635328       0.00872122       0.01265019       0.00058104
H        5.09071572       0.98219768       1.22257935       0.01255910       0.00815296      -0.00680661
H        3.64639186       3.31425569       1.98848308       0.00361044       0.00235674      -0.00272617
O       10.23734889       2.10756164       6.90726504       0.01136469       0.00029695       0.01245993
C        9.78183159       3.26539271       6.16704826       0.00832368      -0.00166729       0.01309731
H        8.92613354       3.71515746       6.66454229       0.00827160      -0.00163215       0.01290938
H        9.48674881       2.97219790       5.15920580       0.00723696      -0.00672758       0.01469994
H       10.58912192       3.99396856       6.12279726       0.00730646      -0.00075157       0.00915289
H       10.15603472       1.31185067       6.33386188      -0.00536396       0.00070682       0.01222682
O        3.19369238       1.72860606       7.01725223       0.00938249       0.00368566      -0.00136775
C        2.10699867       0.89451836       7.41218404       0.00551099       0.00473759      -0.00916827
H        2.41976348       0.17065267       8.16759919      -0.00263254       0.00825492      -0.00230414
H        1.67303157       0.35928475       6.55941315       0.01435314       0.00087009      -0.01124382
H        1.33601529       1.52416014       7.85497000       0.00052138       0.00705874      -0.02079448
H        3.97439975       1.14679674       6.91461093       0.00981128       0.00321820       0.00360842
O        0.15801625       7.45555809       3.31277142      -0.00677007      -0.00196525       0.00061744
C        0.37034832       6.08639960       3.61894340      -0.00770102      -0.00321919      -0.00387807
H       -0.49897826       5.64051060       4.11436834      -0.00826055      -0.00456060      -0.00573416
H        1.22030768       6.02082685       4.29993580      -0.00783393      -0.00610779      -0.00366399
H        0.60185693       5.50138339       2.72136343      -0.00773163      -0.00036913      -0.00599769
H       -0.65730443       7.52672933       2.77247490      -0.00569554      -0.00001827      -0.00126881
O        2.57091463       3.65365198       5.13608829      -0.00439581       0.00367158       0.00402397
C        1.55782002       2.93042717       4.45216014       0.00045225      -0.00273883       0.00279950
H        1.49235839       3.31129606       3.43282068      -0.00876137       0.00498104       0.00630757
H        0.58071986       3.05535603       4.93670442       0.00151488      -0.01805378       0.00850181
H        1.79076679       1.86313069       4.39982909       0.01269535       0.00051966      -0.00746841
H        2.91014418       3.06157530       5.83900778       0.00293858       0.00336258       0.00046751
O        2.67891332       6.59779436       8.70848725      -0.02481806      -0.00261685       0.00961900
C        3.30838910       6.13593513       7.50678591      -0.00550620       0.00382799       0.01857935
H        3.95284978       5.27371115       7.69447826       0.00485794       0.01397952       0.02745808
H        3.88988579       6.92499929       7.02425109      -0.01229928       0.01118952       0.02290741
H        2.51675641       5.82989858       6.82590337       0.00609580      -0.00928772       0.01031439
H        3.33620240       6.92090843       9.34228889      -0.03247324       0.00992171       0.01587079
O        5.12390745      12.16519090       6.90289387       0.01203525       0.00063533       0.01233152
C        4.63384724      10.90718175       6.44522807       0.00704058       0.00242993       0.01203297
H        5.36731389      10.40510008       5.81321174       0.00398701       0.00047556       0.00979197
H        3.74528836      11.09547692       5.84405743       0.00646031       0.00619909       0.01379947
H        4.36234377      10.26224657       7.28784908       0.00613590       0.00254673       0.01211956
H        6.03597811      12.04134152       7.21094788       0.01632911       0.00105490      -0.00102141
O       10.20017933       6.18775087       7.90124376       0.00562170      -0.01048398       0.00138068
C       10.65813202       6.91355004       6.76708579      -0.00672451      -0.00173882       0.00150141
H        9.89470149       6.83479023       5.99205710      -0.01090595      -0.00453719       0.00559211
H       11.59050593       6.49072228       6.38041001      -0.00569096       0.00732939      -0.00607945
H       10.83067591       7.96694615       6.99995550      -0.01313028      -0.00169256       0.00556165
H       10.94289926       6.08279314       8.52358816       0.00796255       0.00004566       0.00022811
O        0.43541428       8.20724459       8.87017920      -0.02607995       0.01082271      -0.00392216
C        0.24265608       9.59595518       9.08547497      -0.00956312       0.01166600       0.00469226
H        0.86163310      10.20199819       8.41654692      -0.01616107       0.00992677      -0.00327030
H        0.46297393       9.88827832      10.11706395       0.01007343       0.00536084       0.00209162
H       -0.80561877       9.81496490       8.87750131      -0.01085821       0.02141620       0.02309890
H        1.38252238       8.00991914       8.82616107      -0.02809681       0.00113747      -0.00813082
O        6.94076263       5.05898351       5.53182881       0.00348433      -0.00413096       0.00876379
C        6.90170351       6.10156467       4.57778834       0.00026078      -0.00747630       0.00495815
H        6.66165194       5.65809773       3.61097933      -0.00179544      -0.01129352       0.00713918
H        7.86273281       6.62484494       4.48448620      -0.00027412      -0.00698832       0.00084108
H        6.13270571       6.84950314       4.81083925       0.00026014      -0.00695127       0.00419553
H        7.11479124       5.46061019       6.40727963       0.00357883      -0.00063980       0.00729460
