145
Lattice="12.658922729876126 0.0 0.0 0.0 12.658922729876126 0.0 0.0 0.0 12.658922729876126" Properties=species:S:1:pos:R:3:forces:R:3 energy=-2268480.0 stress="0.00020744498760905117 -0.0003820588462986052 -0.0005431839963421226 -0.0003820588462986052 -0.0007354833651334047 0.001300612057093531 -0.0005431839963421226 0.001300612057093531 0.0009786265436559916" pbc="T T T"
Yb      11.92670658      10.15840804       2.01094043       0.01121119      -0.01788490       0.00955996
Yb      11.10263296      11.76335916       6.12303987       0.03516725      -0.00677527       0.01588301
O        1.70448379      10.37800388       7.81263503      -0.02861893       0.01313731      -0.01015258
O        1.11713569       9.84852416      10.58700973      -0.01159430       0.00182816      -0.00201011
O        2.63838480      12.14636518       9.82223322      -0.04453044       0.01858330      -0.01046193
O        3.91262575       9.48953926       9.60553051      -0.01253375       0.03620744      -0.02675098
W        2.34616226      10.48358726       9.44032045      -0.02420688       0.01591825      -0.01061901
O        1.28868092      11.02530387       2.88107520       0.01256901       0.01585957      -0.00644571
O        0.98748784      13.93132550       3.15478489      -0.04097407       0.01331365      -0.00959897
O        0.73620729      12.34789839       5.60286575       0.00779712       0.01888116      -0.00742716
O       -1.16589191      11.93394869       3.63766258       0.00092849      -0.02539727       0.00532601
W        0.59350764      12.39162213       3.82184850      -0.00503474       0.00835949      -0.00654639
O        6.61908912      11.91723136       5.88281516       0.06110609      -0.00615858       0.02594435
O        9.22462886      12.97649694       5.24027782       0.04142350       0.02580404       0.03677949
O        7.88048897      10.90645016       3.43429300       0.02718958       0.09018470      -0.03167227
O        9.10976753      10.41127705       6.09456329       0.05215789      -0.01137245      -0.06157625
W        8.13194716      11.56311415       5.14246225       0.04566580       0.02605331      -0.00725555
O       11.80987061       1.05954300       7.30776419       0.01863480      -0.00500630       0.01434904
O       12.94488478       2.12502791       8.90092379      -0.00862044       0.02035451       0.01686731
C       10.55613950       2.04985108       9.09910788      -0.00928068      -0.01354173      -0.00537837
C       11.87388517       1.80283272       8.48040578       0.00047195       0.00215670       0.00897628
H        9.78442685       2.22887121       8.35664209      -0.00252250      -0.02594212      -0.01541805
H       10.31660987       1.15877570       9.68614101      -0.00364730      -0.01634619      -0.00727445
H       10.64332641       2.89600745       9.77389601      -0.02816751      -0.01130724      -0.00584817
H       12.73262300       0.95407369       6.98339309       0.01934528       0.00360585       0.01480719
O       10.06779252       3.95909572       4.77281308       0.00740226      -0.01006997       0.00521848
O       10.98033962       3.85290450       6.81196015      -0.01136339      -0.00372481       0.01488298
C       10.13259466       5.96421318       6.05341097       0.00849445      -0.00255954      -0.00535545
C       10.45828127       4.51156488       5.94958006      -0.00000191      -0.00422937       0.00427139
H       10.24052913       6.47260832       5.09781428       0.01777202      -0.00700004      -0.00678234
H        9.07759695       6.04795203       6.33117881       0.00692090       0.00269267      -0.01296231
H       10.74475838       6.40920275       6.83426745       0.00462361      -0.00200769      -0.00274754
H       10.22228788       3.00327915       4.82736740      -0.00475392      -0.01161879       0.01506786
O        2.05554594       6.39844681       2.87144719       0.01224256       0.00115424       0.00148331
O        3.87592580       6.42430060       1.57114937       0.00571555      -0.00033462       0.00141060
C        3.47598503       8.28094569       3.04543942       0.00695117       0.00703853      -0.01660302
C        3.18358405       6.96823176       2.39705608       0.01342151      -0.00267541      -0.01033288
H        2.61148435       8.94587570       3.01260705       0.00409801       0.00268014      -0.01670575
H        3.68099795       8.08741501       4.09980997       0.01341739       0.01530018      -0.01649418
H        4.33501651       8.75078389       2.57820128       0.00244114       0.00651868      -0.02552634
H        2.11782076       5.36586891       2.73547811       0.01197975       0.00078478       0.00640007
O        6.34280555       9.97186752      10.25381956      -0.01930225      -0.01181936       0.00798762
O        8.02964331      10.26907153      11.66037626      -0.01432168      -0.00286222      -0.00048327
C        7.43750386      12.09713687      10.23896008      -0.01614543      -0.01246059      -0.01295125
C        7.24443690      10.67894616      10.72645567      -0.01396948      -0.00841403       0.00036436
H        7.03012714      12.23696191       9.23978285      -0.01359153      -0.01980091      -0.01429684
H        6.88676193      12.72841198      10.93922973      -0.01913674      -0.00895327      -0.01740453
H        8.48466077      12.38833605      10.29355792      -0.01701847      -0.00853905      -0.01236233
H        4.83634416       9.77609408       9.84704125      -0.00881082       0.02829015      -0.02027181
O        5.54308014       9.61991042       0.48132501      -0.00430864       0.01383555       0.02688280
O        5.46111937      11.84681659       0.15445797       0.00437152       0.01625681      -0.01162456
C        3.41425910      10.60396572       0.33951202      -0.00269973       0.01398872       0.00354923
C        4.90789803      10.78134474       0.30277901      -0.00832045      -0.00216258       0.00805014
H        3.10915799       9.81153420      -0.34487421      -0.00216389      -0.00125121       0.02003602
H        3.11600726      10.31846494       1.34598713      -0.01096382       0.04010433       0.00866731
H        2.91791291      11.53320796       0.07991794      -0.00254979       0.00801761      -0.01838908
H        6.50811063       9.73189784       0.33917015      -0.00318560       0.00839534       0.02135921
O        5.10745464       4.36731967      12.62320063       0.00146562      -0.00044894       0.00461602
O        3.10506937       3.50033772      12.10199004      -0.01127958       0.01128465       0.01855996
C        5.08847738       2.22118171      11.61751177      -0.01697677       0.00444722      -0.00509667
C        4.29955000       3.38893842      12.11034316      -0.00171161       0.00534025       0.00712724
H        5.96212021       2.54440545      11.04929840      -0.01277751       0.00198986      -0.00036140
H        5.45273935       1.65215319      12.47622385      -0.02358382      -0.00837357      -0.01076144
H        4.46212410       1.56852129      11.01628660      -0.02244267       0.01680852      -0.01275722
H        4.54545462       5.05241253      13.03946315       0.00809142       0.00086044       0.01276689
O        2.42547411       7.08256372       7.67992827       0.03214198      -0.02203657       0.00352538
O        3.31353241       6.11225796       5.86202619       0.03375965       0.00344670      -0.00930572
C        4.29129472       8.12368646       6.72842608      -0.00016600       0.02162814      -0.01539416
C        3.30109783       7.00760062       6.70035921       0.02304989       0.00079381      -0.00636253
H        3.79135624       9.06205385       6.47712328      -0.02490176       0.01267576       0.00054389
H        4.65469888       8.25462797       7.74727567       0.01526712       0.02185322      -0.02092600
H        5.10891908       7.92106908       6.04402030      -0.00757890       0.04441545      -0.03104312
H        1.93936886       6.22391044       7.78255988       0.04750510      -0.03393091       0.00315671
O        6.92696970       5.51137071      10.83824221      -0.01387191      -0.00201905      -0.00681557
O        8.61665702       5.34518171      12.29782914      -0.00222293      -0.00759029      -0.01763785
C        8.68783203       7.05418807      10.59732463      -0.01559356       0.00002736      -0.01188594
C        8.12382343       5.89711727      11.34486401      -0.01084405      -0.00209183      -0.01536351
H        8.65416907       6.88364928       9.52085583      -0.02561403       0.00835552      -0.01302683
H        8.06592146       7.93076005      10.80436632      -0.01263328      -0.00055018       0.00077304
H        9.70425526       7.26235689      10.90783391      -0.01244938      -0.00464760      -0.01861743
H        6.48125370       4.94111646      11.50077800      -0.01143277      -0.00117643      -0.00383231
O        9.72503219       9.71715058       1.99480681      -0.00446409       0.00685155       0.00053331
O        8.08687170       8.33619797       1.37083638       0.03095460       0.01751375       0.00852804
C       10.35153973       7.61364703       1.06133388      -0.01382005       0.01044768      -0.00181007
C        9.26729188       8.58965791       1.47988828      -0.05865538      -0.00171351      -0.00117056
H       11.02082274       8.04744977       0.30782962      -0.02841263       0.01082486      -0.01412775
H       10.94882324       7.32632914       1.92969207      -0.00101580       0.01779030      -0.00829519
H        9.91416540       6.71629095       0.62893386      -0.01229376       0.00319844       0.00733092
H        8.53205797      10.45332733       2.81673189       0.00687712       0.05192497      -0.02994826
O        7.26772150       3.70254280       8.42982425      -0.01915103      -0.00907403       0.01215237
O        6.91815841       5.20603661       6.80674378       0.01067435      -0.01183069       0.00426537
C        6.51590822       2.87514522       6.34660640       0.01710312      -0.01104295      -0.00044060
C        6.90679232       4.05376264       7.17499733       0.00340347      -0.00944114       0.00571383
H        7.41448151       2.41992142       5.92101206       0.02542584      -0.01585039       0.02250679
H        6.02029730       2.11693347       6.94907617       0.00078958      -0.00802530      -0.01007803
H        5.88645904       3.20431724       5.52640471       0.03706989      -0.00987704      -0.01538421
H        7.39606562       4.51579919       8.94880061      -0.02468924      -0.00830743       0.01318266
O        2.96501663       2.71679007       8.74387029      -0.01033774      -0.00148869       0.04088539
O        1.80923162       4.58888101       8.33029377       0.00671649      -0.00883496      -0.03881466
C        4.11280388       4.74826245       9.00203613      -0.00431496       0.00111812      -0.00283408
C        2.84271571       4.03149388       8.66018852       0.00053763      -0.00532443      -0.00231072
H        4.84853069       4.05919398       9.40121482      -0.00630182       0.00828418       0.01265787
H        4.52136285       5.20823487       8.10201157       0.00113288      -0.00859889      -0.00520162
H        3.90351399       5.54661681       9.71155422      -0.01153370       0.01004711      -0.01482294
H        2.08376845       2.30399108       8.63549976      -0.01084608      -0.00160497       0.04048217
O       10.15252035       9.84140328      10.57030135      -0.00196800       0.00435126       0.01344511
O       10.83782427      11.98075262      10.56543339       0.00498745       0.00115836       0.00757802
C       11.39270016      10.56129120       8.72210810      -0.01123101      -0.00980598       0.00835609
C       10.77652428      10.87309366      10.06021310       0.00167167       0.00286776       0.01266253
H       12.06064251       9.70459182       8.79329218      -0.05362637      -0.04352334       0.00127009
H       10.56934716      10.27210941       8.05306137      -0.02875672       0.03252908       0.01013302
H       11.98416922      11.42301268       8.40215566       0.02707642      -0.03440639       0.01239022
H        9.30824495      10.12935737      11.18362324      -0.00100052       0.00622097       0.01092086
O        8.59628147       5.78893718       3.20575084       0.00330913      -0.01393734       0.00491017
O        6.90850386       4.32110207       3.34241807      -0.00826120      -0.01295531      -0.00282744
C        6.44163251       6.66779481       3.57650287       0.00566822      -0.00320339       0.00065488
C        7.29801628       5.46466053       3.37512749       0.00279013       0.00535965       0.00063394
H        6.99030970       7.46910061       4.06615111       0.00748523      -0.00730466       0.00734934
H        6.13872514       7.03124371       2.59342214       0.01119477       0.00424700       0.00141969
H        5.56443122       6.38189627       4.15106010       0.00198704      -0.00087924      -0.00349086
H        9.08646646       4.95527327       3.15237670      -0.00013322      -0.01377228       0.01276144
O        3.69159304       3.80086915       4.52463215      -0.00232884      -0.01762545       0.01698780
O        2.44466260       3.96996167       2.65494147       0.00355178      -0.00042218       0.01381338
C        4.10086156       2.26385372       2.80146663      -0.01035696      -0.01405609       0.01011321
C        3.31568452       3.41793760       3.31658890      -0.00099552      -0.01028365       0.01564758
H        5.07121070       2.66196647       2.48941103      -0.01041865      -0.01819167       0.00492476
H        4.29384635       1.53511422       3.58625913      -0.01069978      -0.01841912       0.00679787
H        3.58919165       1.81506845       1.95717085      -0.01744340      -0.00750858       0.01067720
H        3.27185408       4.62691850       4.84918921       0.00827858      -0.01112780       0.01618503
O       13.57278378       7.37748840       4.96547029       0.02707095      -0.00198896       0.01022041
O       12.27571352       8.48123262       3.54908919       0.01627420      -0.01506919       0.00537366
C       12.16551067       9.01209682       5.88275366       0.01453014      -0.01261783       0.00820255
C       12.67481916       8.26550167       4.70144935       0.02246320      -0.01159497       0.01460567
H       11.12728162       9.30620982       5.68860124       0.01939990      -0.00261755       0.00087590
H       12.22782553       8.41188833       6.79025742       0.00012358      -0.02185240       0.00377625
H       12.86221270       9.85121916       6.06618233       0.02155958      -0.02232045       0.02751946
H       13.96871155       6.97400686       4.12082362       0.02621744      -0.00318363       0.01049930
O       12.72935803       7.66116290      11.01415021       0.01235253      -0.00925246       0.00425255
O       12.27849326       7.41550239       8.82785290      -0.00366078      -0.00137639       0.00877070
C       12.01958332       5.53325936      10.28843792      -0.00199808      -0.00537622      -0.00185463
C       12.34755097       6.96260029       9.96078113       0.00269440      -0.00296128      -0.00019306
H       12.92605439       5.02903097      10.62576746      -0.00554357      -0.01193217      -0.00305373
H       11.29408144       5.48043711      11.10206229      -0.00295476      -0.00679243      -0.00308709
H       11.64795554       5.02905418       9.40116924      -0.00442257       0.00158616      -0.00477423
H       13.12772049       8.60192166      10.73866447       0.00388302      -0.00509926       0.00227621
