146
Lattice="11.88925399023576 0.0 0.0 0.0 11.88925399023576 0.0 0.0 0.0 11.88925399023576" Properties=species:S:1:pos:R:3:forces:R:3 energy=-89941.34375 stress="-0.0041900817304849625 0.0008020070672500879 0.0007245508604682982 0.0008020070672500879 -0.00417326157912612 0.00016519919881829992 0.0007245508604682982 0.00016519919881829992 -0.004622024949640036" pbc="T T T"
N        3.72759215       5.50232739       3.57716695       0.00066793      -0.00526911       0.00590974
N        3.18153876       3.42318191       3.30485719       0.00839227      -0.00216323       0.00509205
C        4.57822516       6.69089580       3.67660716      -0.00551572      -0.00002629      -0.00021714
C        4.20505064       4.26325538       3.42555512      -0.00492859      -0.00075006       0.00398310
C        2.35085437       5.44025323       3.55354107       0.00338918       0.00552440       0.00872831
C        2.00897846       4.13046186       3.38270140       0.00150204      -0.02572288       0.00420815
C        5.03018879       7.20555482       2.31947926      -0.00701835      -0.00405000       0.00256789
C        3.28802244       1.98628305       3.13243411       0.01072671      -0.00449198       0.00441331
H        4.01432517       7.44027424       4.22738158      -0.00856547      -0.00169066       0.00127639
H        5.44216136       6.41352561       4.28087183      -0.00409779       0.00402434       0.00444348
H        5.24723788       3.99846531       3.40055795       0.00838819       0.00169315       0.00179035
H        1.74317011       6.31992210       3.67060049      -0.00085068      -0.01516850       0.00838345
H        1.06816659       3.59933402       3.33968294       0.01062421      -0.01269580       0.00735414
H        5.56503512       6.43155752       1.76506458      -0.00684964      -0.00280830       0.00443252
H        5.71962551       8.03765918       2.46468452      -0.01122026      -0.00198585      -0.00200433
H        4.18107700       7.56597957       1.73895800      -0.00904197      -0.00846071       0.00191626
H        4.31640080       1.75639043       2.85655825       0.01055248      -0.00056581      -0.00282155
H        2.97048589       1.45060470       4.04196718       0.01800603      -0.00465041       0.00335369
H        2.59087500       1.69026424       2.35532169       0.00840971      -0.00586013       0.00752382
N        4.00701824       8.75954966      10.70455098       0.00144720      -0.00172970       0.00138728
N        5.89147999       9.83581630      10.71284984       0.00130278      -0.00335678      -0.00412579
C        2.59905203       8.41357585      10.96333842       0.00138134       0.00080207       0.00198868
C        4.58861665       9.92301301      11.00478474       0.00286311      -0.00269723      -0.00087905
C        4.96277450       7.91527720      10.20243346      -0.00070664      -0.00195110      -0.00056306
C        6.14912522       8.58324916      10.20779523      -0.00116250      -0.00343871      -0.00417265
C        1.61232533       9.20001814      10.13026056       0.00370800       0.00689617       0.00566080
C        6.87971328      10.87683189      10.94136261       0.00223130      -0.00395948      -0.00779895
H        2.51691769       7.35142741      10.74176118      -0.00171492       0.00214192      -0.00150184
H        2.42177689       8.56057873      12.03136977       0.00262651      -0.00243221       0.00231564
H        4.09498579      10.76690422      11.44894065       0.00445587      -0.00186355      -0.00024351
H        4.70491284       6.93812455       9.84239790      -0.00246958      -0.00215923       0.00037218
H        7.13297703       8.29618255       9.88325229      -0.00236712      -0.00376023      -0.00713232
H        1.73255617      10.27558281      10.25767476       0.00482988       0.00537491       0.01341319
H        0.60636717       8.94208786      10.46345193       0.00313315       0.00635061       0.00218996
H        1.70387128       8.95754995       9.07618091       0.00528231       0.01418374       0.00449452
H        6.36517680      11.77350858      11.27756420       0.00367962      -0.00378203      -0.00705676
H        7.58351743      10.55816996      11.71038600       0.00390927      -0.00362173      -0.00986195
H        7.41144506      11.09077545      10.01402418      -0.00053632      -0.00485205      -0.00905672
N        3.84549862       2.52349137       8.46785886       0.00051147      -0.00393629       0.00653878
N        5.38447483       3.44053355       9.68517690      -0.00370669       0.00202730       0.00544995
C        2.64961036       2.41067407       7.62777927       0.00170934      -0.00892749       0.00597113
C        4.17775946       3.62196651       9.14248429      -0.00392950      -0.00386620       0.00619128
C        4.87418878       1.62240613       8.56165319       0.00398690       0.00035799       0.00496470
C        5.84206423       2.19329233       9.33329795       0.00258422       0.00471479       0.00495031
C        2.86524110       3.15871240       6.33500038      -0.00143137      -0.00687152       0.00706986
C        6.08218864       4.39103767      10.52719879      -0.00655952       0.00589037       0.00296742
H        2.46085420       1.35833957       7.41512741       0.00670668      -0.00901899       0.00505802
H        1.81267192       2.80977197       8.19981102      -0.00056249      -0.01379742       0.00578952
H        3.54720460       4.48428699       9.27190602      -0.00806120      -0.00653213       0.00726451
H        4.83888630       0.67567155       8.05259929       0.00855845       0.00119191       0.00560457
H        6.82952074       1.86111626       9.59901360       0.00331110       0.00908424       0.00364612
H        2.99537179       4.23078875       6.50354428      -0.01077649      -0.00630583       0.00749979
H        2.00400426       2.99468249       5.69658866       0.00223091      -0.01455440       0.00491319
H        3.74571270       2.75953442       5.83181466       0.00280376       0.00065005       0.00930350
H        5.38075686       5.14304546      10.87013852      -0.01187769      -0.00400849       0.01282717
H        6.48935777       3.87296419      11.39356905       0.00721481       0.00709958      -0.00368509
H        6.89688556       4.84735265       9.97298903      -0.01733497       0.01797010      -0.00172678
P        0.47433229      12.32660786       4.73404903       0.00103856       0.01294458      -0.00148303
O        0.34230941      13.34022317       3.59699542       0.00813603       0.01454985      -0.00038838
O       -0.47844241      12.59626713       5.92554916      -0.00413489       0.01480415      -0.00626135
O       -0.02227598      10.91034839       4.32835585      -0.00151318       0.01507843      -0.00422126
O        1.93024174      12.31710604       5.24132873      -0.00219131       0.00730991       0.00363320
C        1.77104868       9.80029964       6.72002273       0.00562574       0.00218964      -0.00419718
C        3.09265576      10.08891482       7.03240119       0.00554596       0.00345449      -0.00616920
C        1.37975361       8.48168874       6.55328450       0.00426161       0.00324029       0.00386137
C        4.01208178       9.06466519       7.21153028       0.00430894       0.00286299      -0.00081208
C        2.29704017       7.44441737       6.70840333       0.00288399       0.00259252       0.00885798
C        3.61480747       7.73818168       7.04692850       0.00304236       0.00361016       0.00639236
H        1.06491506      10.60173694       6.56980557       0.00746155       0.00285965      -0.00991899
H        3.39329606      11.12596344       7.08366752       0.00652583       0.00254868      -0.01252589
H        0.36045269       8.27396478       6.26532307       0.00418593       0.00152668       0.00598607
H        5.04333359       9.29606703       7.44429362       0.00421740       0.00333411      -0.00224811
H        1.97824586       6.42001358       6.55642097       0.00168078       0.00292055       0.01474294
H        4.34041336       6.93655040       7.15030299       0.00196392       0.00345089       0.01010105
C        8.81084728       1.67162732       7.73985968       0.00419465      -0.01032244      -0.00479182
C        9.30218052       1.84513287       9.02985108       0.00015381      -0.00984778      -0.00440990
C        8.30055970       2.76136119       7.04312711       0.00141963      -0.01180058      -0.00517045
C        9.30426989       3.11093078       9.60949398      -0.00639884      -0.01098229      -0.00236637
C        8.32286112       4.03003856       7.60892142      -0.00505029      -0.01287959      -0.00304055
C        8.84834000       4.20608245       8.88340558      -0.00997116      -0.01234080      -0.00255738
H        8.85881227       0.70293269       7.26162824       0.00970283      -0.00880888      -0.00619955
H        9.71600936       1.00073951       9.56954665       0.00271030      -0.00830641      -0.00451427
H        7.92998162       2.62083627       6.03553938       0.00541853      -0.01210365      -0.00573325
H        9.68771472       3.24840053      10.61357173      -0.00948897      -0.01081902      -0.00221336
H        7.99127769       4.89044437       7.03878935      -0.00719379      -0.01396621      -0.00312482
H        8.94086024       5.20520487       9.29594414      -0.01497154      -0.01294111      -0.00084899
C        8.72704469       9.30453851       6.88021491       0.00979382      -0.01369649      -0.00429425
C        7.51087683       8.71204111       6.55041595       0.00637491      -0.00399176      -0.00601258
C        9.27152947      10.28882101       6.06223797       0.01442005      -0.01177694       0.00100281
C        6.83219589       9.11387943       5.40453954       0.00736162       0.00688203      -0.00208994
C        8.59070826      10.68726934       4.91539553       0.01508062      -0.00137435       0.00498921
C        7.37034744      10.10480169       4.59043028       0.01211850       0.00821792       0.00347026
H        9.26089663       8.99051533       7.77141335       0.00918256      -0.02246211      -0.00778554
H        7.09092302       7.93447299       7.18131414       0.00298077      -0.00528788      -0.01054102
H       10.21882842      10.76744582       6.28178517       0.01647812      -0.01871477       0.00282590
H        5.87847660       8.66567414       5.15886581       0.00460041       0.01416414      -0.00353840
H        9.03860289      11.44656580       4.28665133       0.01927021      -0.00009529       0.00948445
H        6.83565013      10.41511563       3.69853324       0.01261156       0.01685084       0.00659166
C        0.81408223       3.70486685      -0.55196596      -0.01050605       0.00244689      -0.00817144
C        1.21832028       4.97614687      -0.16392913      -0.00265916      -0.00086566      -0.00718729
C        1.69861038       2.63474263      -0.48119268      -0.01913898      -0.00378243      -0.00504838
C        2.51221797       5.17204505       0.30805168      -0.00330078      -0.01013784      -0.00314622
C        2.99565358       2.83582917      -0.02814100      -0.02005529      -0.01343992      -0.00083717
C        3.39823296       4.10445540       0.37163616      -0.01191626      -0.01672093       0.00036623
H       -0.19469309       3.53868570      -0.90031266      -0.01008320       0.01022433      -0.01198429
H        0.51746643       5.80225173      -0.19742988       0.00377493       0.00365453      -0.01005466
H        1.36204572       1.64486216      -0.75933745      -0.02565624      -0.00081748      -0.00675981
H        2.81922208       6.14669700       0.66250825       0.00265518      -0.01266134      -0.00305987
H        3.69319670       2.00672502       0.02456673      -0.02623844      -0.01788820       0.00171390
H        4.39654844       4.25925624       0.75821182      -0.01236571      -0.02459357       0.00335343
C        0.95423741       9.40392785       2.54631568      -0.00370760       0.01144150      -0.00294977
C        2.13987682       9.25903500       3.26402818      -0.00573280       0.00456246      -0.00260074
C        0.88282147      10.31692041       1.49734604       0.00200316       0.01191790      -0.00242171
C        3.23867195      10.04562907       2.96497921      -0.00149733      -0.00136512      -0.00128765
C        1.98420892      11.10275631       1.19972051       0.00640764       0.00564739      -0.00121541
C        3.16343139      10.96406779       1.92556474       0.00427136      -0.00105955      -0.00039271
H        0.08822305       8.81598959       2.81699209      -0.00689623       0.01634689      -0.00398147
H        2.16340127       8.60306714       4.12208010      -0.00964072       0.00344990      -0.00357953
H       -0.04471243      10.45498418       0.95871330       0.00369735       0.01709087      -0.00287545
H        4.13539956       9.98362773       3.57072927      -0.00250505      -0.00656198      -0.00091608
H        1.91127398      11.85195429       0.42088148       0.01100077       0.00591499      -0.00093462
H        4.01215342      11.60683415       1.71706152       0.00795867      -0.00568883       0.00053318
C       10.84424084       4.97607369       4.93049708      -0.00241377       0.02107757       0.00374034
C       10.88963632       6.09419553       5.75749186      -0.00969055       0.01735272       0.00853831
C       11.12820608       3.71605906       5.43790350       0.00275277       0.02076212      -0.00083409
C       11.27194565       5.95140475       7.08695574      -0.01071016       0.01382913       0.00762147
C       11.51559865       3.57883731       6.76511033       0.00057700       0.01696323      -0.00167686
C       11.61266750       4.69693492       7.58163075      -0.00560811       0.01393437       0.00333202
H       10.57064272       5.08182366       3.88832595      -0.00101746       0.02428334       0.00419110
H       10.63115497       7.07147200       5.36511625      -0.01454514       0.01733901       0.01250603
H       11.08040316       2.83647306       4.80651593       0.00724220       0.02299985      -0.00405009
H       11.32116965       6.81868438       7.73363828      -0.01514200       0.01136276       0.01096823
H       11.71343539       2.57790848       7.12969747       0.00304759       0.01668668      -0.00488489
H       11.91968744       4.59374340       8.61689930      -0.00652278       0.01092461       0.00252138
C        7.99496224       4.60780749       1.98331669       0.00783235      -0.00189304      -0.00459651
C        7.83809709       5.01666916       3.30350764       0.00122211      -0.00056364      -0.00641122
C        8.49508720       5.50073170       1.03851202       0.00639268      -0.00182042      -0.00440607
C        8.17008244       6.31411552       3.67757967      -0.00675436       0.00172770      -0.00802054
C        8.84063073       6.79456962       1.41759113      -0.00172120       0.00054877      -0.00587241
C        8.67808809       7.20308370       2.73773577      -0.00860863       0.00195634      -0.00781681
H        7.76090053       3.58704247       1.70176600       0.01421637      -0.00340204      -0.00335942
H        7.50537496       4.31165952       4.05745380       0.00288725      -0.00055405      -0.00644285
H        8.63898993       5.18254280       0.01294337       0.01184749      -0.00304550      -0.00267655
H        8.07633153       6.62595282       4.70971952      -0.01151797       0.00295816      -0.00931080
H        9.25145371       7.48178959       0.68669019      -0.00244098       0.00065980      -0.00554655
H        8.95815821       8.20425353       3.04312841      -0.01487099       0.00372784      -0.00891800
