148
Lattice="11.454453720564933 0.0 0.0 0.0 11.454453720564933 0.0 0.0 0.0 11.454453720564933" Properties=species:S:1:pos:R:3:forces:R:3 energy=-71492.96875 stress="0.001707756076939404 -0.00031434334232471883 0.0006565016810782254 -0.00031434334232471883 0.0012822439894080162 0.0007080936629790813 0.0006565016810782254 0.0007080936629790813 0.0012779777171090245" pbc="T T T"
N        2.52559481       7.43879700       5.94595879      -0.00815308      -0.00406849      -0.00152488
H        1.52781437       7.58680631       5.72386319      -0.00975424      -0.00407269       0.00417714
H        2.65736221       7.46447645       6.97207442      -0.00155563      -0.00568763      -0.00111920
H        2.78625412       6.49099361       5.63776311      -0.00935729      -0.00308657      -0.00481744
H        3.06179904       8.19233083       5.37742937      -0.01144230      -0.00310603      -0.00108194
N        5.49615891       1.81600235       5.33770279      -0.00341028       0.01024267      -0.00049930
H        4.05165395       0.64276025       4.37939382      -0.00229581      -0.00102701       0.00330008
H        5.96059218       1.52260542       4.48590960      -0.00308807       0.02440570      -0.01239857
H        5.95591843       2.66630531       5.64633299      -0.01126765      -0.00461842       0.01369637
H        5.66399516       1.08661914       6.02590440       0.00448586      -0.01283418      -0.01637498
N        9.77079370      11.17068819       9.78163724      -0.00837836       0.01028505       0.00501388
H        8.91123031      10.54871686       9.50220545      -0.00493494       0.00827521       0.00692637
H       10.37397860      11.23919721       8.96706464      -0.01030654       0.01501629       0.00351036
H        9.45006660      12.13526874      10.00903703      -0.00878580       0.00986248       0.00917113
H       10.34437082      10.81009738      10.58562801      -0.00472093       0.00966698       0.00229597
P        2.81873140      10.37216871       3.85320203      -0.00850719       0.00536165       0.00851761
O        1.87703612      10.88928396       4.93467996      -0.00212944       0.00110906      -0.00190210
O        3.65750091       9.17990190       4.35372926      -0.00805968      -0.00339198       0.00144592
O        2.19715820      10.10043145       2.49694902      -0.00918847       0.00220066      -0.00232899
O        3.89700800      11.58822673       3.57085138      -0.00318265      -0.00494355      -0.00170900
N        4.18598227       2.99131757       2.08636109      -0.00871980       0.02645928      -0.01274984
H        4.06308333       2.26159377       2.78497875       0.03425772       0.02069364       0.01148604
H        3.98423826       2.50589890       1.21085000       0.00697133      -0.01179094       0.00092850
H        3.43283308       3.65645759       2.22613810       0.01534736      -0.00792000      -0.00607791
N        9.33025759       1.56462809       1.72949285      -0.01768082      -0.01594901       0.00387327
H        9.15205965       1.94530026       0.80506190       0.01470468      -0.00151023      -0.01655118
H       10.00418202       2.16774022       2.19161182       0.02020814      -0.02073444       0.00334826
H        8.45819178       1.61911974       2.24328462       0.03726596       0.01591837      -0.01769602
N        2.63464247       6.80767246       2.68032022       0.02426016      -0.01087464       0.00344811
H        2.33797034       7.01034475       1.72941933       0.01485950      -0.00361501       0.00695550
H        3.53453805       6.34736255       2.57698201       0.02795489      -0.00148024      -0.01053796
H        2.86965281       7.72214874       3.08003747       0.01962519      -0.01314823       0.00873036
N        6.00164895       1.85227212       8.76347147      -0.00566036       0.00683244       0.00641365
H        5.89566540       2.67850147       8.18062990      -0.01836771       0.00839113       0.01171960
H        5.25020930       1.92590311       9.44334441       0.01497461       0.00877844       0.02946013
H        5.73749744       1.05874662       8.18239959      -0.02722357       0.00997494       0.01143450
N        2.87555468       8.58210158      -0.10607759       0.00528100       0.00508407       0.00968810
H        2.50471014       9.21797718      -0.80934056      -0.00599924       0.00086932       0.01018434
H        3.88560998       8.61943557      -0.21911701       0.00323199       0.01692078       0.00209964
H        2.69659958       9.03927274       0.79405153       0.00670634       0.00525261       0.00946712
N        6.11839659       5.28346416       7.95987515      -0.00451952      -0.02515891      -0.00414874
H        6.33395522       5.17170809       8.94426206      -0.01341819      -0.02077422      -0.00173058
H        5.88155762       6.26089982       7.83188578       0.00084309      -0.02599943      -0.01149960
H        6.96511045       5.11789393       7.42520545       0.00121243      -0.03093011       0.00398811
N        0.65847843       2.88913767       9.44567404       0.00036007      -0.01397374       0.00840431
H        0.36918822       3.07090013      10.39897706       0.00710609       0.00282190       0.00846748
H        0.53461816       3.75464687       8.92471211       0.00611149      -0.01982194      -0.00170182
H        1.65617918       2.70087884       9.45507742      -0.00174543      -0.02250373       0.00605537
N        0.13049208       8.37330553       4.58320554      -0.00745143      -0.00926117      -0.00467801
H        0.60085476       7.97543460       3.77520264      -0.00857165       0.00334416      -0.00868047
H        0.52996996       9.31044308       4.68047878      -0.01086816      -0.00616360       0.00476672
H       -0.83655298       8.48455602       4.30081049      -0.00886736      -0.00789106       0.00029494
N        6.63898679       7.84095454      11.17575723      -0.01412704      -0.01144145       0.00440661
H        6.07819397       7.05231060      10.86266563      -0.00743652      -0.01562530       0.00212756
H        6.42825474       7.94066293      12.17518081      -0.01740445      -0.01198670       0.00354688
H        7.60727301       7.54120376      11.09739579      -0.01147619      -0.00542191       0.00857829
N        4.31244259       5.45551071      -0.19559843       0.01632810       0.00188256      -0.01659715
H        3.65084571       4.74752256      -0.49471363       0.01035132       0.00181180      -0.00597188
H        3.76430921       6.28379987       0.02158282       0.02022845       0.00238131      -0.00863725
H        4.71343882       5.11337131       0.67190091       0.02917686       0.00183732      -0.02312990
N        8.34370344      10.00527963       2.20229725      -0.00360626      -0.00232497       0.01168932
H        7.69071096       9.42144568       1.68883689       0.01515575       0.00397396      -0.01830721
H        8.90663945      10.52358402       1.53766438      -0.00513513       0.03324679       0.03615967
H        7.76699541      10.70100022       2.66219432      -0.02309761      -0.02897083       0.02561417
N        0.05238538      10.92499947       0.56284661      -0.00144878       0.01230304      -0.00234464
H        0.77438861      11.48377001       0.11634023      -0.00342536       0.02787793       0.01395372
H       -0.53973674      11.56945059       1.08611422      -0.01338410       0.00185503       0.00073861
H        0.56519475      10.37871285       1.26075883      -0.00443562       0.00775501      -0.00710069
N        3.59719060       0.48057757       0.30144371      -0.00506802       0.01176584      -0.00565019
H        3.24738036       0.01240353      -0.52982666      -0.00673721       0.00808687      -0.00255907
H        3.17390175      -0.00400745       1.09715636      -0.00275369       0.01662026      -0.00245008
H        4.58371945       0.24893885       0.35869635      -0.00461483       0.00989113      -0.00648767
N        8.54496185       3.93461838       5.30782119      -0.00006890      -0.00426646      -0.00866183
H        8.35870041       3.27868579       4.55600201       0.00328641       0.01272995      -0.02381489
H        8.98534788       3.36752904       6.03647044      -0.00164940      -0.01807933      -0.01809352
H        9.28875424       4.53594433       4.96291500      -0.00193816       0.00588970       0.00523932
N        1.91257252      -0.25876014       8.94593515       0.01174437       0.00117517      -0.00843593
H        1.61171468      -0.82413888       8.15753631       0.01500554      -0.00392165      -0.00666881
H        2.63142234       0.36056647       8.57489915      -0.01341251       0.02536067      -0.01703175
H        1.15248433       0.38537435       9.14524457      -0.00476541      -0.02425522       0.00742841
N       -0.00580973       5.08823168       3.80067704      -0.00017477       0.00172316      -0.00582787
H        0.15711304       4.12658493       3.50352662      -0.00780968      -0.00090475      -0.00330836
H        0.80163991       5.63021894       3.49167831       0.00468314      -0.00603350      -0.00405294
H       -0.77540085       5.44072532       3.24030084       0.00343242       0.00653121      -0.00806381
N        2.85938053       4.54482836       5.06289372       0.00163062       0.00099784      -0.00840166
H        2.69210100       4.84446818       4.10758679       0.01827747       0.01014891      -0.00438827
H        1.97569838       4.18908048       5.40920468      -0.00586213       0.00403440      -0.02025636
H        3.50685995       3.76384774       5.04179602      -0.00358294      -0.00710639      -0.00363470
N       10.32717696       7.63010342       1.30886386       0.00336887       0.00305372       0.00239851
H       10.06666100       7.77441048       0.33566287       0.00006942      -0.00477196       0.00136473
H       11.31996983       7.83161444       1.36228523       0.00258442       0.00768610      -0.00102330
H        9.85994139       8.35861721       1.84301744      -0.00012688       0.00319530      -0.00146128
N        2.57518379       6.67638592       8.75781077       0.00154031       0.00187725      -0.00285456
H        3.34788556       6.02993626       8.87762935       0.00488430       0.00754882       0.00690453
H        2.44608931       7.13721068       9.65649788      -0.01237840      -0.00180484      -0.00330877
H        1.74792395       6.12075115       8.55756181       0.00840135      -0.00403635      -0.01525480
N        4.61975294      10.59809835       7.03611669      -0.00332066       0.00978062      -0.01744524
H        4.89831826       9.89635736       6.35347507       0.00148109       0.01150481      -0.01625985
H        3.70319497      10.88629631       6.69364442      -0.00922605      -0.00103306      -0.01687666
H        4.44326634      10.09853719       7.90242642       0.00124270       0.00956234      -0.01800442
N       11.24627188       5.12739496       7.08377708       0.00072822      -0.01140372      -0.00266054
H       10.57244166       5.83521070       7.35642884       0.00226180      -0.01333657       0.00481150
H       11.41094891       5.28417560       6.08615668      -0.00903068      -0.00757990      -0.00348446
H       10.74000124       4.24465014       7.12341767      -0.00141811      -0.01082862      -0.00425807
N        5.85340673       5.10054230       3.92223939      -0.00393537      -0.00528240      -0.00087607
H        5.56618615       4.32068367       3.33380178      -0.00367188      -0.01041374       0.00455480
H        5.10930989       5.25454350       4.59381655       0.00318085      -0.00383557       0.00185492
H        6.66672670       4.81419580       4.46223721       0.00281818      -0.00196212      -0.00458284
N        0.97491653       1.89650107       2.96114740      -0.00481994      -0.00257395      -0.00129098
H        0.72643497       1.05333360       2.44909656       0.03265707      -0.01982974       0.00683064
H        1.30504241       1.51284231       3.84715778       0.00152846       0.01893643       0.00653062
H        1.82028951       2.21037222       2.49300316      -0.01414363       0.02505621       0.00378349
N        9.98367704       1.87328490       7.17766839      -0.00666387      -0.00617045       0.00083435
H        9.18472549       1.45214277       7.63584023      -0.00986661       0.00660533       0.00427882
H       10.75389982       1.89325349       7.84205425      -0.00764260      -0.00036754       0.00282299
H       10.21154111       1.27251586       6.37825684      -0.00531323      -0.01884811       0.00937009
N        6.02666547       8.06023151       2.80834693       0.00436357      -0.00300588       0.00683320
H        5.96335304       7.06990184       3.04916587       0.00004576       0.00119300       0.02555357
H        5.21559776       8.51662558       3.23339296       0.01239896       0.01066458       0.00173864
H        6.83726959       8.40072810       3.31339937       0.01361859       0.00230807      -0.00914078
N        2.96461203       2.35411122       7.47370707       0.00017647       0.00120997      -0.00457999
H        3.11961708       3.35734892       7.48042882       0.00830122      -0.00185454      -0.00402067
H        2.02365364       2.20776458       7.12261729       0.00242312       0.00873583      -0.01706962
H        3.58988937       1.98925369       6.75989083       0.00454448      -0.00504886       0.00116697
N        7.61134604       9.72557592       8.92851758      -0.00546128      -0.00318110       0.00319794
H        7.16649027       9.18298798       9.67816726      -0.00544487      -0.00970251      -0.00198704
H        7.85412455       9.07733535       8.18044334      -0.00203259       0.00180782      -0.00072058
H        6.90851049      10.35152511       8.54975813      -0.00657004      -0.00254679       0.00644542
N        8.42847207       8.11871159       6.11505230       0.00184166      -0.00652217       0.01592213
H        9.41516158       7.90663997       6.00472432       0.00257964      -0.00823382       0.01407798
H        8.27960539       9.00046198       5.63548727       0.00337946      -0.00769931       0.01155493
H        7.92300346       7.42012522       5.58002540      -0.00021672      -0.00604381       0.02065556
N        9.31972080       4.78046060       0.92568530      -0.00509440      -0.00246246      -0.00087231
H        9.55272571       5.75237461       1.16338140       0.00468213      -0.00285640      -0.01225626
H       10.11915813       4.23347833       1.22512856      -0.01603217      -0.00935400       0.01622059
H        8.54846295       4.50261809       1.52278609      -0.01313742       0.01697805      -0.00171120
N        8.77881000       2.53610941      10.06330590      -0.00383587       0.00506434       0.00042301
H        7.83529187       2.35598026       9.70621057      -0.00041616       0.00113973      -0.00387769
H        9.31803268       2.89959411       9.28462358       0.00173881       0.00147849       0.00175504
H        8.72726273       3.30736127      10.72817192      -0.00786344       0.00798319      -0.00238403
N        9.37811968       6.64828837       9.79406896       0.00111187       0.00820771       0.00239554
H        9.23690315       5.82974519      10.38357528       0.00000115      -0.00036953      -0.00918629
H       10.31411025       6.57640277       9.41345009       0.00378246       0.01752717       0.00779932
H        8.73272917       6.58971055       9.01412278       0.00636449       0.01607708      -0.00243015
N       10.39037582       0.12011691       4.66000918       0.00716192      -0.00300220       0.00717479
H       11.37861203      -0.14216210       4.74059208       0.01266339      -0.00181719       0.00277499
H       10.36076160       0.81040604       3.91861958       0.00584202       0.00900754       0.02053962
H        9.90288263      -0.68446293       4.27901449       0.00985295       0.00261913      -0.00175706
