149
Lattice="11.680078282614877 0.0 0.0 0.0 11.680078282614877 0.0 0.0 0.0 11.680078282614877" Properties=species:S:1:pos:R:3:forces:R:3 energy=-3277074.5 stress="0.0023293488193303347 -0.00026705772324930876 4.379356869321782e-05 -0.00026705772324930876 0.0034269262105226517 0.000490758873638697 4.379356869321782e-05 0.000490758873638697 0.004499547183513641" pbc="T T T"
No      10.93573024       2.41701919       0.56850850       0.00388896      -0.00805378      -0.00627658
No       9.53017715       5.37954012      10.44872026      -0.01117089      -0.00134006      -0.01603806
No      11.01500701      10.31121623       5.24736870      -0.00260648       0.00195777       0.00156157
P        5.41532192       2.18534578      11.07292196      -0.00147323       0.04447198      -0.00081462
O        5.40998352       0.75643063      10.60210579       0.01761693       0.02223265      -0.00225985
O        4.02967336       2.67933406      11.51395418       0.01321638       0.00000221       0.01808274
O        6.28254035       2.23273606      12.51670823       0.00585836       0.00966021       0.01758641
O        6.15122910       3.18760537      10.18580996      -0.01001924       0.02124608       0.03862941
P       10.80308385      -0.02467213      10.64901996       0.00359218      -0.01234084       0.00237544
O       11.38584871      -1.38921022      11.01000225       0.01211137      -0.01118636      -0.00673783
O        9.89616040       0.47162812      11.84271730       0.01184952      -0.01841626       0.01200676
O       11.89437406       1.11584449      10.60259956      -0.00240254      -0.00892454      -0.00786138
O       10.04771073      -0.03108834       9.30966341      -0.01095790      -0.01337388       0.00818586
N        7.09114604       7.64800570       6.20789655       0.00787082      -0.00170597      -0.00994043
H        6.47206309       7.99279573       6.94577292       0.00366789       0.00007714      -0.01479700
H        6.79480938       6.68645156       6.06762079       0.01521757      -0.00552840      -0.00362846
H        6.78836777       8.13619697       5.36562107       0.00875074      -0.01093104      -0.01604010
N        1.39251494       3.93644508      11.87538376      -0.00166094       0.00203824      -0.00042527
H        2.10366994       3.26952310      11.54648984       0.01205117       0.00653417       0.00928789
H        1.84450952       4.38070458      12.67193812      -0.01331668       0.01198749       0.00085306
H        1.35580910       4.64587189      11.15006381      -0.00419803      -0.00451219      -0.00551757
N        1.49160229       8.56408048       5.25261394      -0.00352502      -0.00096482       0.01419929
H        1.71621069       8.19737401       4.32240119       0.00141604      -0.00049967       0.01455545
H        1.11855137       7.78673390       5.78975479      -0.01055074      -0.00103632       0.00974116
H        2.36823778       8.81135643       5.69944320      -0.00602037      -0.00545655       0.02144821
N        7.66171998      10.85571030       1.41559747      -0.00950520      -0.00112849      -0.00321516
H        7.35876563      10.20636124       0.68918294      -0.00637992       0.00221615      -0.00526542
H        8.55169450      11.21290808       1.04092768      -0.00673331       0.00047761       0.00089771
H        7.02585778      11.64219896       1.28180446      -0.00933195      -0.00092643      -0.00063155
N        0.30468564      10.26311073       2.53063791      -0.00325596      -0.00251433       0.01158154
H        0.65598435       9.31506834       2.62398047      -0.00339159      -0.00283645       0.01139471
H       -0.19068632      10.29226799       1.63102327      -0.00906149      -0.00332461       0.01514250
H        1.13190818      10.84169210       2.35462438      -0.00345251      -0.00319508       0.00559197
N        4.80759582       0.42654226       2.77411188      -0.00807465      -0.00254616       0.00121281
H        5.44511772      -0.36190086       2.74383877      -0.00348298       0.00289890       0.00080007
H        5.26483490       1.13990575       2.20494980      -0.01130623       0.00306543       0.00411895
H        3.98893695       0.15014441       2.23161876      -0.00590448      -0.00466783      -0.00013248
N       10.97362591       3.67943715       9.00241802       0.00039089      -0.00106871      -0.00909874
H       10.12610870       3.11979870       8.94050875       0.00340347      -0.00559033      -0.00919257
H       11.67560950       3.01813203       9.34036975       0.00450584       0.00366634      -0.00808758
H       11.22380791       3.97648552       8.05959816      -0.00059257      -0.00003775      -0.00914484
N        2.66973015       0.07814631       9.03919173       0.01462435      -0.00217905       0.00572928
H        1.96024906       0.45858004       9.67178069       0.00605680      -0.00668727       0.00499605
H        3.57684993       0.34527681       9.43193287       0.00598392       0.00117048       0.00468556
H        2.59861978      -0.92948001       9.15149914       0.01501574      -0.00408778       0.00292425
N        1.87943873       7.17413073       2.41465421      -0.00481003       0.00338793       0.00885764
H        1.81284799       7.63273006       1.51224281       0.01531984       0.01039655       0.01162905
H        1.01494828       6.65751401       2.55161166      -0.01541404       0.01822539      -0.00491037
H        2.61353987       6.47392372       2.33058023      -0.01498431      -0.00895388       0.01487243
N        1.58733816       4.19603824       3.99890399      -0.00271645      -0.00556387       0.00467241
H        1.54066359       3.18482488       4.09885310       0.00819408      -0.00452439       0.01633085
H        1.96094575       4.52763863       4.88323405      -0.00449930       0.01037788      -0.00122358
H        2.32873010       4.36706681       3.31522369      -0.00555637      -0.00442126       0.00060577
N        9.94275922       7.82080372      -0.08940444       0.00837973      -0.00651801      -0.01404062
H       10.18037704       7.67776400       0.88747765       0.00703641      -0.00969065      -0.01345009
H        8.98303156       8.15694207      -0.09863946       0.00998253      -0.00353281      -0.01486277
H       10.49685676       8.64655816      -0.39532731       0.01244208      -0.00798604      -0.01170345
N        1.60540564       5.87139954       8.55145365      -0.00224173      -0.00613397      -0.00662461
H        2.19970255       6.63179666       8.86428071       0.00200468      -0.00915091      -0.00763856
H        2.13181833       4.98108361       8.60001701      -0.00668269      -0.00954679      -0.00241713
H        0.84720587       5.80022638       9.22165539      -0.00420121       0.00034929      -0.00816707
N        5.11970161      10.42325675       5.41482893       0.00379604       0.00942229       0.00938450
H        4.26525985      10.39647020       5.95813745       0.00352306       0.01039491       0.00893061
H        5.13037289       9.60630920       4.81145961       0.00563399       0.00482314       0.01494710
H        5.02641002      11.22706840       4.79584971       0.00098657       0.00493687       0.00367250
N       11.14185668       5.36067531       6.32516549      -0.00170663      -0.00083470      -0.00936539
H       11.51775781       5.22980972       5.39223597      -0.00263672      -0.00769429      -0.00922099
H       11.88949068       5.72558815       6.91950403       0.00158462      -0.00500464      -0.01069824
H       10.41057885       6.05852312       6.26495536       0.00422381       0.00519346      -0.01172971
N        4.05332395       4.46034484       2.00027011      -0.00260821       0.02290260       0.01177378
H        4.71301576       5.19058241       1.75301237      -0.00763046       0.02155586      -0.00085166
H        4.06004192       3.82458878       1.17138964      -0.00489305       0.01201239       0.01393816
H        4.52753626       3.92241362       2.72005917       0.00053406       0.03123958       0.01393253
N        2.17855927       0.84983235       1.27440140      -0.00768215      -0.01234335      -0.00111024
H        1.49394811       0.64015102       0.54694644      -0.00173603      -0.01435262      -0.00345127
H        2.93516318       1.33479288       0.77202336      -0.00496901      -0.00463720       0.00156863
H        1.77578051       1.54813150       1.89005280      -0.01135965      -0.01445618      -0.00115474
N        8.82395007       1.50150244       6.92805107      -0.00311749      -0.00627962       0.01051515
H        9.21531954       2.43397384       6.85495165      -0.00395100      -0.00535043       0.01008454
H        9.23599783       1.06701125       7.75982900      -0.00330506      -0.00757963       0.00899810
H        7.84037613       1.62162688       7.15085945      -0.00469439      -0.01003401       0.00493513
N        6.52177514       8.49099378       3.06663527       0.00123318      -0.00289273       0.00437969
H        7.19356471       7.73311213       3.03786304      -0.00048975      -0.00419301      -0.01653439
H        6.97185338       9.29623344       2.61470555      -0.00747341      -0.00170897       0.00049323
H        5.75466307       8.22172950       2.46070253      -0.01412322       0.00183728       0.02161963
N        3.12302257       3.28788007       8.58087017      -0.00305668      -0.00762013       0.00635202
H        3.51685598       3.20798681       9.52239377      -0.00457405      -0.00307459       0.01127159
H        3.93540513       3.36945415       7.97339335      -0.00092245       0.00531636       0.01223198
H        2.73161591       2.36700799       8.39775793       0.01032767      -0.01118013       0.00521114
N        7.07194605       9.99234841      10.08162867       0.01111919       0.02028443      -0.01022440
H        6.46809401      10.76066696      10.40460195       0.01746482       0.01513438      -0.01300003
H        6.62243721       9.66641924       9.23063519       0.01962588       0.02537967      -0.02092959
H        7.93365355      10.46126616       9.80527847       0.02138211       0.01494771      -0.00247912
N        9.71953496       9.56772619       7.46493872       0.00120026      -0.00701427      -0.00289184
H       10.12982127       8.75817511       7.91642109       0.00210438      -0.00970425      -0.00767545
H        9.75000802      10.32218431       8.18154015      -0.00026792      -0.01083343       0.00067452
H        8.75645845       9.33232090       7.24816137       0.00156577      -0.00761801      -0.00558925
N       10.70352656       5.50978751       2.61046050       0.00046518      -0.00477332      -0.00633167
H        9.76383669       5.13485873       2.75188158       0.00135253      -0.00757471      -0.00558957
H       11.38172593       4.91055837       3.08738098       0.00202110      -0.00307235      -0.00530551
H       10.91115492       5.43277054       1.62001954      -0.00042229      -0.00748496      -0.00642057
N        6.10986120       4.22634259       7.52974584      -0.00298269       0.01802464       0.01147959
H        6.03129450       5.20500035       7.78107650       0.00849862       0.02071287       0.00089012
H        7.01695467       4.11629886       7.09080489      -0.00756968       0.00100135       0.00940540
H        6.14294413       3.71545189       8.43097364      -0.00359618       0.02635188       0.02162296
N        7.76813535       7.02144316       9.37706077      -0.01356226       0.01060829       0.00695741
H        7.92961356       7.21727700       8.39201212      -0.01400542       0.00441493       0.00488347
H        6.90282355       6.48937465       9.40897305      -0.01770651       0.01495896       0.01034974
H        7.55522767       7.92721811       9.81003874      -0.00761138       0.01297238       0.00146122
N       11.11042949       1.53658004       3.15768544      -0.01067328       0.00338295      -0.00578213
H       10.81849452       0.60944111       2.85695040      -0.01638272       0.00439769      -0.00281410
H       10.42446831       1.88615073       3.81598090      -0.00953162       0.01212562      -0.00889784
H       11.99315249       1.42146933       3.66037094      -0.01174411       0.00205406      -0.00428554
N        7.56192096       4.78848161       3.05119183      -0.00089079      -0.01926949      -0.02071098
H        7.18589461       4.81969192       3.99263168       0.00713335      -0.03039796      -0.01763523
H        7.25679299       3.90582385       2.64686996      -0.01216577      -0.01024643      -0.03337086
H        7.06082342       5.49533303       2.52523619       0.00204641      -0.00636423      -0.00580372
N        1.08848279       8.98425077       8.81872970       0.01034880      -0.00371201      -0.01290796
H        0.91504434       9.56712642       8.00691372       0.00985203      -0.00136444      -0.01105544
H        0.60475900       9.44820813       9.60381989       0.01132718      -0.00632766      -0.01087845
H        0.61436881       8.10691117       8.64058295       0.00900042      -0.00354695      -0.01515846
N        4.76025042       8.55205807       8.12136682       0.00815681      -0.00447227      -0.00353266
H        4.31551062       7.92150990       7.45479644       0.00549283      -0.00269948      -0.00641273
H        4.81663579       9.46674913       7.68799350       0.00572369      -0.00314279       0.00045088
H        4.12468845       8.65368814       8.90532399       0.01032149      -0.01005790      -0.00187728
N        0.31259725       0.27967995       7.06792551       0.00030324      -0.00170690       0.00796932
H        0.22540818       1.20773967       6.66480826      -0.00180081       0.00087121       0.01167135
H        1.24458340       0.24543292       7.50903747      -0.00005731      -0.00183403       0.00626984
H       -0.35351569       0.23339293       7.85677390       0.00008538      -0.00530090       0.00744623
N        2.31608912       1.11560792       4.71661929      -0.00544128      -0.00213400      -0.00152761
H        2.13902802       0.17180658       5.04706810      -0.01450346      -0.00101973      -0.00353884
H        2.65305784       1.61383836       5.53578953       0.00042537      -0.00683751      -0.00076941
H        3.12116866       1.02930702       4.08937850      -0.00633755      -0.00784228      -0.00229867
N        8.50360955      11.05585573       4.61892399      -0.00320643       0.00227115      -0.00041719
H        8.50276998      11.94802663       5.11870457      -0.00254489       0.00238827      -0.00006928
H        7.73347396      10.52806834       5.02527493      -0.00239930       0.00197346       0.00102921
H        8.25484708      11.19356601       3.63766004      -0.00451604       0.00229082       0.00001702
N        8.85770943       3.24591663      11.14167873       0.01299553      -0.00811140      -0.00668988
H        7.22510841       2.32444913      12.30084439       0.00755922      -0.01577833       0.01335484
H        7.85087753       3.38507815      10.90361147       0.00382520      -0.00222113       0.01458183
H        9.00076030       2.31161067      10.73908015       0.00554720      -0.00006074      -0.02471861
N        9.77890826       8.17408787       4.14584969       0.00032473       0.00222510      -0.00507835
H        9.31328587       8.71946548       3.42808941       0.00242420       0.00306171      -0.00568780
H        9.06940082       7.90656553       4.82492743      -0.00140658       0.00276251      -0.00639382
H       10.16018423       7.33328084       3.70805210       0.00010778       0.00138873      -0.00498395
N        3.71641901       6.11384645       6.18550399       0.00356250       0.00599051      -0.00172773
H        4.29775378       5.29886212       6.36749646       0.00690964       0.00840144       0.00244432
H        3.55558672       6.16901626       5.18782445       0.00619230       0.00289754      -0.00249653
H        2.82446748       5.94997412       6.64416337       0.00297818       0.00349446      -0.00353726
