196
Lattice="12.921458917969092 0.0 0.0 0.0 12.921458917969092 0.0 0.0 0.0 12.921458917969092" Properties=species:S:1:pos:R:3:forces:R:3 energy=-182659.78125 stress="-0.0017136004753410816 -0.00033229615655727684 0.00024429126642644405 -0.00033229615655727684 -0.001772568211890757 -1.947534201462986e-05 0.00024429126642644405 -1.947534201462986e-05 -0.0025410617236047983" pbc="T T T"
N        1.19074011       3.61242065       6.44449780      -0.00136709      -0.00506777      -0.00264891
N        1.15495028       5.64607244       7.17863560      -0.00175926      -0.00637859       0.00033927
C        1.27807699       2.14528982       6.40228259      -0.00419044      -0.00514311      -0.00452060
C        2.53668109       1.61974258       5.74024330      -0.00418137      -0.00583431      -0.00383043
C        3.78439808       1.71604173       6.60891163      -0.00370542      -0.00491604      -0.00480914
C        1.30511953       4.36782502       7.53600046      -0.00589612      -0.00716695      -0.00100207
C        0.96118754       4.42970493       5.35916997       0.00587028      -0.00308287      -0.00241369
C        0.94308289       5.70604443       5.82076699       0.00546437      -0.00371876      -0.00046456
C        4.97273921       1.03906503       5.92826245      -0.00310114      -0.00090064      -0.00737035
C        1.26599414       6.79417346       8.06600085      -0.00600851      -0.00817323       0.00288525
H        1.21492773       1.80773379       7.43066301      -0.00668952      -0.00659293      -0.00509411
H        0.37948277       1.80349530       5.88861029      -0.00379872      -0.00282402      -0.00650710
H        2.70920329       2.12772981       4.78692146      -0.00440203      -0.00625280      -0.00407922
H        2.35829446       0.57257404       5.49481811      -0.00429972      -0.00585431      -0.00326059
H        4.00296673       2.76402236       6.82953852      -0.00553478      -0.00505099      -0.00335931
H        3.57162912       1.22654980       7.56584769      -0.00142576      -0.00726955      -0.00559065
H        1.45601157       4.01107931       8.54185800      -0.01204591      -0.00845631      -0.00066803
H        0.81035895       4.03690400       4.36856734       0.00990421      -0.00097110      -0.00359565
H        0.86573760       6.63611596       5.28869071       0.00911330      -0.00314559       0.00066914
H        5.01025987       1.27808310       4.86580898      -0.00255164       0.00447280      -0.00603187
H        4.88218999      -0.04322980       5.99383919      -0.00228157      -0.00112492      -0.01277914
H        5.93257970       1.33240425       6.35528945      -0.00367983      -0.00240382      -0.00530720
H        1.17242599       6.46526341       9.09727213      -0.01217970      -0.01015508       0.00139076
H        2.21772020       7.29300922       7.89233517      -0.00487345      -0.00877617       0.00905951
H        0.45170184       7.48614610       7.85788547      -0.00437710      -0.00749415      -0.00056510
Cl      14.04023476      13.79233862      -0.63291411       0.00610824       0.00368790      -0.00269124
O        7.98557641       0.57739564       9.85579676      -0.00019424      -0.00614661      -0.00626352
O        6.42649252       2.08674727      10.33433977       0.00940601       0.00234713      -0.00362945
O        7.50880594       1.04906610      12.00400213      -0.00008593      -0.01080228      -0.00269723
C        7.72277281       1.25300930       8.60422075       0.00581837      -0.00134818      -0.00478986
C        6.41688381       1.97582048       8.89712113       0.01294532       0.01080458      -0.00421646
C        7.33083711       1.23302286      10.83655038       0.00181629      -0.00423986      -0.00919586
H        7.65845494       0.51256791       7.81181435      -0.00133459       0.00048360      -0.00609520
H        8.55233277       1.92842955       8.40726527       0.01258880      -0.00993758      -0.00429578
H        6.36984613       2.97980751       8.48224304       0.02502001       0.01375031       0.00194615
H        5.53591486       1.40337694       8.61145335       0.00788584       0.02216226      -0.01041621
O       12.58260183       8.72535745       0.71993547       0.00486949      -0.01568964      -0.00876857
O       10.49810500       8.49935455      -0.01220552      -0.00094168      -0.01748300       0.00990400
O       11.62280885      10.39196308      -0.45651355      -0.01146430      -0.01415193       0.01301908
C       12.23271321       7.35544941       1.04729653       0.01241195      -0.01772690      -0.01208545
C       10.73381898       7.31183489       0.77771590       0.01099646      -0.02443781      -0.00522754
C       11.59267602       9.30397582       0.04101339      -0.00375137      -0.01057792       0.00294071
H       12.49609390       7.18596923       2.08661444       0.01788773      -0.02012934      -0.01414269
H       12.80163385       6.68897926       0.40260694       0.01236790      -0.01260656      -0.01693261
H       10.43984899       6.44993143       0.18673455       0.01436363      -0.01904574      -0.01390606
H       10.12238298       7.38119254       1.67569235       0.01521793      -0.03879925      -0.00188178
O       11.22267011       1.83647983       1.42287989       0.00002891      -0.00082058      -0.00722637
O       12.89197544       2.69715236       2.60413538      -0.00729036       0.00066182       0.00117201
O       11.64341088       4.04194030       1.29902780      -0.00824100       0.00454581       0.00034928
C       11.91808435       0.68880661       1.98806445       0.00370824      -0.00065321      -0.01009035
C       12.74943381       1.33445377       3.07368637      -0.00374389      -0.00188972      -0.00444758
C       11.90989869       2.94635418       1.71336205      -0.00418030      -0.00551945       0.00152677
H       12.52583657       0.26078687       1.18856999       0.00867984       0.00672847      -0.00995630
H       11.16974312      -0.00108338       2.36099161       0.00598714      -0.00669268      -0.01659782
H       12.23308752       1.36912629       4.03484735      -0.00711489      -0.00786497      -0.00617176
H       13.73286270       0.89125029       3.19905818      -0.00229532       0.00164995      -0.00217623
O        8.50675749       2.24128343       4.55925533       0.00122748      -0.00362313       0.00481910
O       10.45627778       3.29031425       4.77412704      -0.00008445      -0.00217846       0.00698505
O        9.93835845       1.61274575       6.18412145       0.00216463      -0.00607467       0.00187773
C        8.65357098       3.05531127       3.37325323      -0.00067565       0.00024748       0.00766036
C        9.69692206       4.06093293       3.81063209      -0.00129859      -0.00022966       0.01014342
C        9.65106085       2.30618377       5.25030916       0.00141621      -0.00494242       0.00534517
H        7.68452683       3.47014242       3.12291162      -0.00116724       0.00025770       0.00988270
H        8.99050191       2.41009168       2.56169463      -0.00083382       0.00332117       0.00535226
H       10.36585166       4.39249734       3.02292542      -0.00213024       0.00276031       0.01082259
H        9.26938118       4.92178543       4.32566331      -0.00214006      -0.00256386       0.01294932
O        7.29593061      11.05207686       2.41757885      -0.01660898       0.00955787      -0.00077599
O        9.04945911      12.29307332       1.85247049      -0.00030921      -0.00881042       0.01209131
O        8.49228695      12.09901020       4.01857643      -0.01804867      -0.00293073       0.00723612
C        7.29165558      11.08507549       0.97936158      -0.00750124       0.01207671      -0.00066857
C        8.67861801      11.60903953       0.63931518      -0.00032067      -0.00273631       0.00877124
C        8.29000405      11.84573741       2.86867908      -0.01201454      -0.00083886       0.00738454
H        6.50106817      11.76444626       0.65539877       0.00250989       0.02137372      -0.00404049
H        7.11316950      10.07220427       0.61837790      -0.01618982       0.01495934      -0.00377026
H        9.40733553      10.82123316       0.45504063      -0.00757632      -0.00975463       0.01122093
H        8.67669743      12.33417611      -0.16766782       0.01244951      -0.00216427       0.00978097
O        4.30775241       2.32752540       2.65143994      -0.00092995       0.01214230      -0.00671233
O        4.84516516       2.21389263       0.50078463       0.00239512      -0.00276320      -0.00476030
O        6.35339856       1.60461342       2.06239465      -0.00042069       0.00624663       0.00135115
C        3.07488633       2.57763074       1.93327075       0.00064853       0.00804733      -0.01077655
C        3.56312694       2.89947654       0.54197496       0.00422479       0.00034213      -0.01085585
C        5.26423198       2.00240833       1.75662455      -0.00017834       0.00546831      -0.00303425
H        2.54813874       3.39444441       2.41820062      -0.00032790       0.01098171      -0.01661314
H        2.47539312       1.66823066       1.93918564       0.00064310       0.00824463      -0.00700648
H        2.90779763       2.48538454      -0.22606029       0.00504684      -0.00189200      -0.01032650
H        3.75106529       3.96657958       0.40998901       0.00726880      -0.00097942      -0.01523200
O        4.44944904       4.72920075       5.60148704       0.01131791       0.00766153       0.02653301
O        5.40119404       6.48006419       4.62267059      -0.01304640       0.00281888      -0.00320164
O        3.53571626       6.76578295       5.83112532       0.00674736       0.00476182       0.02514789
C        5.70591953       4.21898208       5.10346012       0.00123893       0.00613064       0.00440125
C        6.23267048       5.36769218       4.25051996      -0.01332206       0.00409116      -0.00710613
C        4.38679206       6.04924120       5.38750106       0.00162411       0.00562462       0.01706836
H        5.50940248       3.31506856       4.53770649      -0.00989869       0.00597221       0.00902820
H        6.34632747       4.00700284       5.95847608       0.01582742       0.00643750      -0.00729004
H        7.25778161       5.63724183       4.47231670      -0.01211756       0.00960605      -0.02076054
H        6.11248047       5.19874655       3.18040037      -0.02565620      -0.00210708      -0.00432447
O       12.88061402       1.62804868       9.11028839       0.00678802      -0.01000607       0.00891411
O       10.90782929       1.62363683      10.11492689       0.00915834      -0.00596619       0.01234038
O       11.84616061       3.57726898       9.49898494       0.00254937      -0.00582612      -0.00708925
C       12.51339136       0.23346912       9.17519104       0.01526076      -0.01119359       0.02917722
C       11.34698572       0.24182359      10.14937637       0.01208419      -0.00457765       0.02502453
C       11.88053085       2.38037875       9.58391598       0.00622058      -0.01475108       0.00398499
H       13.37203231      -0.32494457       9.53374173       0.01732296       0.00063238       0.04146336
H       12.22777253      -0.07729751       8.16703049       0.02223815      -0.02807343       0.03304994
H       10.50735697      -0.37332179       9.83440312       0.01417720      -0.00939962       0.02836736
H       11.66502700       0.00743009      11.16335385       0.01012805       0.00475677       0.02766383
O        8.77165632       3.79423976      10.75200547       0.00250636       0.00092067       0.00262232
O        7.56765988       5.00017989      12.17243953       0.00097980      -0.00168045       0.00322768
O        7.12982575       5.10998545       9.96673364       0.00357926      -0.00121337       0.00699210
C        9.47668049       3.68585896      12.01637347       0.00140142       0.00025845       0.00225569
C        8.42216721       4.16476552      12.99742888       0.00086093      -0.00152099       0.00256264
C        7.76953320       4.67213300      10.88510415      -0.00226688       0.00248531      -0.00152272
H       10.36000310       4.31848679      11.96372074       0.00067836       0.00164527       0.00319432
H        9.76564981       2.65154451      12.15786787       0.00294173       0.00103658       0.00107625
H        7.81450337       3.34770986      13.38885670       0.00146681      -0.00242105       0.00118507
H        8.82302225       4.78202688      13.79766992      -0.00004101      -0.00229251       0.00310805
O        8.60325756       4.95691747       7.02824830       0.00007460      -0.00472964       0.00063550
O        9.76161457       6.80047619       7.47759726       0.00209320      -0.00530630      -0.00358590
O        7.64695013       6.97545780       6.73136826       0.00543517      -0.00537798      -0.00950739
C        9.79856793       4.51891588       7.74443219      -0.00212895      -0.00463688       0.00342143
C       10.71126636       5.70208372       7.56256034      -0.00007814      -0.00638372       0.00272539
C        8.58126688       6.29547180       7.05605593       0.00092775      -0.00364804      -0.00516884
H       10.15991662       3.60361228       7.29352152      -0.00250056      -0.00575429       0.00595918
H        9.53068485       4.35934493       8.78366838      -0.00430195      -0.00208034       0.00313056
H       11.37562123       5.86317618       8.40469250      -0.00275017      -0.00478880       0.00429952
H       11.26491848       5.66586793       6.62187830       0.00286825      -0.00995535       0.00476271
O        3.79893895       6.49459079       1.92819515       0.00450239      -0.00683480       0.00107285
O        3.48457702       8.52993966       2.76998398      -0.00151762      -0.00826515       0.00140571
O        1.90800775       6.94702232       3.06403670       0.00501883      -0.01737437       0.01204067
C        4.85466790       7.30543394       1.36585157       0.00004192      -0.00311798      -0.00212756
C        4.83235212       8.54040305       2.25163372      -0.00453857      -0.00098675      -0.00572777
C        2.96472302       7.29446652       2.62600767       0.01011974      -0.00921461       0.00248659
H        4.59506593       7.52302556       0.33029682      -0.00146151      -0.00736223      -0.00228977
H        5.78937658       6.75288368       1.42459989       0.00289559       0.00142065      -0.00123429
H        5.53236395       8.47444930       3.08147340       0.00008649       0.00775820      -0.00906450
H        4.97678170       9.47493340       1.71779943      -0.01394935      -0.00201240      -0.01022993
O        4.20392448      10.84136565      10.66041489      -0.00567269       0.00553875       0.00155482
O        5.82758686       9.32490793      10.79583965       0.00972490       0.02291924       0.00212361
O        3.74661455       8.79896234      11.46355857       0.02196914       0.00762320      -0.00073403
C        5.36115144      11.53474464      10.18998836      -0.01255535       0.01867759       0.00450885
C        6.48466243      10.49581222      10.29644383      -0.00319713       0.02780855      -0.00308888
C        4.51121103       9.58779094      10.99857469       0.00023818       0.00081038       0.00686887
H        5.51817485      12.39609872      10.83610119      -0.01978401       0.01547357       0.00957090
H        5.17020975      11.85849565       9.16864524      -0.01759782       0.02210869       0.00724405
H        6.93755218      10.25690368       9.33534173      -0.00927684       0.03063120      -0.00599676
H        7.26371822      10.78677508      11.00047428      -0.00124857       0.03440435      -0.00882292
O        1.46847412      11.05204225       1.88757928      -0.00752953      -0.00857729      -0.00575879
O        3.51433271      11.92156021       1.93191134      -0.01329637       0.00343878       0.00082842
O        2.20414360      12.05633494       3.75290061      -0.01887554      -0.00663716      -0.00279784
C        2.00157077      10.75901925       0.57491334      -0.00119877      -0.00575265      -0.00362544
C        3.33042508      11.50502543       0.56363489      -0.00702149       0.00416157      -0.00016861
C        2.37618250      11.69751799       2.62180493      -0.01352167      -0.00409874      -0.00262207
H        1.30778662      11.16139043      -0.15889507      -0.00214869      -0.01272106      -0.00607297
H        2.10031818       9.68153125       0.48112810       0.00729882      -0.00488096      -0.00215217
H        4.17196449      10.87086190       0.29659565      -0.00171530       0.01167220       0.00060200
H        3.28220252      12.39214065      -0.06772007      -0.01322721       0.00490522       0.00134584
O        3.03020114       5.98333395      11.63637999       0.01560673       0.00117552       0.01222617
O        2.76915475       4.10226732      10.47035345      -0.01728180       0.01773399      -0.00468236
O        1.16519126       4.75360468      11.93196676      -0.01806366       0.01922613       0.02624631
C        4.13012404       5.94701893      10.70824079       0.00648089      -0.00216830       0.00131731
C        4.14676751       4.49092514      10.29054008      -0.01533344       0.00531036      -0.01439682
C        2.21211808       4.93080496      11.40124346       0.03106683       0.02041501      -0.00633669
H        5.03463158       6.27050326      11.21165026       0.01691791      -0.01830641      -0.00323030
H        3.91134760       6.62603779       9.88267786       0.00945173       0.01188034       0.01122797
H        4.42671914       4.33323561       9.25223926      -0.02744204       0.01338388      -0.02149847
H        4.77232990       3.87712935      10.93851252      -0.01439175      -0.01052406      -0.02969271
O        4.22751181       9.51808814       7.96976281       0.01611054       0.01003087       0.00133205
O        4.15391457      10.70438223       6.09080026      -0.00332434      -0.00082254      -0.00414124
O        2.91438271      11.35273368       7.85067863       0.00244284       0.00041735      -0.00028247
C        5.25942234       8.95600663       7.13236335       0.01355192       0.01083148      -0.00207141
C        4.95998575       9.55321469       5.76623433       0.00499206       0.00493374      -0.00274462
C        3.68339324      10.59614122       7.33919921       0.00579780       0.00191528      -0.00151211
H        5.18247847       7.87668736       7.16252190       0.01741790       0.01091501       0.00210902
H        6.23143311       9.25853517       7.52332731       0.01427171       0.01552510      -0.00777394
H        5.84459949       9.89165545       5.23263304       0.00088921       0.01063678      -0.00582498
H        4.35913497       8.88951711       5.15162458       0.00907508      -0.00121814       0.00042725
O        9.73553505       6.87542701      10.63624435      -0.00432333       0.00452705      -0.00714953
O       10.98106950       8.54636962       9.85304362      -0.00649834       0.00995743       0.00304536
O       11.97628978       6.68544138      10.62027771      -0.00053370       0.00459218      -0.00529653
C        8.78445755       7.91815317      10.37134488      -0.00590551       0.00480413      -0.00178373
C        9.64980915       9.07331306       9.84831012      -0.00777856       0.00762862       0.00317127
C       10.98801201       7.31663993      10.39862214      -0.01154149       0.01157731      -0.00526732
H        8.27925270       8.15522907      11.30514872      -0.00586121      -0.00029302      -0.00055212
H        8.06264645       7.54603946       9.64796624      -0.00595576       0.00721747      -0.00310662
H        9.40001563       9.35570316       8.82685071      -0.00721678       0.01143263       0.00406826
H        9.64326201       9.94569218      10.50071043      -0.01033532       0.00580314       0.00609741
O       10.05638815       7.77230396       4.27716931       0.00266090       0.00386769      -0.00256088
O        8.35871485       9.16949878       4.59573258      -0.00015768       0.00023910      -0.00350556
O        8.13576822       7.46414423       3.14659393       0.00473952       0.00159311      -0.00564349
C       10.60254603       8.85423920       5.06363084      -0.00090861       0.00338886       0.00034063
C        9.35465548       9.56589476       5.56311759      -0.00299379       0.00002658      -0.00067872
C        8.78177856       8.08610583       3.94318661       0.00282961       0.00208983      -0.00358129
H       11.21924829       9.47392557       4.41039925      -0.00095701       0.00583780       0.00261638
H       11.20106338       8.42590463       5.86261785      -0.00160474       0.00299165       0.00043586
H        9.03317508       9.19114259       6.53400026      -0.00410378      -0.00274432      -0.00227314
H        9.41499282      10.64953881       5.54412537      -0.00545220      -0.00001669       0.00151677
