186
Lattice="12.95922600036796 0.0 0.0 0.0 12.95922600036796 0.0 0.0 0.0 12.95922600036796" Properties=species:S:1:pos:R:3:forces:R:3 energy=-259765.328125 stress="-0.003880919888615608 -0.0008985581807792187 -0.0007636836671736091 -0.0008985581807792187 -0.002500774571672082 0.00038085597043391317 -0.0007636836671736091 0.00038085597043391317 -0.0028140065260231495" pbc="T T T"
N        0.55782768       2.03614684       3.48199446      -0.01073846      -0.02395660      -0.00615281
N        0.68952838       3.51880757       1.90881334      -0.01255349      -0.00321096      -0.03131044
C        0.67691693       1.39600489       4.79136796      -0.00463492       0.01109508      -0.00260925
C        2.07071722       0.82249637       5.01977983      -0.00643019       0.00487423      -0.00357120
C        3.15565530       1.89085402       5.01511968      -0.00583941       0.00487286      -0.00737864
C        0.77120731       3.33083818       3.22959162      -0.00438568       0.03535354       0.03072292
C        0.34123418       1.37923441       2.29383621       0.00439130       0.00540745      -0.01517910
C        0.41831549       2.31158450       1.30552152       0.00033189      -0.01823890       0.00754905
C        4.54523600       1.33036615       5.26268766      -0.00356385       0.00528526      -0.01715183
C        0.86284453       4.78910122       1.22519641      -0.01418205      -0.00691926       0.00012746
H        0.43850477       2.15143662       5.54095008      -0.00514386       0.00675386      -0.00861272
H       -0.09058310       0.62286719       4.83792206      -0.00719380       0.00288761       0.00187167
H        2.28316238       0.06512876       4.25979885      -0.00690871       0.00256363       0.00074700
H        2.05828532       0.30147027       5.98198331      -0.00468183       0.00927155       0.00026989
H        3.15260113       2.39610148       4.04570478      -0.01162590       0.00625269      -0.00673059
H        2.91464665       2.65306430       5.76709016      -0.00012131       0.00334308      -0.00535786
H        0.99638031       4.09203328       3.95787377      -0.02988326      -0.02172643      -0.02732201
H        0.16476288       0.31789489       2.21676067       0.01008522      -0.01140263      -0.00386856
H        0.30523956       2.20176291       0.24193136       0.00542757      -0.00910800      -0.00991192
H        4.82805516       0.63543883       4.47264653      -0.00702013       0.00679560      -0.01943836
H        4.58860428       0.78886331       6.20933775       0.00278664       0.00407662      -0.01837726
H        5.29573792       2.12110178       5.29975099      -0.00489122       0.00659473      -0.02028145
H        1.12051113       5.55250589       1.95415741      -0.01878310      -0.00545152      -0.01118362
H        1.66832556       4.70457628       0.49621410      -0.01280832      -0.00610100      -0.00762506
H       -0.06053277       5.06654799       0.72181613      -0.01607576      -0.01064812      -0.01089001
I       13.47660090      11.69127652      -0.19556580       0.02197667      -0.01135070      -0.00378045
C        2.44997721       6.47801674       4.65931742      -0.00145218      -0.01166344       0.00819325
C        3.89975592       6.43652615       4.19105366      -0.00289494      -0.00621831       0.00535199
C        2.11636735       7.68144082       5.53051257      -0.00524914      -0.01442531       0.00948729
C        4.20564151       5.24775445       3.28605864      -0.00484231      -0.00482884       0.00397441
C        0.65921257       7.71760918       5.96832423      -0.00543222      -0.01946638       0.00773521
C        5.65339251       5.17166309       2.81848479      -0.00573599      -0.00619300       0.00319380
H        1.78487760       6.49041422       3.78563981      -0.00212413      -0.01360843       0.00879493
H        2.22266300       5.55935847       5.21814736       0.00327702      -0.01368104       0.00697492
H        4.55553280       6.40849212       5.06636471      -0.00016440      -0.00561084       0.00321656
H        4.13538735       7.36807148       3.66457352      -0.00676305      -0.00539452       0.00531630
H        2.76686964       7.67531394       6.41116549      -0.00595310      -0.01350101       0.00971735
H        2.35740346       8.59358665       4.97607515      -0.00748375      -0.01337329       0.01069731
H        3.94976552       4.32653838       3.81743134      -0.00575966      -0.00439933       0.00370446
H        3.54856966       5.28843840       2.40911926      -0.00635487      -0.00311929       0.00528169
H       -0.01042027       7.73328031       5.10545067      -0.00414652      -0.02276406       0.00684966
H        0.44248002       8.60222179       6.56943598      -0.00916869      -0.01991245       0.00662880
H        0.40480373       6.83823363       6.56464040      -0.00295593      -0.01990670       0.00780156
H        5.94287027       6.07714819       2.28295457      -0.00439264      -0.00508232       0.00602180
H        6.33457497       5.05720198       3.66148060      -0.00651957      -0.00980137       0.00312829
H        5.80909192       4.32549087       2.14736896      -0.00744710      -0.00434242       0.00087605
C        9.84781726       9.39801965      11.66680265      -0.01901823      -0.00562115       0.00820515
C       11.00353806       8.44041460      11.40682874      -0.02372241      -0.00861393      -0.00144340
C       10.28587923      10.84854107      11.58997840      -0.01773652      -0.00564155       0.00493777
C       10.56918941       6.98190550      11.43145756      -0.01814318      -0.01035425       0.00350824
C        9.25524848      11.90198073      11.95305391      -0.02584758      -0.01122382      -0.00043268
C       11.70544825       6.03022554      11.10116245      -0.01723373      -0.00891063       0.00056811
H        9.05272712       9.18501135      10.95215120      -0.02236995       0.00455253       0.00929475
H        9.42888711       9.18891745      12.65616088      -0.01770698      -0.00487524       0.00850043
H       11.79497874       8.61434416      12.14465369      -0.01593667      -0.00800448      -0.01028353
H       11.45707258       8.67145356      10.43494744      -0.03474633      -0.00727800      -0.00584468
H       11.13645462      10.97302415      12.26092080      -0.01066887       0.00094188      -0.00500865
H       10.69984529      11.05396640      10.59624458      -0.03285332      -0.00992019      -0.00192776
H       10.15246198       6.74726977      12.41714573      -0.01047202      -0.01148365       0.00631568
H        9.75227257       6.83630329      10.71551981      -0.02146199      -0.01616471       0.00889793
H        8.40354361      11.93700352      11.26939751      -0.02302597      -0.02535984      -0.00435865
H        9.72630486      12.88688841      11.94594301      -0.03706707      -0.00656942      -0.00723074
H        8.86318333      11.74096025      12.95982210      -0.02986318      -0.00615155      -0.00144528
H       12.06679359       6.19969111      10.08631248      -0.02274436      -0.01653160      -0.00251880
H       12.55293932       6.20319646      11.76797990      -0.01384406      -0.00431790      -0.00504303
H       11.40991604       4.98216995      11.17840550      -0.01538590      -0.00848806       0.00964396
C        4.90413973       4.45418379       8.65895168      -0.00156820      -0.00040549      -0.00093050
C        3.44843806       4.80370530       8.93727086      -0.00269759       0.00010079      -0.00805384
C        5.11481263       2.98637023       8.31741697       0.00168073      -0.00088561       0.00393555
C        3.26310791       6.25432024       9.35514677      -0.00337794      -0.00218868      -0.00035959
C        6.55749308       2.64957318       7.97210112       0.00292870       0.00141355       0.00799301
C        1.82608618       6.60564655       9.68512970      -0.00406033      -0.00166953      -0.00366057
H        5.27113463       5.07546344       7.83299381       0.00256425      -0.00149186       0.00049576
H        5.51472622       4.72448439       9.52881553      -0.00594483       0.00005141       0.00176156
H        3.05751693       4.15097156       9.72685147      -0.00853082      -0.00496902      -0.01538786
H        2.84340043       4.59124311       8.04635199       0.00277279       0.00746283      -0.01329780
H        4.77830485       2.36496744       9.15314335       0.00283416       0.00205858       0.00626165
H        4.46669386       2.73224838       7.47532966       0.00322372      -0.00687084       0.00472376
H        3.88949906       6.44512017      10.22940709      -0.00539701      -0.00633362       0.00191438
H        3.64169108       6.91168315       8.56546415      -0.00122971       0.00140734       0.00399861
H        6.90191997       3.24496752       7.12367333       0.00319261      -0.00393461       0.00464636
H        6.67697160       1.59668918       7.70950717       0.00620423       0.00022480       0.01539887
H        7.22377740       2.86137320       8.81195867       0.00052121       0.00878625       0.00788806
H        1.17204158       6.45673409       8.82334348      -0.00051372       0.00552602      -0.00721121
H        1.45630225       5.96734559      10.48804159      -0.00940244      -0.00543663      -0.00919423
H        1.71701483       7.64209214      10.00890178      -0.00307490      -0.00354302       0.00201662
C        7.35154280      10.38348898       3.98078224       0.00499451      -0.00278264      -0.00097039
C        6.39054777       9.92560084       5.06802923       0.00190564      -0.00401503      -0.00497463
C        8.36506897       9.31863910       3.58091637       0.00602863      -0.00165957       0.00034444
C        5.41341008      11.00690179       5.49816877       0.00526329      -0.00183803      -0.00384958
C        9.30173346       9.78577199       2.47885685       0.00784737       0.00106257       0.00350595
C        4.48797754      10.57076675       6.62377656       0.00509501      -0.00037988      -0.00393960
H        6.78175338      10.69202228       3.09561342       0.00771023      -0.00039531      -0.00161591
H        7.88514190      11.27899066       4.32340406       0.00427033      -0.00399712       0.00278176
H        6.96661404       9.59827108       5.93912962      -0.00079648      -0.00868975      -0.00529486
H        5.83655686       9.04403310       4.72439376      -0.00052965      -0.00077578      -0.00883294
H        8.94267630       9.01704723       4.46121340       0.00436704      -0.00138953       0.00122792
H        7.83035335       8.42055719       3.25412116       0.00784944      -0.00198570      -0.00106014
H        5.98106849      11.88904690       5.80914205       0.00812042      -0.00384465      -0.00363971
H        4.82054203      11.31716487       4.63181105       0.00634883       0.00040049      -0.00340393
H        8.73379944      10.07087795       1.59238652       0.00970113       0.00313567       0.00330305
H       10.00978535       9.01045525       2.18351610       0.00901154       0.00262643       0.00310567
H        9.87806247      10.65895279       2.79156031       0.00610541       0.00065979       0.00713851
H        3.89967479       9.70019604       6.33205143       0.00041544       0.00327894      -0.00509413
H        5.05747057      10.29853093       7.51437741       0.00575966      -0.00560810      -0.00636035
H        3.78943601      11.36111073       6.90649917       0.00995696       0.00232725      -0.00018566
C        2.46764489       9.37510557       2.02842796       0.00137642      -0.00557980       0.01373826
C        3.94516257       9.42598640       1.66680084      -0.00206435       0.00383848       0.00330463
C        2.03509186      10.54127369       2.90799255       0.00316748      -0.00763372       0.01650305
C        4.41386557       8.24687045       0.82329262      -0.00010160       0.00779897      -0.00015208
C        0.56997905      10.47075805       3.31441938       0.00446689      -0.00808387       0.01948647
C        5.91804416       8.25663795       0.58734952      -0.00008065       0.00966758       0.00249427
H        1.86560978       9.39142554       1.11387769      -0.00482458      -0.00856216       0.01812840
H        2.25129161       8.42963257       2.54250938       0.01054834      -0.00647941       0.01530963
H        4.54356187       9.46326136       2.58673847       0.00358005       0.00788682      -0.00082809
H        4.15377663      10.35969695       1.13251613      -0.01299392       0.00510976       0.00197497
H        2.67273982      10.58299947       3.80011835       0.00571287      -0.00861168       0.01450059
H        2.20627831      11.46463081       2.34309020       0.00202205      -0.00729829       0.01716441
H        4.12959086       7.31510874       1.32394305      -0.00024864       0.00576419      -0.00426908
H        3.87864731       8.24906514      -0.13231471       0.00135736       0.01123929      -0.00066021
H       -0.06337839      10.46987326       2.42541128       0.00244048      -0.00196249       0.02120352
H        0.27849373      11.32518687       3.93167244       0.00764594      -0.01188248       0.02597299
H        0.36016432       9.56985254       3.89232453       0.00412850      -0.01146263       0.01376056
H        6.22214532       9.12644703       0.00122497       0.00036157       0.01153933       0.00582430
H        6.45447297       8.30279386       1.53739241      -0.00241269       0.00736505       0.00371645
H        6.25786068       7.36641467       0.05620231       0.00138401       0.01151066       0.00074370
C        8.48042352      10.55640704       8.39097918      -0.00516617       0.01443136      -0.01242113
C        7.78762437       9.25309324       8.75043788      -0.00369734       0.01416284      -0.01166055
C        9.61291581      10.36869458       7.38930485       0.00083791       0.01007232      -0.00423388
C        6.71171983       9.37164054       9.81905861      -0.00589740       0.01244220      -0.01423252
C       10.30126016      11.67436634       7.01853613       0.00488317       0.00726199      -0.00480634
C        6.11270614       8.01317672      10.13383756       0.00316167       0.01043281      -0.00643255
H        7.74431303      11.26183972       7.98529360      -0.00319922       0.01180306      -0.02012387
H        8.87852669      11.01913873       9.29752704      -0.01092552       0.01849352      -0.01214874
H        8.53743498       8.52365929       9.07858483      -0.00255007       0.01715273      -0.00827348
H        7.33670539       8.81640634       7.85397207       0.00062998       0.01148660      -0.01230443
H       10.34670522       9.66938745       7.80575685      -0.00312978       0.01076265       0.00322878
H        9.21983100       9.89280123       6.48538380       0.00573029       0.00676517      -0.00431982
H        7.12972758       9.81864429      10.72477729      -0.00910218       0.01874234      -0.01629293
H        5.92808437      10.05696842       9.48170113      -0.00962552       0.00613965      -0.01729679
H        9.58169738      12.38806741       6.61017609       0.00868726       0.00667572      -0.01180062
H       11.07907815      11.51683268       6.26871280       0.00922298       0.00290447       0.00079626
H       10.76403471      12.13530891       7.89364713       0.00024924       0.00945907      -0.00384232
H        5.75103559       7.53654510       9.22183232       0.00508263       0.00196099      -0.00256224
H        6.85936173       7.34731266      10.57494479       0.00871703       0.01901700      -0.00348012
H        5.27599064       8.08296525      10.82738594       0.00425264       0.00915830      -0.00525054
C        5.38068408       1.53726591      12.04991617       0.01719408       0.02140021      -0.00186849
C        6.36028324       2.69378112      12.08096714       0.02270812       0.01724023       0.00032603
C        3.93607713       2.00125883      11.99990656       0.01703972       0.02328557      -0.00228982
C        7.81409997       2.25797706      12.06046193       0.02172536       0.01282102       0.00087643
C        2.97380209       0.84235356      11.90016941       0.01465943       0.02512011      -0.01469108
C        8.77142175       3.43848388      12.04893904       0.02539936       0.00999686       0.00228712
H        5.58336262       0.90564916      11.17617818       0.01601258       0.02293870      -0.00297150
H        5.52638781       0.89142874      12.92409234       0.01497245       0.01903577      -0.00361389
H        6.16889452       3.30691752      12.96955939       0.02558073       0.01745948       0.00037801
H        6.16388775       3.34362631      11.22015742       0.02690282       0.01937957       0.00134540
H        3.71819916       2.59348748      12.89843487       0.01390129       0.01724988       0.00104219
H        3.80764044       2.67907392      11.15028521       0.02004773       0.02887787       0.00188133
H        8.01285955       1.61865869      12.92646233       0.01999287       0.01259646       0.00091624
H        7.98376397       1.62963527      11.18060215       0.02141444       0.01274000       0.00098479
H        3.19475292       0.20389218      11.04215234       0.01674730       0.03062207      -0.01805525
H        1.93589916       1.15373202      11.80180465       0.01576596       0.02774564      -0.01812615
H        3.02440481       0.20808903      12.78539911       0.00640267       0.01739560      -0.02013546
H        8.59910479       4.06826219      11.17228441       0.03032330       0.01088488       0.00213861
H        8.62571019       4.06509959      12.93169286       0.02683207       0.01040175       0.00207575
H        9.81334340       3.11557868      12.03171322       0.02401833       0.00604746       0.00423287
C        9.27192852       5.20089024       6.38425111       0.01024631      -0.00565112       0.00338280
C       10.39277864       4.89791026       7.36655557       0.01124706      -0.00294608       0.00294369
C        8.34593958       6.29943427       6.88505034       0.00539376      -0.01072323       0.00534052
C       11.31851439       3.77583324       6.91633970       0.01194279      -0.00289333       0.00527501
C        7.14336710       6.51418444       5.98485222       0.00163385      -0.01654023       0.00908932
C       12.42039427       3.49746308       7.92929974       0.00834772      -0.00424865       0.00851530
H        9.69343395       5.49161978       5.41432157       0.00868824      -0.00281408       0.00374633
H        8.69305333       4.28859814       6.20070958       0.01405248      -0.00766331       0.00266900
H        9.95596089       4.63335224       8.33724820       0.01172261      -0.00251858       0.00310448
H       10.97959817       5.80864316       7.53913106       0.01048861      -0.00259325       0.00196926
H        8.00435843       6.05170394       7.89652515       0.00924543      -0.01305594       0.00584376
H        8.91424247       7.22979385       6.97869309      -0.00009809      -0.00755507       0.00447427
H       10.72648953       2.86987613       6.74542456       0.01210546      -0.00226018       0.00297008
H       11.75197109       4.04546577       5.94462672       0.01536216      -0.00278695       0.00699791
H        7.44509481       6.83390996       4.98573771      -0.00409793      -0.01366426       0.00848407
H        6.46547349       7.27238186       6.37957986      -0.00087962      -0.02095813       0.01298381
H        6.57629044       5.58763963       5.87610695       0.00615235      -0.01924741       0.00999573
H       13.04894620       4.37849670       8.07634484       0.00943688      -0.00564377       0.01031414
H       11.99367273       3.23774929       8.89979389       0.00455530      -0.00291431       0.00703950
H       13.06867833       2.67119927       7.63077914       0.00751509      -0.00548702       0.01070897
