186
Lattice="12.951419212324893 0.0 0.0 0.0 12.951419212324893 0.0 0.0 0.0 12.951419212324893" Properties=species:S:1:pos:R:3:forces:R:3 energy=-75742.1484375 stress="-0.002913691569119692 -0.0005085285229142755 -0.0005410061858128756 -0.0005085285229142755 -0.0024329540319740772 -0.00011036227806471288 -0.0005410061858128756 -0.00011036227806471288 -0.002729956293478608" pbc="T T T"
N        0.57585344       2.03217135       3.48206552      -0.01091841       0.00693026      -0.00370175
N        0.71488316       3.51118843       1.90943648      -0.01418338      -0.00058860       0.00573719
C        0.68358167       1.37167402       4.78056355      -0.00073153       0.01337624       0.00452715
C        2.07745485       0.80028394       5.01460348      -0.00887698       0.01225591      -0.00078058
C        3.15831938       1.87211842       5.02094131      -0.00501837       0.00929791      -0.00816085
C        0.80351868       3.32611978       3.23141634      -0.02055356      -0.00337654      -0.01446116
C        0.34192705       1.37737321       2.29868501      -0.00219993      -0.00984454       0.01728952
C        0.42550606       2.30668047       1.31002149      -0.00313520       0.01277578      -0.01248628
C        4.54599160       1.31918281       5.29097343      -0.00196540       0.00749375      -0.02123778
C        0.88243315       4.77319828       1.21307424      -0.01413398      -0.00095379      -0.00154221
H        0.42639976       2.10507167       5.54482494       0.00580877       0.02484873      -0.00216773
H       -0.07432998       0.58823894       4.79554227      -0.01394144       0.02125669       0.01718212
H        2.29568640       0.04884306       4.25046344      -0.01422172       0.01177339      -0.00200772
H        2.06156043       0.27318657       5.97376496      -0.00506870       0.01610267      -0.00242484
H        3.16631051       2.37133074       4.04873995      -0.01146616       0.01427461      -0.00611797
H        2.90296138       2.63709156       5.76531591       0.00523500       0.00834963      -0.00363380
H        1.04156682       4.08507583       3.95556123      -0.02570537       0.00939453       0.00012013
H        0.15262219       0.31725513       2.18673563       0.00268880      -0.00037006       0.00677626
H        0.30523561       2.18742233       0.24846711       0.00033734       0.00044700       0.00112442
H        4.84113981       0.61959874       4.51013191      -0.00629438       0.01128004      -0.02698125
H        4.57967585       0.78540769       6.24251818       0.00384204       0.00296441      -0.02450238
H        5.29295504       2.11286021       5.33085750      -0.00051072       0.00678574      -0.02213062
H        1.14768873       5.54679273       1.92771652      -0.01509880       0.00209127      -0.00134057
H        1.67757638       4.67858083       0.47364368      -0.01078731      -0.00268728       0.00466552
H       -0.04704431       5.04137059       0.71541538      -0.01139191       0.00294527      -0.00172190
Cl      13.13380172      12.13445457       0.20935716       0.02153000      -0.02736307       0.02922925
C        2.44789562       6.49435055       4.63439484      -0.00274536      -0.01002976       0.00802892
C        3.90066708       6.44335665       4.17720922      -0.00335255      -0.00596413       0.00401154
C        2.12182600       7.70051837       5.50436160      -0.00556085      -0.00975946       0.00748014
C        4.20947792       5.25346904       3.27480760      -0.00564462      -0.00690028       0.00388220
C        0.66697724       7.74871103       5.94764571      -0.00683075      -0.01550405       0.00479792
C        5.65794450       5.18215562       2.80873080      -0.00531223      -0.00952738       0.00459192
H        1.78855365       6.51138560       3.75668628      -0.00454426      -0.01376347       0.01024117
H        2.21051370       5.57760946       5.19198411       0.00122191      -0.00992888       0.00874862
H        4.54871786       6.41271499       5.05811388      -0.00001970      -0.00430955       0.00092536
H        4.14547897       7.37399040       3.65327617      -0.00728545      -0.00686729       0.00203502
H        2.77515096       7.68979457       6.38299170      -0.00705670      -0.00750550       0.00792366
H        2.36705064       8.61102900       4.94850466      -0.00758532      -0.00971597       0.00719109
H        3.95446954       4.33207270       3.80664616      -0.00598249      -0.00567070       0.00504871
H        3.55354260       5.29135549       2.39704846      -0.00631529      -0.00606112       0.00532341
H       -0.00585598       7.77930628       5.08795370      -0.00453687      -0.01805880       0.00350569
H        0.46385865       8.63133026       6.55626993      -0.01177234      -0.01576008       0.00449733
H        0.40577895       6.86785405       6.53908965      -0.00410737      -0.01607934       0.00442809
H        5.94288787       6.08719910       2.27035728      -0.00297814      -0.00928029       0.00703678
H        6.33966316       5.07521759       3.65214322      -0.00749048      -0.01456260       0.00501016
H        5.81884856       4.33472991       2.14064494      -0.00762025      -0.00903858       0.00259490
C       10.02030550       9.48725284      11.67185364      -0.01134694      -0.00336739      -0.00099753
C       11.13103670       8.48144545      11.40376631      -0.01768529      -0.00908749      -0.00658436
C       10.50998539      10.92196366      11.60380300      -0.00806159      -0.00420204      -0.01542947
C       10.63614128       7.04136949      11.42082664      -0.02225161      -0.00800720       0.00436857
C        9.48397466      11.97615253      11.98435109      -0.00769794      -0.00660419      -0.00648281
C       11.72795914       6.03999998      11.08930485      -0.02346313      -0.00950429       0.00175870
H        9.21185189       9.31361514      10.95821408      -0.01870650      -0.00141711       0.00860998
H        9.59509617       9.28761931      12.66065666      -0.00226411       0.00401825       0.00336143
H       11.92825989       8.61646664      12.14402509      -0.01170346      -0.01058354      -0.01396859
H       11.59108765       8.69795052      10.43160109      -0.02680241      -0.01537380      -0.01115525
H       11.37165405      11.04307402      12.26282462       0.00250414      -0.00044939      -0.03118119
H       10.89871077      11.12681682      10.59913121      -0.03284297      -0.01153654      -0.02522904
H       10.20609206       6.82024712      12.40370567      -0.01344150      -0.00296326       0.00886580
H        9.81644109       6.93542021      10.70162514      -0.02733305      -0.01086374       0.01154539
H        8.62884161      12.01008501      11.30345754      -0.01365760      -0.01189615       0.00153176
H        9.95149511      12.96195689      11.99021975      -0.01189180      -0.00417352      -0.01381917
H        9.09554263      11.80078882      12.99060868       0.00392824      -0.00714241      -0.00301322
H       12.10545847       6.20183591      10.07935544      -0.03270616      -0.01809622      -0.00238460
H       12.57697573       6.16358453      11.76492446      -0.01898810      -0.00345509      -0.00688027
H       11.38216718       5.00664457      11.15368294      -0.02120867      -0.01013432       0.01423669
C        4.90199032       4.45152076       8.65412699       0.00025174      -0.00011739      -0.00021868
C        3.44993147       4.79827268       8.95047262      -0.00193071       0.00012326      -0.00735119
C        5.10459249       2.98562044       8.30269983       0.00360274      -0.00248682       0.00865502
C        3.26523626       6.25238558       9.35402953      -0.00158325      -0.00068820      -0.00068131
C        6.54479592       2.64479504       7.95269596       0.00493968       0.00032604       0.01017292
C        1.82975897       6.60360627       9.68713299      -0.00308633      -0.00070167      -0.00336437
H        5.25943616       5.07621124       7.82639717       0.00414863      -0.00322817       0.00027490
H        5.52301935       4.71700952       9.51794856      -0.00531469       0.00292986       0.00198942
H        3.07501699       4.15233281       9.75332750      -0.00811557      -0.00352897      -0.01418939
H        2.83243544       4.57323888       8.07126652       0.00427184       0.00764550      -0.01271507
H        4.76471725       2.35991534       9.13423623       0.00691521       0.00411226       0.01396963
H        4.45369957       2.74314477       7.45962588       0.00417732      -0.01180329       0.01144251
H        3.89452899       6.45202275      10.22381159      -0.00239478      -0.00382969       0.00023207
H        3.63925484       6.90223193       8.55601599      -0.00054732       0.00134441       0.00247470
H        6.89123740       3.24771796       7.11038485       0.00256973      -0.00529967       0.00581381
H        6.65915074       1.59450697       7.67826688       0.00794873      -0.00184026       0.01770710
H        7.21241443       2.84469087       8.79421349       0.00356641       0.00802623       0.00879683
H        1.17157605       6.44366775       8.83039176       0.00094847       0.00769829      -0.00709482
H        1.46693405       5.97219055      10.49816019      -0.00966594      -0.00372560      -0.00936717
H        1.71926408       7.64305468      10.00093330      -0.00101468      -0.00165197       0.00268620
C        7.33874011      10.38368488       3.98126840       0.00655456      -0.00158983      -0.00134823
C        6.38505098       9.92663299       5.07580038       0.00236306      -0.00484127      -0.00496948
C        8.35107130       9.31842679       3.57960419       0.00920950      -0.00014949       0.00075673
C        5.40061440      11.00235577       5.50129295       0.00552227      -0.00128752      -0.00195751
C        9.28516557       9.77724214       2.47204311       0.00798547       0.00268045       0.00000277
C        4.47386541      10.56386513       6.62490170       0.00747505      -0.00086568       0.00010270
H        6.76228995      10.68689430       3.09860567       0.00930493      -0.00004300      -0.00169444
H        7.87168523      11.28218713       4.31645905       0.00718659      -0.00476238       0.00306760
H        6.96582322       9.61023082       5.94815817      -0.00071983      -0.01203889      -0.00672624
H        5.83680054       9.03873396       4.73978024      -0.00069101      -0.00082088      -0.00975194
H        8.93066520       9.01771433       4.45892568       0.00726897       0.00151540       0.00255826
H        7.81318558       8.42035964       3.25729770       0.01082888      -0.00068873       0.00289719
H        5.96231171      11.88821432       5.81137548       0.00843155      -0.00339833      -0.00271378
H        4.80791897      11.30662597       4.63255597       0.00557335       0.00100029      -0.00006700
H        8.71538852      10.05731454       1.58510303       0.00727320       0.00468656       0.00193702
H        9.98770957       8.99550224       2.18069265       0.00934619       0.00323418      -0.00025869
H        9.86980713      10.64956941       2.77123609       0.00825144       0.00158055      -0.00070055
H        3.89305463       9.68864820       6.33283307       0.00297099       0.00301409      -0.00041077
H        5.04039581      10.29870161       7.51977352       0.01002219      -0.00488795      -0.00360818
H        3.76787637      11.35013283       6.90014731       0.01197377       0.00213329       0.00458056
C        2.45569613       9.40622997       1.95655831      -0.00610721       0.00484484      -0.00596242
C        3.94654744       9.42162991       1.64853249      -0.00592148       0.01003301      -0.00693625
C        2.00887997      10.58620931       2.80891742      -0.00414726      -0.00404254       0.00816083
C        4.41328158       8.22988794       0.82255557      -0.00101900       0.01125380      -0.00667885
C        0.53314278      10.52029954       3.17326573      -0.00018927      -0.01546366       0.02334405
C        5.91625824       8.23337414       0.58179388       0.00114334       0.01077098       0.00488456
H        1.88217623       9.41162275       1.02410071      -0.00780861       0.01581027      -0.00371885
H        2.20837989       8.47125606       2.47723297      -0.00445673      -0.00119711      -0.01712401
H        4.51188425       9.44412820       2.58975849      -0.00589246       0.01195927      -0.00769314
H        4.20116213      10.34916593       1.12398951      -0.00916810       0.00977570      -0.00673760
H        2.62594205      10.62939112       3.71601364       0.00395067      -0.00742486       0.00207520
H        2.19301753      11.50355850       2.24071152      -0.01339632       0.00071210       0.01364446
H        4.12733829       7.30578963       1.33601450      -0.00506531       0.01130664      -0.00962771
H        3.87588444       8.21927180      -0.13195433       0.00655505       0.01412158      -0.01041088
H       -0.06795118      10.57793770       2.26535248      -0.01029622      -0.01275468       0.03067565
H        0.23877914      11.35494565       3.81539615       0.00231124      -0.02054044       0.03181452
H        0.29570339       9.60005887       3.71049895       0.01215115      -0.02055386       0.01936171
H        6.21914937       9.10003895      -0.00917771       0.00592967       0.00959194       0.00631529
H        6.45902927       8.28118181       1.52796494      -0.00764474       0.01108820       0.00947748
H        6.24945776       7.34028302       0.05155937       0.00567916       0.00993578       0.00789952
C        8.49405897      10.52869658       8.41969745       0.00048810       0.01660562      -0.00804755
C        7.81222312       9.22221684       8.78596105      -0.00069121       0.01607853      -0.00928883
C        9.60864971      10.34797962       7.39773310       0.00579114       0.01208109      -0.00218740
C        6.73395205       9.34349678       9.85047409      -0.00131880       0.01418498      -0.00872904
C       10.28710209      11.65780594       7.02521889       0.00843695       0.00988665      -0.00644591
C        6.10787081       7.99260119      10.14267672       0.00709058       0.01054120      -0.00479536
H        7.74693334      11.23010924       8.02680639       0.00366312       0.01623152      -0.01300594
H        8.90531279      10.99214160       9.32097371      -0.00423361       0.01758870      -0.00729197
H        8.56587080       8.49998173       9.12158662      -0.00144601       0.01612540      -0.01006545
H        7.36539385       8.77841315       7.89070488       0.00019717       0.01779417      -0.01002815
H       10.34955974       9.64609043       7.79665531       0.00348124       0.01472223       0.00534162
H        9.20009499       9.87801785       6.49741603       0.00916569       0.00758725      -0.00063810
H        7.15596325       9.77318806      10.76331608      -0.00101146       0.01527915      -0.01000968
H        5.96373195      10.04522916       9.51506735      -0.00416040       0.01049396      -0.00734577
H        9.55925907      12.36911757       6.62755676       0.01151238       0.00843960      -0.01350367
H       11.05815191      11.50838106       6.26714847       0.01118289       0.00389054      -0.00309248
H       10.75445893      12.11722115       7.89853418       0.00662579       0.01306040      -0.00776964
H        5.74159472       7.53693020       9.22182961       0.00824142       0.00564183      -0.00247166
H        6.83779341       7.30510572      10.57800586       0.01224703       0.01830660      -0.00336649
H        5.26823293       8.06931724      10.83188962       0.00709009       0.00728359      -0.00322360
C        5.26671463       1.44204464      12.05718227       0.01198532       0.00458586      -0.00134711
C        6.22491409       2.62127936      12.07457502       0.01059215       0.00735492       0.00057378
C        3.80124169       1.84807576      12.02966980       0.01042202       0.00442746      -0.00296603
C        7.68802887       2.20605965      12.05127105       0.01114500       0.00656354       0.00047164
C        2.86986132       0.65435927      11.96877283       0.01166266       0.00275195      -0.01406449
C        8.64030711       3.39224001      12.03757718       0.01157731       0.00659087       0.00101934
H        5.47733695       0.81577929      11.18160108       0.01471737       0.00673695      -0.00166100
H        5.44708099       0.80326446      12.92983946       0.01250509       0.00494200      -0.00210351
H        6.03071762       3.23671016      12.96118694       0.01017637       0.00586648       0.00041148
H        6.01652495       3.26443686      11.21145250       0.01087638       0.00750022       0.00178072
H        3.58120037       2.45066034      12.92123108       0.00811273      -0.00197840       0.00018841
H        3.62979599       2.50596908      11.17051349       0.01393149       0.00949287       0.00120339
H        7.89812806       1.57003653      12.91685822       0.00949470       0.00681645       0.00022975
H        7.86625252       1.57820602      11.17280184       0.01002738       0.00809012       0.00008571
H        3.09623222       0.02175512      11.10715936       0.01704331       0.00914194      -0.01621982
H        1.82014220       0.92815309      11.89816327       0.00964341      -0.00003918      -0.01888276
H        2.95306854       0.03231761      12.86043767       0.00608017      -0.00124729      -0.01785173
H        8.46748136       4.02278238      11.16151806       0.01323588       0.00634892       0.00132002
H        8.49901103       4.01852191      12.92137616       0.01314420       0.00497790       0.00154868
H        9.68232742       3.06986832      12.01829122       0.01195043       0.00447175       0.00064205
C        9.24818242       5.20854598       6.37829474       0.01181027      -0.00681508       0.00086641
C       10.36807308       4.90072601       7.35956646       0.01276235      -0.00370917       0.00190401
C        8.33088509       6.31566204       6.87390730       0.00644848      -0.01226473       0.00581878
C       11.29002280       3.77873499       6.90227983       0.01392888      -0.00466123       0.00533894
C        7.13880072       6.54267232       5.96360478      -0.00057846      -0.02013000       0.01213214
C       12.39984305       3.49979378       7.90576917       0.00911039      -0.00463204       0.01116771
H        9.67140016       5.49297906       5.40730710       0.01007898      -0.00290182       0.00200003
H        8.66257993       4.30003475       6.19784403       0.01619373      -0.00859976      -0.00010964
H        9.93194612       4.63451017       8.33014537       0.01243789      -0.00274188       0.00120807
H       10.95694852       5.80988106       7.53368601       0.01169072      -0.00364411       0.00068360
H        7.97826224       6.07177559       7.88243972       0.01407523      -0.01609870       0.00681868
H        8.90859049       7.23965746       6.97218594      -0.00022179      -0.00836539       0.00288048
H       10.69662044       2.87308213       6.73524633       0.01430950      -0.00367293       0.00291677
H       11.71561178       4.04836875       5.92736509       0.01903509      -0.00476716       0.00780585
H        7.45371005       6.85586411       4.96654429      -0.00950510      -0.01524831       0.01162341
H        6.46718974       7.31037891       6.34974698      -0.00523789      -0.02598262       0.01788282
H        6.56161252       5.62292728       5.85213648       0.00611597      -0.02399170       0.01415496
H       13.02405020       4.38375821       8.05375173       0.01092748      -0.00633331       0.01094794
H       11.98241707       3.23036413       8.87755406       0.00304684      -0.00031985       0.00920597
H       13.05084299       2.68018893       7.59576084       0.00837204      -0.00767368       0.01693992
