192
Lattice="13.125373994746418 0.0 0.0 0.0 13.125373994746418 0.0 0.0 0.0 13.125373994746418" Properties=species:S:1:pos:R:3:forces:R:3 energy=-83577.3515625 stress="-0.0019114271271973848 0.0003057079011341557 -0.00014901607937645167 0.0003057079011341557 -0.0016177467769011855 0.00012259492359589785 -0.00014901607937645167 0.00012259492359589785 -0.0015621698694303632" pbc="T T T"
N        3.46882817       5.42611547       5.21451189      -0.01200939      -0.00637786       0.03476793
N        3.12317838       5.70823757       3.09544066      -0.02351303       0.00202194      -0.02739429
C        4.08120223       5.01776681       6.48090130      -0.00027993      -0.00783259      -0.00642782
C        3.87024107       3.53835853       6.74546531      -0.00108096      -0.00337943       0.00251698
C        4.61719126       2.66518677       5.75093719       0.00006476      -0.00788151       0.00617328
C        4.03770680       5.35869581       4.00753296       0.03898537      -0.02373388      -0.00748369
C        2.16073669       5.81364790       5.06685056       0.00027031       0.00402166      -0.01352026
C        1.94476278       5.99586758       3.73704508       0.00627494      -0.00275707       0.02602413
C        4.46742517       1.18902899       6.05750992       0.00165919      -0.00740251       0.00774521
C        3.33909891       5.82148156       1.66351187      -0.00562924      -0.01449486       0.01249772
H        5.14424097       5.26065487       6.42286619       0.00105789      -0.00709314       0.00085530
H        3.63731828       5.64201787       7.25582002       0.00012837      -0.00372377       0.00240302
H        2.79853780       3.31327610       6.72775986      -0.00129238      -0.00572990       0.00316101
H        4.21001292       3.33527676       7.76420024      -0.00143872      -0.00467790       0.00505441
H        4.23205753       2.83310394       4.74251041      -0.00009577      -0.00944393       0.00502223
H        5.67271165       2.95477037       5.74386471      -0.00027761      -0.00664466       0.00573423
H        5.05214828       5.05433033       3.80659478      -0.02352383      -0.01203458       0.00221866
H        1.50746778       5.93221611       5.91192659       0.00139363       0.00752536       0.01163775
H        1.06698603       6.30427691       3.20169586      -0.00554801       0.00805320       0.00311524
H        3.41931639       0.89801330       5.99689142       0.00209191      -0.00933260       0.00632557
H        4.82994590       0.94706154       7.05951659      -0.00000125      -0.00549130       0.00855413
H        5.01174816       0.57802773       5.33942180       0.00394879      -0.00673080       0.00967148
H        4.35952835       5.52719369       1.43821913      -0.00875688      -0.01310496       0.00057930
H        2.64837083       5.16574836       1.13503023      -0.01069385      -0.01554208       0.00663412
H        3.18655766       6.85461471       1.34993887      -0.00982259      -0.01251820      -0.00049306
O       13.47274489      12.99310982       1.03830973       0.02708334      -0.00759572       0.03575286
H       13.85252720      12.26203911       0.54128060      -0.00363010       0.01742375       0.02888846
O        7.16024448       4.79363277       9.89209895       0.00362472      -0.00434480       0.00335222
C        6.44713692       5.95718648       9.51581028       0.00544274      -0.00445956       0.00112015
C        6.78796007       3.65978337       9.12776662       0.00587779      -0.00443447       0.00282476
C        6.94867712       7.11983686      10.33640348       0.00208350      -0.00475442       0.00287774
C        7.70113359       2.50900107       9.46760660       0.00375149      -0.00485423       0.00563414
H        6.59679726       6.15489940       8.44212068       0.00949752      -0.00446799       0.00152001
H        5.36814740       5.80345955       9.66633235       0.00484857      -0.00446279      -0.00310825
H        5.74088058       3.39762793       9.34075327       0.00494254      -0.00391840      -0.00025564
H        6.85222599       3.90164421       8.05422286       0.00910220      -0.00484598       0.00300273
H        6.38176276       8.02149714      10.10195873       0.00380833      -0.00415257      -0.00059895
H        6.84303202       6.91132260      11.40231033      -0.00358173      -0.00390811       0.00211851
H        8.00088757       7.31280134      10.12279477       0.00298408      -0.00549828       0.00809192
H        7.41763217       1.62641566       8.89226203       0.00549827      -0.00447348       0.00504839
H        8.73534869       2.75915954       9.23126198       0.00483447      -0.00511892       0.00895743
H        7.63858819       2.26416548      10.52774726       0.00041942      -0.00475061       0.00548306
O        4.70170895       9.66361290       7.28334572       0.00155221      -0.00216386       0.00164348
C        6.05526363       9.69490922       6.84722229       0.00045717      -0.00367057      -0.00175092
C        4.25998675       8.34648078       7.52128403      -0.00161958      -0.00147720      -0.00393373
C        6.36910321      11.08381475       6.35167997       0.00164578      -0.00361443      -0.00040329
C        2.80334714       8.36898540       7.91984847       0.00165492       0.00164119       0.00679648
H        6.71877626       9.40270972       7.67554341       0.00197440      -0.00591192      -0.00382200
H        6.19313882       8.97302432       6.03672641      -0.00266666      -0.00250044      -0.00302634
H        4.40701464       7.75592292       6.60357958      -0.01104239       0.00412992      -0.00876531
H        4.87220280       7.88006780       8.30882674       0.00230560      -0.00910479      -0.01169044
H        7.41559683      11.15178292       6.05141682       0.00068341      -0.00486480      -0.00317032
H        5.74843637      11.32068432       5.48740055      -0.00047061      -0.00141718       0.00160308
H        6.17739137      11.82898979       7.12485717       0.00474925      -0.00446063       0.00104645
H        2.43631742       7.35478729       8.09207300      -0.00146836       0.00214414       0.00202380
H        2.66807560       8.92801233       8.84628153       0.01096539      -0.00452504       0.01140489
H        2.20545923       8.84454204       7.14256656      -0.00142230       0.00923699       0.01416402
O        1.54502408      10.66085215       5.79177196      -0.01522383       0.00207883       0.00763176
C        1.42653360      11.90765332       6.46075715      -0.00711831       0.00584884       0.00208938
C        0.58757780      10.54973128       4.75222771      -0.00235803       0.01069742      -0.00166878
C        2.45671585      11.99235215       7.55741228      -0.01711628      -0.00213656       0.01372173
C        0.70602696       9.18222973       4.12662456      -0.00800420       0.00599003       0.00222504
H        1.55824450      12.71939207       5.73277805       0.01058461       0.00042170       0.00157675
H        0.40951217      12.00301996       6.87148452      -0.00881737       0.01925744      -0.00868970
H       -0.41880356      10.68635868       5.17450959      -0.00576916       0.01635314      -0.00965598
H        0.74365152      11.33675553       4.00191988       0.01050162       0.00908741      -0.00087559
H        2.39777179      12.96541291       8.04701799      -0.01223945       0.00065082       0.01062850
H        2.29643668      11.21730051       8.30482525      -0.03504516       0.00242637       0.01316553
H        3.45754465      11.85821122       7.15318146      -0.01516877      -0.01395464       0.02481402
H       -0.05432125       9.05507126       3.35340478      -0.00033636       0.01480440      -0.00738606
H        1.68896587       9.05265248       3.67380788      -0.00417949       0.00000177       0.01223805
H        0.57153200       8.40809347       4.88443875      -0.02304545       0.00956081      -0.00242014
O        8.36343364      11.53470501      10.88686050       0.00249051       0.00433943       0.00028828
C        7.54377206      11.04434413       9.84426512       0.00646782       0.00323172      -0.00202851
C        9.71560162      11.65330070      10.47012254       0.00389779       0.00548209       0.00640735
C        6.11174125      10.95662743      10.31271393       0.00502545       0.00593388      -0.00784817
C       10.55377979      12.18531021      11.60283185      -0.00337180       0.00774340       0.01054746
H        7.62336864      11.70969026       8.97146165       0.01082881       0.00222331      -0.00295562
H        7.90719594      10.05434120       9.52755955       0.00678219       0.00266415       0.00060882
H       10.07894612      10.66722705      10.14217304       0.00704752       0.00568867       0.00962736
H        9.76500698      12.32116429       9.59605117       0.00744492       0.00459039       0.00633663
H        5.46604136      10.62835840       9.49551479       0.00742251       0.00498384      -0.00893481
H        6.02085939      10.24859907      11.13608878       0.00119388       0.00739919      -0.00657406
H        5.76154230      11.92785262      10.66442686       0.00504914       0.00681847      -0.01065328
H       11.58934224      12.31219803      11.28516397      -0.00173959       0.00957085       0.01607917
H       10.18077054      13.15057738      11.94174571      -0.00739861       0.00694272       0.00767500
H       10.54264969      11.50936070      12.45617747      -0.00719829       0.00818098       0.01044966
O       10.09084593       7.73956466       7.52586806       0.00966945      -0.00275693      -0.00035662
C       10.61594437       6.46671825       7.85961234       0.01298377      -0.00131816      -0.00007309
C       11.01544776       8.78520386       7.77182256       0.00712997      -0.00087178       0.00105405
C        9.58299671       5.41365207       7.54168606       0.01333186      -0.00328875       0.00533264
C       10.44238057      10.07536557       7.23854552       0.00491741      -0.00200087       0.00183226
H       11.53931020       6.29385167       7.28638031       0.01091611      -0.00084917      -0.00245988
H       10.88397457       6.43692614       8.92593614       0.01606823       0.00120677      -0.00089806
H       11.21571090       8.85759610       8.85124022       0.00603864      -0.00140723       0.00109982
H       11.97414939       8.55660057       7.28085992       0.00802499       0.00165227       0.00141189
H       10.00755290       4.41726391       7.67128604       0.01577394      -0.00218485       0.00291298
H        8.72722843       5.50118324       8.20810941       0.01616719      -0.00507217       0.00922124
H        9.24123489       5.51197472       6.51069974       0.00832604      -0.00360583       0.00699648
H       11.10263865      10.90885503       7.48071809       0.00457968      -0.00110900       0.00137323
H       10.32515144      10.02821114       6.15571242       0.00401480      -0.00160939       0.00226370
H        9.46524075      10.27193477       7.67997790       0.00549452      -0.00298191       0.00297236
O        6.59773331       8.68569519       3.74996103      -0.00039741       0.00198427      -0.00305115
C        5.54045075       8.55713844       2.82328400      -0.00208193       0.00293696      -0.00036341
C        7.54752292       7.64002784       3.64681582      -0.00161704       0.00106884      -0.00477609
C        4.53089100       9.64907280       3.07728928      -0.00166264       0.00244737       0.00291337
C        8.63007891       7.87234006       4.66436016       0.00003675      -0.00116819      -0.00636265
H        5.93586667       8.60602351       1.79711911      -0.00458510       0.00359087      -0.00125027
H        5.07576931       7.56749630       2.94235732      -0.00215548       0.00243631      -0.00042625
H        7.05761288       6.67014777       3.82903723      -0.00305322       0.00165731      -0.00465317
H        7.95800167       7.61053676       2.62525269      -0.00349993       0.00091383      -0.00508463
H        3.72067879       9.59571668       2.34859514      -0.00356188       0.00254477       0.00525051
H        4.10826008       9.56713661       4.08036648       0.00061799       0.00233147       0.00365609
H        4.99948417      10.62747745       2.98270709      -0.00198111       0.00288630       0.00207152
H        9.38726849       7.09338131       4.59641439      -0.00165564      -0.00362015      -0.00744871
H        9.11037823       8.83617369       4.49771643       0.00236005      -0.00304726      -0.00729667
H        8.23558093       7.86308710       5.67873362       0.00185367      -0.00027580      -0.00582050
O       11.47511962       4.01128751       2.49802206       0.00095783      -0.00021634      -0.01132053
C       11.53188300       3.76190065       1.09369278       0.00001818       0.00505781      -0.01214148
C       11.50803296       5.38220435       2.81341626       0.00174367      -0.00119370      -0.00795400
C       11.36898677       2.28562253       0.84953473      -0.00219128       0.00623304      -0.01830924
C       11.63628651       5.51942625       4.31299971      -0.00089797      -0.00386053      -0.00754875
H       10.73900282       4.34012140       0.59526471       0.00072446       0.00837916      -0.00929247
H       12.49436638       4.12264358       0.70170646      -0.00004935       0.00514834      -0.01153246
H       12.34893056       5.86633971       2.29067932       0.00255841      -0.00095527      -0.00551409
H       10.59476675       5.88244539       2.45188151       0.00252202       0.00006889      -0.00834674
H       11.33621238       2.09232477      -0.22279329      -0.00833137       0.01307281      -0.01939517
H       12.19521053       1.69220519       1.24339688      -0.00166106       0.00290495      -0.02437279
H       10.43937311       1.92302624       1.29072462      -0.00066748       0.00478086      -0.01638259
H       11.71293162       6.56828337       4.60741138      -0.00041415      -0.00436549      -0.00651693
H       10.76591668       5.08752563       4.80782525      -0.00196894      -0.00330912      -0.00963374
H       12.51553614       4.97806880       4.66438131      -0.00176930      -0.00487290      -0.00695161
O        7.69581093       3.31523996       3.40917498       0.00139537      -0.00046700      -0.00034508
C        8.62038496       2.34092305       3.89823169       0.00299649       0.00088610      -0.00059885
C        7.99443211       3.63664393       2.05871176      -0.00268885      -0.00413162      -0.00189555
C        8.24283724       1.94013949       5.30188045       0.00811325       0.00609342       0.00203842
C        6.88176834       4.46939886       1.47224333      -0.00461322      -0.00579804      -0.00029536
H        8.59636510       1.46612923       3.23363832      -0.00032745      -0.00129709       0.00254557
H        9.63579999       2.75370814       3.85833213       0.00273311       0.00014293      -0.00619079
H        8.95358542       4.16665020       2.01358056      -0.00286594      -0.00399393      -0.00615864
H        8.11021992       2.71007834       1.48012613      -0.00435576      -0.00532588       0.00030228
H        8.97905674       1.23513754       5.69041439       0.00946927       0.00723439       0.00162077
H        8.21587971       2.80654938       5.96549319       0.01171621       0.00864376      -0.00103317
H        7.26799665       1.45288871       5.32158940       0.00830962       0.00716147       0.00773347
H        7.10348811       4.70812415       0.43017365      -0.00793452      -0.00816297      -0.00150828
H        5.94312173       3.91166557       1.50207867      -0.00411236      -0.00622597       0.00375649
H        6.76588519       5.40759830       2.01775259      -0.00350192      -0.00479415      -0.00213861
O        8.94895330      11.59589569       1.66210580       0.00249775       0.00476074      -0.00365247
C        8.10080005      10.60152443       1.12309255       0.00418752       0.00349421      -0.00408861
C       10.09389450      11.03125422       2.27713991       0.00127548       0.00746116       0.00043681
C        6.82183513      11.25877818       0.67279711       0.00260279       0.00214261      -0.00198475
C       10.92063139      12.12579963       2.89639960      -0.00004697       0.01000637      -0.00284332
H        8.59718121      10.09891205       0.27920902       0.00441337       0.00596243      -0.00531340
H        7.89478019       9.84745301       1.89590215       0.00644907       0.00234574      -0.00520054
H        9.76334546      10.30239836       3.03435271      -0.00002649       0.01083982       0.00294477
H       10.68540634      10.47601239       1.53208216       0.00216526       0.00311136       0.00422823
H        6.12488218      10.51786503       0.27983937       0.00462397       0.00157659      -0.00455437
H        6.34896376      11.76339661       1.51216471       0.00147569      -0.00206233      -0.00022185
H        7.02869369      11.98464985      -0.11173059       0.00072794       0.00483266       0.00063787
H       11.68116796      11.68878737       3.53951391       0.00007797       0.01313522      -0.00116776
H       11.45445059      12.70614953       2.14148396       0.00090739       0.00911576      -0.00312403
H       10.28630932      12.77135597       3.50721838      -0.00065283       0.01217972      -0.00632815
O        2.28794688       3.74003491      11.46217737      -0.00304794      -0.00280272      -0.00055584
C        3.46424056       4.51365715      11.49388299      -0.00333511      -0.00244039      -0.00348574
C        2.57318828       2.34275155      11.47149752      -0.00274998      -0.00229350      -0.01065311
C        3.09311079       5.97051315      11.33653967      -0.00320397      -0.00204885      -0.00015369
C        1.28643195       1.56538972      11.40869430      -0.00237715      -0.00263864      -0.00794384
H        4.01065211       4.33645683      12.43460229       0.00024992      -0.00362592      -0.00625807
H        4.14409788       4.20055286      10.68699527      -0.00646374      -0.00105794      -0.00691548
H        3.22311992       2.10715565      10.61393695      -0.00823909       0.00368734      -0.01626670
H        3.13243564       2.09204132      12.38205993       0.00318983      -0.00765081      -0.01601344
H        3.96792116       6.61111419      11.46334955      -0.00237063      -0.00301088      -0.00297537
H        2.67243776       6.15281274      10.34685367      -0.00700141      -0.00044754       0.00153732
H        2.33640625       6.25651837      12.06767760      -0.00006033      -0.00247775       0.00298749
H        1.50591098       0.49834067      11.36260873      -0.00146633      -0.00142024      -0.02352192
H        0.68381153       1.70843004      12.30482622       0.00616924      -0.01325211       0.00010198
H        0.71326999       1.84730509      10.52378059      -0.01080584       0.00691780       0.00202706
O        3.16583470       1.67173760       2.97474119      -0.00052399       0.01439919       0.00049877
C        1.83512216       1.98671972       2.56443968      -0.00255018       0.00590840       0.00203907
C        4.01997931       1.42291764       1.87735987      -0.00566292       0.00166360      -0.00049356
C        0.99294764       2.14887308       3.80428858      -0.00432739      -0.00009567       0.00072098
C        5.38882570       1.06461815       2.40111373      -0.00497526       0.00174597      -0.00337619
H        1.85403308       2.92075478       1.97327119      -0.01053314       0.00428802      -0.00013126
H        1.42416103       1.18239333       1.91663708       0.00292069      -0.00020218       0.00312680
H        3.60011353       0.62330035       1.25078001      -0.01115429      -0.00264853       0.00858986
H        4.07789601       2.32641047       1.24530432      -0.00761607      -0.00514609      -0.00964233
H       -0.00186717       2.50544397       3.53903111      -0.00580108      -0.00570247      -0.00046443
H        0.89186511       1.19124901       4.31599585       0.00092649      -0.00090696      -0.00066107
H        1.44609591       2.86307003       4.49831475      -0.01027510       0.00224472       0.00271188
H        6.09041023       0.91620783       1.57937262      -0.00764140      -0.00209298      -0.00489670
H        5.78139118       1.85500688       3.04143479      -0.00112940       0.00323255      -0.00727032
H        5.34423737       0.14230770       2.98253280      -0.00418599       0.00424565       0.00028616
