195
Lattice="13.108981516112191 0.0 0.0 0.0 13.108981516112191 0.0 0.0 0.0 13.108981516112191" Properties=species:S:1:pos:R:3:forces:R:3 energy=-144632.09375 stress="-0.0017354506999254227 -0.000156703194079455 -0.00036688082036562264 -0.000156703194079455 -0.0010228478349745274 -0.00038480629154946655 -0.00036688082036562264 -0.00038480629154946655 -0.0009986311197280884" pbc="T T T"
N       10.65196513       3.73669151       2.94096966       0.00261426      -0.00096440       0.00036915
N       11.93707250       1.99887697       2.83605349       0.00504655       0.00087720       0.00156449
C        9.62229616       4.68251815       3.38228188       0.00361770      -0.00114253       0.00328463
C        8.45554715       4.79534405       2.41724705       0.00214884       0.00068983       0.00536659
C        7.63666634       3.51846530       2.27135126       0.00327263       0.00052047       0.00187023
C       10.97011645       2.58733141       3.53777076       0.00855485       0.00295016       0.00446963
C       11.44475646       3.88632061       1.82546058      -0.00463820      -0.00532877      -0.00514555
C       12.24844129       2.79315472       1.76160358      -0.00318781      -0.00401089      -0.00444436
C        6.35808500       3.77567251       1.49005069       0.00392798       0.00139505       0.00120485
C       12.59965670       0.75065961       3.18286222       0.00953373       0.00448376       0.00434360
H        9.26970615       4.33527800       4.35196032       0.00522639      -0.00263479       0.00322694
H       10.10843726       5.64943413       3.53210719       0.00374644      -0.00141010       0.00415327
H        8.80901823       5.12969118       1.43560986       0.00007317       0.00461509       0.00622618
H        7.81898575       5.59980072       2.79869815       0.00192818      -0.00141130       0.00929596
H        8.23560383       2.74847164       1.77321969       0.00421630       0.00226775       0.00051537
H        7.38546002       3.12601603       3.26324202       0.00276405      -0.00204959       0.00060409
H       10.49537265       2.17556725       4.40861944       0.01556042       0.00739476       0.00999279
H       11.35542718       4.73353605       1.17150769      -0.01031113      -0.00904368      -0.00956457
H       12.99373620       2.49588254       1.04736828      -0.00802489      -0.00746413      -0.00804640
H        6.56243721       4.26411935       0.53687946       0.00464777       0.00323515       0.00231208
H        5.68179638       4.41797036       2.05204584       0.00299679      -0.00023575       0.00180514
H        5.82929888       2.85025259       1.26860057       0.00482176       0.00148515      -0.00107761
H       11.93256047       0.16367778       3.80577335       0.01315124       0.00510396       0.00884309
H       12.80060659       0.20046831       2.26795392       0.00816745       0.00124493       0.00607726
H       13.53233084       0.97019055       3.70001553       0.01034966       0.00944333       0.00059104
O       12.07526664      12.99554408      -0.33751516       0.00042552       0.00557397      -0.00294446
H       11.62468694      13.36813341      -1.11676461      -0.00111042       0.00468659      -0.00229129
O        7.96871660       3.88603110      11.38654804       0.00085461      -0.00544815      -0.00740582
O        7.51226374       1.89095759      12.31082919       0.00143731      -0.00453037       0.00590271
C        9.80234554       2.57218536      12.07247889       0.00287277       0.00435937       0.00384206
C        8.31928861       2.71252584      11.96162210       0.00849479       0.00387645      -0.00091782
H       10.19130217       2.27754553      11.09494100       0.00275558      -0.01659003       0.01043063
H       10.27062969       3.51296390      12.35523440       0.00304183       0.01039857      -0.01700382
H       10.03919768       1.79100178      12.78841628       0.00542289       0.02018690       0.01986776
H        7.02017494       3.82508045      11.17835156       0.00281501      -0.00953333      -0.01106989
O        9.49556896       6.44475991       6.25134237      -0.00319282      -0.00641787       0.00608225
O       11.72295511       6.44820487       6.06881903      -0.00289974      -0.00770754       0.00510250
C       10.63480457       4.47612937       6.87395167      -0.00383808      -0.00814128       0.00312558
C       10.66980495       5.87574865       6.35530779      -0.00443840      -0.00832444       0.00531122
H       10.51017482       4.51414551       7.95826189       0.01419980      -0.00891969       0.00512728
H        9.77413803       3.93064001       6.49656045      -0.01197019      -0.00351235       0.01572631
H       11.56047432       3.95598493       6.64993215      -0.00957212      -0.01232685      -0.01048044
H        9.59802313       7.40334402       5.89148996      -0.00248265      -0.00675070       0.00761011
O        4.59444514      11.03953720       1.49445020      -0.01178920       0.00242031       0.01946656
O        5.62936236       9.05666896       1.31314416       0.00061041       0.01116359      -0.00290158
C        3.23666405       9.13303800       1.61661267       0.00003821      -0.00680146      -0.00615864
C        4.61306651       9.69511348       1.45887631      -0.00328118       0.00326470       0.00283862
H        2.65752555       9.72070652       2.32852847      -0.00605144      -0.01437308      -0.00511329
H        2.74065756       9.17239875       0.64540290       0.00332835      -0.00519436      -0.00769138
H        3.30671131       8.09681880       1.93144124       0.00635523      -0.00808588      -0.01188061
H        5.50477010      11.35662934       1.39967244      -0.01395077       0.01065092       0.02740838
O        5.53822664      10.29514981      11.41679602       0.00311321       0.00255322       0.00803347
O        7.77724402      10.22925389      11.46988579       0.00253808       0.00262666       0.00431409
C        6.67801989      12.31896269      11.00856982       0.00254675       0.00100195       0.00024622
C        6.75475866      10.86302332      11.31267289       0.00339746       0.00153917       0.00462805
H        6.00904905      12.49517732      10.16583104       0.00368924      -0.00209844      -0.00115216
H        6.26498736      12.85171046      11.86568378       0.00064683       0.00316603      -0.00227615
H        7.67220282      12.70851759      10.81478382       0.00253262       0.00097791       0.00032881
H        5.67651920       9.34856452      11.59352281       0.00343135       0.00353938       0.01289223
O        6.41106694      10.30255208       7.92065891      -0.00043845      -0.00084375       0.00004780
O        4.66882267      11.63170489       8.42225045       0.00168157       0.00015116       0.00317442
C        4.38070614       9.25492387       8.51807923      -0.00004220       0.00081271       0.00451137
C        5.13996924      10.52740126       8.29510218       0.00018653       0.00045586       0.00246812
H        4.19461231       8.78598093       7.55024709       0.00274601      -0.00307140       0.00589614
H        4.97305943       8.55979840       9.11237357      -0.00137274       0.00329798       0.00860615
H        3.43536574       9.48016185       9.00010940      -0.00099164       0.00225575       0.00169344
H        6.83647423      11.16468741       7.63752348      -0.00019610      -0.00121981       0.00025666
O        8.12459576       7.80773511       9.55338686       0.00256115       0.00532447      -0.00100875
O        6.28795597       7.54934502      10.79062804       0.00311553       0.00034547      -0.00033900
C        8.43710353       7.25980090      11.82845743       0.00465116       0.00238903      -0.00225347
C        7.50632795       7.56035953      10.70819410       0.00438982       0.00241894      -0.00075179
H        8.75922190       6.21991867      11.74113727       0.00115144       0.00121281      -0.00000648
H        9.30539668       7.91358322      11.78081661       0.00692591      -0.00107014      -0.00520329
H        7.91405006       7.39143678      12.77176869       0.00699314       0.00643163      -0.00150442
H        7.46150452       8.05172067       8.88466058       0.00197995       0.00497530      -0.00007609
O       10.21246026      12.76673091       1.61943941       0.01174808      -0.00557229       0.00662577
O        9.33437946      13.21667506       3.57921806       0.00774017      -0.00036378       0.00328237
C        7.97069176      12.02448016       1.98293701       0.00778484       0.00445983       0.00017734
C        9.25634091      12.69420842       2.37701621       0.00981623      -0.00104660       0.00315624
H        8.10460484      11.48989711       1.04579757       0.00875199      -0.00188509       0.00423469
H        7.63768818      11.34352627       2.76752584      -0.00158221       0.01204030       0.00249742
H        7.20210966      12.79280276       1.86846977       0.01400217       0.00897969      -0.00972503
H       11.36410683      12.89944224       0.32277226       0.00223178       0.00521681      -0.00125187
O        8.24250250       2.51409341       7.98502937      -0.01445137      -0.01216406      -0.01442164
O        6.46286943       2.84696495       9.30148778      -0.00351977      -0.00918648      -0.00025129
C        7.05614899       4.53993766       7.69875803      -0.00752065      -0.00647914       0.00066650
C        7.18812557       3.23845284       8.41896752      -0.00759614      -0.00903589      -0.00512034
H        7.90073724       5.18810910       7.93730942      -0.00479090      -0.00983274      -0.00011365
H        7.07957434       4.39006456       6.61940372      -0.01226540      -0.00231555       0.00007260
H        6.13186776       5.02892860       7.98757247      -0.00484824      -0.00509916       0.00644469
H        8.24693966       1.67250159       8.46967426      -0.01459710      -0.01398212      -0.01785266
O        4.02893390       5.57230180       9.33231149      -0.00338802      -0.00408417      -0.00036317
O        1.90945821       5.25876148       9.98536708      -0.00291723      -0.00392413      -0.00087914
C        3.28179707       3.34140093       9.48258120      -0.00255105      -0.00396508       0.00336532
C        2.96874279       4.78834624       9.63270965      -0.00370270      -0.00369081       0.00086793
H        3.80378922       3.14587085       8.54827423      -0.00856894      -0.00580811       0.00046216
H        3.95225266       3.05624872      10.29382854       0.00304896      -0.00118314      -0.00054604
H        2.36650207       2.75982221       9.53608542      -0.00166616      -0.00441711       0.01074161
H        3.79113729       6.48399259       9.56118106      -0.00406247      -0.00388813      -0.00210345
O        0.36636054       2.40093024       6.20600942       0.00571892      -0.00555545       0.00875126
O        2.59918359       2.59638205       6.35350837       0.00488120       0.00768930      -0.00038107
C        1.23078285       4.52006885       6.78062138      -0.00534207       0.00001651       0.00256261
C        1.51049445       3.10449094       6.41871416       0.00201672       0.00144157       0.00370416
H        0.58482992       4.99795704       6.04645145      -0.00477333      -0.00377873      -0.00024012
H        0.71926058       4.55595370       7.74396286      -0.00939180      -0.00179564       0.00028795
H        2.17037750       5.05563865       6.86394928      -0.00845556       0.00476942       0.00519249
H        0.64140805       1.49089629       6.02466601       0.01055306      -0.00419497       0.00943147
O       11.47833999      10.95247329      11.11928667      -0.00424254       0.00268018       0.00122768
O       10.61298016      12.88912628      10.38963690       0.00058980       0.00270498      -0.00216860
C       10.16508261      10.86178249       9.17188161      -0.00302619       0.00290430       0.00059426
C       10.75868449      11.68019734      10.26962727      -0.00210997       0.00389463       0.00005478
H       10.95538107      10.29801673       8.67443105      -0.00328384       0.00297184       0.00033899
H        9.47326920      10.14226505       9.61099852      -0.00283299       0.00322405       0.00109828
H        9.63695903      11.49609327       8.46614626      -0.00304888       0.00283603       0.00065637
H       11.82682041      11.56416292      11.81974403      -0.00269623       0.00367826       0.00020020
O        4.42623787       8.41216135       4.69193288      -0.00567961       0.01029491      -0.00487798
O        5.98986864       7.33359625       5.88892248      -0.01428458      -0.00070268      -0.00536042
C        6.61860689       9.26701627       4.57420007      -0.00047544      -0.00306094      -0.00022286
C        5.71210614       8.23547008       5.14454950      -0.00736588       0.00049728      -0.00275183
H        6.73459355       9.06855908       3.50554435      -0.00135987      -0.00010673      -0.00069058
H        6.17671692      10.25943372       4.67466003       0.00600946      -0.00065458       0.00309658
H        7.58474567       9.23604198       5.06290737      -0.00112233      -0.01071119       0.00022466
H        3.85119076       7.75339778       5.11210779      -0.01130825       0.01517481      -0.00486195
O        3.13702455       4.31882531       2.01762307       0.00369397       0.01530880       0.00370806
O        1.52669311       3.75075278       3.47769349       0.00003862       0.00547957      -0.00533071
C        3.26187932       5.28851174       4.14030841      -0.00019744      -0.00310513       0.01173168
C        2.53572623       4.36676480       3.21372587      -0.00002742       0.00527155       0.00254142
H        3.75886715       4.67048299       4.88942164      -0.01066397      -0.00911747       0.01331063
H        4.00762899       5.86888349       3.60307766       0.00757158      -0.00609419       0.01993757
H        2.54145742       5.93789013       4.63786960       0.00024347      -0.00040164       0.00864768
H        2.68610534       3.68010157       1.44782182       0.00344357       0.02246600      -0.00423071
O        3.75449561      10.97345710       5.39120083       0.00161082       0.00963682      -0.00222099
O        1.76110005      10.84359149       4.38711122       0.00125295      -0.00057292      -0.00238639
C        2.17069604      12.60362347       5.97605469      -0.00442795       0.00381792      -0.00408891
C        2.51001195      11.39691092       5.17682854       0.00146887       0.00523826      -0.00122297
H        2.63135288      12.54578861       6.96039475      -0.00713970       0.00484471      -0.00263959
H        2.55849091      13.50011327       5.48493250      -0.00409338       0.00434569      -0.00289867
H        1.08668619      12.64698896       6.06942221      -0.00475620       0.00120513      -0.00725164
H        3.89181760      10.14388662       4.89009734       0.00482082       0.00998175      -0.00156149
O       11.71253401       9.05647190       6.30222709       0.00346808      -0.00865012      -0.00225230
O        9.69371592       8.83253329       5.38366330      -0.00074002      -0.00554639       0.00771143
C       10.60619898      11.02637573       5.61061421       0.00453900      -0.00754511       0.00103758
C       10.62614502       9.54874792       5.75916456       0.00108212      -0.00759393       0.00248197
H       11.36082357      11.48947414       6.24184938       0.00363658      -0.00852740       0.00256321
H       10.84184246      11.23834683       4.56589526       0.00803733      -0.00833299       0.00170329
H        9.61355319      11.42158507       5.82613660       0.00464812      -0.00561794      -0.00178927
H       11.71375711       8.05892365       6.18816223       0.00003141      -0.00936428       0.00074465
O       11.79212645       6.06235914      12.53183773      -0.01209712       0.02240801       0.00770003
O       12.45265416       7.78396735      11.25490962       0.04811305       0.00882620      -0.00464447
C       11.45355305       5.88735430      10.18200101       0.00903469       0.00333771       0.00788540
C       11.94822761       6.69498309      11.33960972       0.00394377      -0.01974475       0.00170805
H       12.33300569       5.53669241       9.63683153       0.00452214      -0.01230422       0.01107554
H       10.85493185       5.03436793      10.49280636      -0.00349824       0.01114881       0.01197725
H       10.88010116       6.53712102       9.52159637       0.01636884       0.00296986       0.00122719
H       12.16319891       6.64041371      13.22410466      -0.01081285       0.01890838       0.00654283
O        7.27654518       0.39515727       4.89664460      -0.00200307      -0.01202008      -0.00744951
O        7.63913656      -0.71908701       6.79520107       0.00169277       0.00093114      -0.00057435
C        5.77275136       0.78838480       6.67702458      -0.00464702      -0.00799221      -0.01088983
C        6.98729184       0.09818269       6.11705746      -0.00156075      -0.00568289      -0.00611521
H        5.63853565       1.77245571       6.23262131      -0.00596584      -0.00939403      -0.01341869
H        4.89875544       0.19146328       6.41304203      -0.00201873      -0.01107553      -0.01229942
H        5.80104322       0.82823792       7.76163223      -0.00783256      -0.00569382      -0.01104648
H        8.45496100       0.08817335       4.15790172       0.00582300      -0.00220562      -0.00052752
O        1.51140152       8.41761850       5.73563071       0.00755960       0.00156611       0.00220901
O        1.35183042      10.03885230       7.28818425      -0.00093286       0.00116873      -0.00158820
C        1.21090403       7.74485993       7.97940846      -0.00326107       0.00456941       0.00198996
C        1.35288623       8.86769286       7.00586114       0.00115278       0.00612521       0.00184420
H        0.38230562       7.10275739       7.68273423      -0.00109571       0.00364846      -0.00131683
H        2.10676963       7.12357541       7.95591592      -0.00295924       0.00517207       0.00751165
H        1.05061748       8.12376100       8.98327314      -0.00861624       0.00570293       0.00065798
H        1.47666529       9.19968596       5.13881940       0.00770147       0.00085765       0.00142793
O        5.33604139       0.36725207       3.23171213      -0.00194085      -0.00298285      -0.00898536
O        4.45406235       2.31348152       3.91528123       0.00314283      -0.00230134      -0.00491387
C        3.24498742       0.95518137       2.34098363      -0.00033289       0.00539309      -0.00787771
C        4.39168361       1.30273476       3.25044817       0.00056046      -0.00005293      -0.00696337
H        3.56428745       1.06789236       1.30230327       0.00092582       0.00263707      -0.00766957
H        2.96160061      -0.08936934       2.46470882      -0.00628655       0.00720033      -0.00700686
H        2.40523038       1.61360635       2.54502963       0.00337002       0.01028499      -0.00922232
H        6.05833413       0.56346394       3.91429455      -0.00170401      -0.00709206      -0.00807813
O       12.54670472       7.46901069       1.99080874      -0.00274812      -0.00197157      -0.02056921
O       12.29186872       9.26900093       3.30254984       0.00062832      -0.00494179       0.02104616
C       12.57423629       9.59223144       0.92912873      -0.01249075       0.00643304      -0.00047749
C       12.45888122       8.82661615       2.19991878       0.00224158      -0.01176819      -0.04226613
H       13.27395333       9.12642643       0.23846578      -0.01145256       0.01637104      -0.01004541
H       11.60539559       9.59560989       0.42353505      -0.01375282       0.00606859       0.00016232
H       12.85464469      10.61861396       1.14594681      -0.01675529       0.00713360       0.00309135
H       12.46970564       7.05728792       2.86580883       0.00281868      -0.01177052      -0.02940273
O        3.98933998       7.13187631      -0.96077084      -0.00326252      -0.00239572      -0.01262708
O        3.99774345       4.90014184      -0.71192124      -0.00598252      -0.00081027       0.00217427
C        1.99987082       6.14288003      -0.19954380      -0.00371683       0.00486797      -0.00441834
C        3.41854924       5.95885142      -0.64088999      -0.00502574       0.00063610      -0.00444049
H        1.98644162       6.48446643       0.83584792      -0.00215154       0.00386588      -0.00415209
H        1.50680104       6.89290302      -0.81496204      -0.00190896       0.00671169      -0.00318812
H        1.47048692       5.19741802      -0.27119710      -0.00677374       0.00667416      -0.00464022
H        4.92095313       6.99339799      -1.23252440      -0.00313506      -0.00464162      -0.00984058
