198
Lattice="12.165573862484276 0.0 0.0 0.0 12.165573862484276 0.0 0.0 0.0 12.165573862484276" Properties=species:S:1:pos:R:3:forces:R:3 energy=-141746.171875 stress="0.0009961389005184174 0.0004618233651854098 -0.0011788089759647846 0.0004618233651854098 0.0011189968790858984 0.00030803393747191876 -0.0011788089759647846 0.00030803393747191876 0.002428811974823475" pbc="T T T"
N        7.26103356      10.16153008       1.59599973      -0.00036159      -0.01243442       0.00380543
N        8.84291902       9.64334476       2.97667198      -0.01569059      -0.00419265      -0.01098815
C        6.03257738      10.09234144       0.79550953      -0.00432774       0.00421017      -0.00475216
C        7.76287557       9.18291591       2.34683149       0.00478274       0.02417052      -0.00432613
C        8.04293495      11.27912666       1.74716130      -0.01971447       0.01838070      -0.02484158
C        9.03657882      10.95598433       2.61634314       0.02056056       0.00609571       0.00980883
C        4.85800590      10.69648895       1.54339265      -0.00424093       0.00072443      -0.00328159
C        9.74334629       8.84607454       3.79534729       0.00064710       0.00781646      -0.00287709
H        6.24551669      10.62302980      -0.13235315      -0.00580064      -0.00231069      -0.00411636
H        5.84633411       9.04568055       0.56627726      -0.00374664      -0.00152320      -0.00058192
H        7.39416113       8.17390261       2.40963306      -0.00645823      -0.00328035      -0.00008133
H        7.84518863      12.18849148       1.20869403      -0.00135394      -0.00558737      -0.00269131
H        9.85302279      11.54316265       2.99855035      -0.00990951       0.00071057      -0.01221462
H        4.61851826      10.10738267       2.42836556      -0.00141853       0.00351293      -0.00102933
H        3.98709139      10.70791220       0.88844700      -0.00457545      -0.00152363      -0.00165404
H        5.07375883      11.71745497       1.85895346      -0.00430597       0.00254926      -0.00670658
H        9.28387814       7.88161490       3.97562563      -0.00463529       0.00560674      -0.00068131
H       10.68666866       8.71031610       3.26541541      -0.00354820       0.00198147      -0.00456245
H        9.90494606       9.34533705       4.74810305      -0.00077595       0.00611390      -0.00590697
B       10.97354874      12.22091802      -0.23487121       0.00010277       0.00205611      -0.00180445
F       12.15401685      12.77749366      -0.77198730      -0.00020331       0.00118354      -0.00329739
F       11.33237918      10.99091426       0.39659600       0.00001286       0.00149864      -0.00206015
F       10.43264331      13.06819269       0.70847113       0.00157630       0.00223190      -0.00119758
F       10.06958271      11.93631595      -1.25617535      -0.00140542       0.00204274      -0.00061470
O        6.34414981       1.77990779       7.90925838       0.00847788      -0.00068475       0.00460703
H        6.57904214       0.83923737       7.85058169       0.01991984       0.00259297       0.00039337
H        5.90932144       2.00104932       7.05744848       0.00619557      -0.00214823       0.00516692
O        0.71396269       9.24787158       5.28644278      -0.00982243       0.01533391       0.00482009
H       -0.02578132       8.68836502       5.62528914      -0.00466259       0.00248618      -0.00505950
H        0.44502940       9.71150918       4.47568909      -0.00122114       0.00320659      -0.00475251
O        8.31918626       2.36044877      11.30908714      -0.00508324      -0.00525152       0.00061955
H        7.82125999       3.08165967      10.87021994      -0.00565959      -0.00479684       0.00157339
H        9.26440399       2.57652518      11.17456803      -0.00526436      -0.00399532       0.00027552
O       11.01838800       7.53771817       6.30312853      -0.00245956       0.00095408      -0.01026209
H       10.55027184       7.68576950       7.13971525      -0.00210423       0.00318412      -0.01046447
H       11.27781000       6.59831254       6.32500368      -0.00116197       0.00130870      -0.00763808
O        1.05470730       7.32317245       3.09064198       0.00399951      -0.00273438       0.00392279
H        1.82988682       6.73626557       3.01424711       0.00252309      -0.00490976       0.00322974
H        1.14077755       7.78858317       3.93499285       0.00577099      -0.00468012       0.00442995
O        3.12616880       5.47364882       2.81722247       0.00242504      -0.00291464       0.00234624
H        3.26589044       4.96462233       1.99176977       0.00131946      -0.00261711       0.00191085
H        2.83303178       4.86658134       3.52875442       0.00660675      -0.00421236       0.00302711
O       10.41845153      10.84008110       6.60635686      -0.00761223       0.00009510       0.01046736
H       10.58289354      10.55172028       7.53896880       0.00039838       0.00194744       0.00974897
H       11.30339815      10.90255134       6.23105450      -0.01338506      -0.03281998      -0.00670648
O        3.57922299      12.23491693       5.16157757      -0.00156984      -0.00143835      -0.00389354
H        3.04987379      11.75837492       5.84285695       0.00089188       0.00017258      -0.00082132
H        2.94994943      12.73275796       4.58948060      -0.00296713       0.00102479      -0.00045368
O        2.09824582       1.80665549       3.75124929      -0.00245252      -0.00053895       0.00102963
H        1.69978229       1.47275714       2.92161961      -0.00168033       0.00004308       0.00048699
H        1.38684885       2.09352039       4.35467491      -0.00324677      -0.00079675       0.00083993
O        9.05640046       2.77749101       7.77169598       0.00185677       0.01057377      -0.00122222
H        8.15778746       2.58428156       8.08432477       0.00316010       0.00709742       0.00085595
H        9.16322998       2.17650558       7.00120400       0.00297513       0.00973628      -0.00036213
O        7.37578009       7.19751643       5.34295836       0.00664449      -0.00292659       0.00392239
H        6.76015430       6.57850999       4.90077070       0.00896137      -0.00581077       0.00486484
H        8.10597158       6.63922359       5.63104979       0.00802801       0.00030142       0.00697983
O        1.97459183       0.64561195       8.76390464       0.00213826       0.00336438       0.00587867
H        1.19954336       0.57840134       9.33854308       0.00185835       0.00445576       0.00550305
H        1.88470588      -0.10359309       8.13668611       0.00249580       0.00245615       0.00654609
O        9.53813033      13.28683005       5.68356477       0.00646394       0.00653037       0.00176243
H        9.66593925      12.36176306       5.95766100       0.00817879       0.00911126       0.00951839
H        8.76033583      13.36955020       5.09422249       0.00342810      -0.00025279       0.00491021
O        2.20124094      10.79317401       6.96430074       0.00421466       0.00456828       0.00582511
H        1.63381230      10.16344043       6.46871299      -0.00065669       0.00781125       0.00800942
H        2.80011349      10.27727024       7.55700044       0.00438349       0.00204864       0.00349749
O        3.86689964       9.66182571       8.76138262       0.00777602      -0.00026708      -0.00087219
H        4.67318697       9.31586311       8.34959715       0.00853606       0.00558816      -0.00422037
H        4.13854225      10.36688702       9.37710962       0.00581574      -0.00148038       0.00152706
O       11.23181337       4.74213482       6.61814072       0.00136063       0.00619552      -0.00714456
H       11.74273293       4.01027649       6.22118957       0.00307082       0.00665651      -0.00586322
H       10.31909328       4.54959319       6.33857970       0.00239789       0.00601684      -0.01177365
O        1.74549992       0.66367776       1.35992332      -0.00099841       0.00332913      -0.00192302
H        1.09702782       0.70971953       0.63930842      -0.00038219       0.00213620      -0.00248071
H        2.59237912       0.96707338       0.95744789      -0.00067185       0.00360557      -0.00157711
O        6.49484736       5.77397948       0.50141977       0.00020738       0.00257963      -0.00084665
H        6.67871062       5.15899748      -0.24166172      -0.00226052      -0.00047920       0.00087887
H        7.21315310       5.65800158       1.15055503      -0.00071010       0.00066024      -0.00009572
O        3.85887655       7.73030401       0.66926580      -0.00259148      -0.00169982       0.00726587
H        3.03233997       8.26193009       0.69753241      -0.00305641      -0.00215352       0.00664444
H        3.81072734       7.12044652       1.41191044      -0.00281109      -0.00212169       0.00703992
O        7.30782978       1.78660039       4.26764408      -0.00269873      -0.01074718       0.00526802
H        7.45218697       2.03849596       3.33347071      -0.00541654      -0.01238742       0.00440714
H        6.87319662       0.90563350       4.26351737       0.00022291      -0.01279518       0.00841297
O        6.13826531      11.48397435       4.52519264       0.00018097      -0.00950304       0.01212099
H        5.19404677      11.67092933       4.70661788      -0.00010459      -0.00237372       0.00188982
H        6.40662842      10.86744919       5.21474047      -0.00471889       0.02393785       0.04245915
O        4.82397992       2.46444553       5.76389253       0.01160870      -0.00739877       0.00049764
H        4.35918653       1.60873710       5.63067031       0.00860136      -0.00563888      -0.00100706
H        5.48996268       2.47295940       5.05505699       0.01837603      -0.01282699       0.00643317
O        6.68297473       4.31625952      10.38693794      -0.00528061      -0.00331138       0.00384226
H        6.77549643       5.11031557       9.81971190      -0.00763398      -0.00315247       0.00347974
H        5.81510956       3.97096582      10.10196612      -0.00485288      -0.00500864       0.00453500
O        1.58798897       9.13008570       0.46190575      -0.00246140      -0.00197417       0.00068828
H        1.46984968       9.68929562      -0.34545307       0.00126341      -0.00181969       0.00013609
H        1.24832569       9.59511704       1.24314998      -0.00126916       0.00049794       0.00001189
O        7.76841688       7.82802764      10.85968372      -0.00454997      -0.00225242      -0.00393583
H        8.45242774       8.24046648      11.43576751      -0.00454066       0.00269280      -0.00711805
H        7.30115045       7.19650480      11.43135410      -0.00087673      -0.00179420      -0.00010470
O        1.32574114      10.05736437      10.14726125       0.00286193      -0.00120916       0.00005366
H        0.42962985       9.95879810       9.76891760       0.00151461      -0.00041034       0.00277368
H        1.88361274       9.43875331       9.65822878      -0.00049028      -0.00463387       0.00048759
O       12.14752562       2.22464355       5.62377965       0.00186887       0.00759983      -0.00582544
H       11.32784113       2.00107109       5.14454888      -0.00019589       0.00334619      -0.00081235
H       12.02322159       1.82650171       6.50098373       0.00847200       0.00655116      -0.00539872
O        9.02421406       4.33617447       4.80199254       0.00281361      -0.00101757       0.00183164
H        9.66018484       3.77035719       4.29899901      -0.00209518      -0.00362073      -0.00206179
H        8.29713479       3.73617018       5.01348123       0.00324997       0.00121264       0.00982668
O        5.66415915       5.21300765       4.22553156       0.00673962      -0.00464785       0.00420471
H        4.88817872       5.55485998       3.75000414       0.00819279      -0.00318757       0.00320420
H        5.37824000       5.14849692       5.16449197       0.00541870      -0.00393922       0.00390074
O        8.16713471       2.77484145       1.83409621      -0.00996253      -0.00717377       0.00166778
H        8.19084730       2.57449673       0.86808422      -0.00830082      -0.00628389       0.00144513
H        8.27233103       3.74201175       1.89842280      -0.00971243      -0.00724124       0.00242355
O       10.88412712      10.00038303       9.12191777       0.00042775      -0.00159198       0.00683120
H       10.45621056      10.58128286       9.77152321      -0.00074103      -0.00289793       0.00728267
H       10.48329498       9.09920293       9.20137647      -0.00126640      -0.00142343       0.00212301
O        0.14546711       3.50543711       1.30551849      -0.00529474      -0.00257963      -0.00392252
H       -0.10164669       4.44959966       1.49040207      -0.00071337      -0.00180133      -0.00269750
H        1.10297610       3.44635893       1.36664355      -0.00582452      -0.00871675      -0.00083620
O        1.89081331       3.22131166       7.96579545       0.00310851       0.00051898      -0.00231500
H        1.93629009       2.24380936       8.06996412       0.00200821       0.00060626       0.00047040
H        1.96072323       3.41480551       7.01556889       0.00809446      -0.00126015      -0.00254301
O        7.09524512      12.15555135      10.41317998       0.00302716      -0.00717752      -0.00847100
H        6.17014907      12.42654199      10.28505932       0.00173114      -0.01043046      -0.00833415
H        7.59969136      12.95666273      10.66442752      -0.00074865      -0.00601825      -0.00531533
O       11.34327687       5.93836884       1.74775683       0.00032770      -0.00011197      -0.00022437
H       11.91004604       6.45140249       2.37049357       0.00048308      -0.00117575       0.00028360
H       11.53571312       6.34593713       0.87632719      -0.00110980       0.00136399       0.00004240
O        4.07793758       1.66946541       0.34287406      -0.00130551       0.00322603      -0.00033069
H        3.95648417       2.59533476       0.05230084      -0.00143514       0.00302314      -0.00122536
H        4.49661502       1.82462685       1.21588870      -0.00250300       0.00424823       0.00034456
O        6.13089599       9.09794371       6.95762924       0.00665924       0.01352907      -0.01214558
H        6.67713471       8.42055691       6.50719436       0.00494977       0.00815490      -0.00619533
H        6.72216517       9.79476164       7.31398760       0.01126476       0.00523491      -0.00362332
O       11.48695231       5.38883303       9.28154414      -0.00404966       0.00163108      -0.00561401
H       11.29666895       4.66970697       9.92410564      -0.00599177       0.00203601      -0.00552169
H       11.35612645       5.01485700       8.38382133      -0.00362829       0.00207875      -0.00597619
O        3.96201598       4.45728297      12.52476771      -0.00214857       0.00124611      -0.00119804
H        3.77994214       5.00497165      11.72745236      -0.00410819       0.00248721       0.00004609
H        4.86063289       4.76194064      12.76287982      -0.00229564       0.00177522      -0.00160693
O        2.70847379       6.71162582       6.54024979       0.00195225      -0.00440651       0.00387050
H        2.25856903       6.90659712       7.39695709       0.00007513      -0.00346461       0.00274672
H        2.99089135       7.55169969       6.11807930       0.00338934      -0.00438339       0.00453201
O        4.27127809      12.11596871      10.23905403       0.00337745       0.00099071       0.00446816
H        3.49684961      12.43352691       9.73294820       0.00307016       0.00034115       0.00444058
H        4.19016816      12.55367107      11.10443466       0.00525054       0.00465346       0.00289531
O       -0.07492500       7.26445239      11.66407106      -0.00644419       0.00332455      -0.00113535
H        0.58440791       7.90007009      12.03762171      -0.00558204       0.00225844      -0.00035675
H        0.22918482       7.05559599      10.77054125      -0.00558353       0.00300884      -0.00078078
O        4.66674247       2.52612586       2.84481832      -0.00267297      -0.00157687      -0.00064561
H        5.08653093       3.35307982       3.12131307       0.00186621      -0.00662243       0.00719558
H        3.79002506       2.49982711       3.26815786      -0.00069246      -0.00358279       0.00362441
O        3.94944777       8.77407979       5.26862194      -0.00487004      -0.00329325      -0.00019350
H        3.50074742       9.59901690       5.05947221      -0.00952375      -0.00654902      -0.00248414
H        4.70707240       9.02707051       5.83079261      -0.00146094       0.00395159      -0.00843914
O        5.04005629       5.43336486       6.88550099       0.00396448      -0.00344071       0.00352792
H        4.87661943       4.68782181       7.50544473       0.00515167      -0.00317070       0.00419775
H        4.18720793       5.93288012       6.84812380       0.00359928      -0.00413265       0.00463992
O        7.47448518      11.26854540       7.96138176       0.02101234      -0.00014864      -0.00747972
H        8.37936022      11.42075746       7.66945184       0.02604988      -0.01673419       0.00047090
H        7.45071502      11.51221048       8.93094118       0.01513001      -0.00123078      -0.00722881
O        0.54376101      10.66035214       2.76093050       0.00113885       0.00001699      -0.00409953
H       -0.18816761      10.79687771       2.14163926       0.00097296       0.00163095      -0.00349019
H        1.14911709      11.38318851       2.51749398       0.00105887       0.00094996      -0.00215049
O        9.83812948       8.67915610       0.16536558      -0.00632201       0.00568260      -0.00817539
H       10.17623303       9.58380221       0.20285824      -0.00558079       0.00489089      -0.00570246
H       10.59213552       8.16082706      -0.18315052      -0.00544600       0.00459914      -0.00512465
O        9.82538049       7.53884653       9.00488962      -0.00309679       0.00072613      -0.00710053
H        9.03828975       7.48661976       9.58439453      -0.00263483      -0.00071247      -0.00666896
H       10.37783821       6.75709436       9.22929641      -0.00262116       0.00073781      -0.00781825
O        2.56406388       4.25664436       5.28403941       0.01227760      -0.00566048       0.00325550
H        3.41484682       3.82342830       5.48192596       0.01348531      -0.00396011       0.00200965
H        2.58887092       5.13707892       5.71485701       0.01063062      -0.00558666       0.00320514
O        1.62522056       6.93241386       9.02750130      -0.00534581       0.00418418       0.00074703
H        0.98421711       6.19895459       9.07524768      -0.00548987       0.00406028      -0.00055160
H        2.40142736       6.66955674       9.57534717      -0.00640446       0.00446855       0.00254249
O        6.15501621       6.57467213       9.02829935      -0.00602905       0.00022304       0.00697659
H        5.90702577       6.39056820       8.09682663       0.00244885       0.00393949       0.00437324
H        6.66335435       7.39093963       9.08759033       0.00196327      -0.00548293       0.01652434
O       11.53183186       2.01455311       8.55693780       0.00218640       0.00816017      -0.00281537
H       10.61622376       2.33604460       8.37854009       0.00282621       0.00959165      -0.00440443
H       12.13047497       2.75978271       8.39185432       0.00393204       0.00657201      -0.00341464
O        3.80075199       6.34113565      10.54902332      -0.00763831       0.00453375       0.00314625
H        3.87781516       6.95002776      11.32495265      -0.00588258       0.00197929       0.00484955
H        4.62538776       6.44881319      10.03507673      -0.00752894       0.00426314       0.00288317
O        8.61629601       5.57481360       2.32016965      -0.00173769      -0.00607937      -0.00056221
H        9.55457886       5.75266445       2.09982124      -0.00186046      -0.00600665      -0.00005290
H        8.62004206       5.29720774       3.25701361      -0.00254310      -0.00280628       0.00049713
O       10.55607682       2.64093808       3.28537761      -0.00726584      -0.00046915      -0.00441576
H        9.80951329       2.43474614       2.69048458      -0.00826441      -0.00210603      -0.00249411
H       11.27088615       2.88480091       2.66641712      -0.00845725      -0.00077733      -0.00626554
O        4.51538307       3.55864692       8.87745911      -0.00041860      -0.00558491       0.00273237
H        3.55821110       3.44388854       8.70617823      -0.00024378      -0.00414614       0.00001675
H        4.95710976       2.72296022       8.63112976      -0.00075226      -0.00612015       0.00459440
O       -1.19178164       3.26157850      -1.18515475      -0.00654238       0.00187550      -0.00396426
H       -0.83926506       2.56616399      -1.77158503      -0.00483101       0.00462034      -0.00654406
H       -0.69464365       3.19693069      -0.34680961      -0.00538152       0.00106177      -0.00470909
