200
Lattice="12.995183839336082 0.0 0.0 0.0 12.995183839336082 0.0 0.0 0.0 12.995183839336082" Properties=species:S:1:pos:R:3:forces:R:3 energy=-175361.1875 stress="-0.0006807750323787332 0.00030373870686162263 -0.00019897408492397517 0.00030373870686162263 -0.00041136713116429746 8.523234646418132e-05 -0.00019897408492397517 8.523234646418132e-05 0.0001942033995874226" pbc="T T T"
N        9.44433699       8.79622070       2.41595763      -0.01060703       0.01849350       0.00574800
N       10.65454281      10.10220267       3.64145305      -0.01989195       0.00166240      -0.00811690
C        8.31409900       8.22433351       1.68748491      -0.00537252       0.00477406      -0.00792360
C        9.41309921       9.84871916       3.22444681       0.00558043      -0.00289750      -0.00849298
C       10.74110723       8.36358684       2.29583221      -0.01338524      -0.03221801      -0.03451391
C       11.50076401       9.18176815       3.06592721       0.03489047       0.01535958       0.01173216
C        8.40752090       8.55878123       0.21185461      -0.00398193       0.00428335      -0.00667471
C       11.04754309      11.20488609       4.50264988       0.00199416       0.00090390      -0.00510630
H        8.33875725       7.14792514       1.86351315      -0.01380580       0.00867388      -0.00461607
H        7.39633697       8.61295934       2.12612798      -0.00746667       0.01383838      -0.00796095
H        8.53986278      10.42105659       3.47941388      -0.00703669       0.00865231      -0.00371329
H       10.99866630       7.53479318       1.65471809      -0.01183022       0.01702525       0.00567466
H       12.55985692       9.19458118       3.23487315      -0.02580400      -0.00264685      -0.01035590
H        8.20843293       9.61646478       0.04974445       0.00348609       0.00513285      -0.00894712
H        7.66429735       7.97023345      -0.31684090      -0.00557242       0.00801085      -0.00675091
H        9.39428211       8.30825504      -0.17656369      -0.00423253      -0.00195485      -0.00434585
H       10.17828921      11.82513308       4.70795981      -0.00107446       0.00606592      -0.00924427
H       11.44800452      10.82340826       5.44191100      -0.00694122       0.00187795      -0.00397661
H       11.80232138      11.80421761       3.99494060       0.00124311      -0.00220509      -0.00281821
Br      12.59760318      13.27647893      -0.27991350       0.00979186      -0.00933885      -0.01311976
O        4.42065172       4.34635329       5.55730750      -0.01167189      -0.00370711       0.00541249
C        4.60484991       3.71367368       4.28491741       0.00167124       0.00527278       0.00280981
H        5.64109588       3.77143203       3.95079430       0.00391993       0.01310864       0.01156238
H        3.94903619       4.15046387       3.52650991       0.00475627       0.00606664       0.00083581
H        4.33932747       2.66768880       4.41701268       0.00715258       0.00297847      -0.00502668
H        4.73341345       5.25133362       5.48631163      -0.02657888       0.00188868       0.01080793
O        1.16806609      11.62251210       8.24835526      -0.01136443       0.01322963       0.01451904
C        1.68832686      12.56579515       7.31384041      -0.00295058      -0.00434885       0.00233972
H        2.27190620      12.00124854       6.59078882      -0.00956212      -0.01963401       0.00923118
H        2.34071254      13.30161866       7.78844792       0.00538972      -0.00543442      -0.00768885
H        0.88781869      13.09886927       6.79227994       0.00249907      -0.00247294      -0.00368579
H        0.74858393      12.11726662       8.95824373      -0.00718272       0.02650920       0.00760998
O        8.78293767       9.16108524       7.38424634       0.00525791      -0.00755215       0.00863653
C        7.72352807       9.15137751       6.43474359       0.00578332       0.00697986       0.00842059
H        7.55864576      10.14785570       6.01257030       0.01412879       0.01098892       0.01492829
H        6.78461744       8.79489134       6.87637232       0.00284296       0.01186824       0.00605881
H        8.01184562       8.46125620       5.64162018       0.00037803       0.01006092       0.00396360
H        8.57062839       9.80993552       8.08100801       0.01281582      -0.00473449       0.00849852
O       12.08693960       6.80876473      10.01419385       0.00466907       0.00102068       0.00623456
C       11.51250626       8.03649474       9.56461389       0.00639550       0.00049836       0.00231060
H       11.44783009       8.08040809       8.47507215       0.00481036      -0.00352724       0.00233409
H       12.07181545       8.90078186       9.93424497       0.00865345       0.00086668      -0.00199842
H       10.50127428       8.06755912       9.96516577       0.00710005       0.00406340       0.00375555
H       12.97158136       6.72925912       9.64740440       0.00479847      -0.00105305       0.00692335
O        7.73421669       3.16090509       5.06248997       0.00264364      -0.00634702      -0.00153553
C        7.61755873       3.22336863       6.48671690       0.00427030      -0.00652762      -0.00147465
H        8.08555741       4.12645803       6.88787770       0.00690000      -0.00773782      -0.00172849
H        8.06968695       2.34875148       6.96271735       0.00313549      -0.00746849      -0.00224476
H        6.55554282       3.25278021       6.72376116       0.00476399      -0.00486875       0.00058472
H        8.63206639       2.86855190       4.80427489       0.00113347      -0.01232471      -0.00075831
O        2.71761952       7.86081069       6.90374583       0.00299835      -0.00002220      -0.00518158
C        1.62959061       8.18165389       7.76784912       0.00873905       0.00657065      -0.00055339
H        1.11311387       9.09313262       7.46023264       0.01408820       0.01051939       0.00234771
H        1.96648299       8.30989249       8.80170007       0.01370922       0.00264546      -0.00177899
H        0.93278568       7.34308235       7.71055489       0.00234877       0.01188244       0.00138545
H        3.22887371       8.66704384       6.73271960       0.00615366      -0.00250864      -0.00793925
O        6.55295765       0.71942571       4.58058718      -0.00752473      -0.00243063      -0.00492883
C        6.83106135       0.50934945       3.21615586       0.00477761      -0.00858012      -0.00139904
H        7.89700403       0.62767153       2.99029458       0.00683546      -0.00998115       0.00783997
H        6.26091259       1.18936516       2.56942867       0.01101339      -0.01108134      -0.00948367
H        6.54928101      -0.51960680       2.97260621       0.00634259      -0.00936222       0.00039479
H        6.89897515       1.61149644       4.78977056      -0.00508860      -0.00358908      -0.00418954
O        8.49331674      11.09352659       9.36623824       0.01404530      -0.00113833      -0.00233352
C        9.74070129      11.13133499      10.07454735       0.01449757       0.00746188      -0.00382113
H       10.49459861      10.75722945       9.38577689       0.01789331       0.02023240      -0.00670840
H        9.71793509      10.49468637      10.96237388       0.02234944       0.00225285      -0.00751054
H       10.00443021      12.14940107      10.36587048       0.00382711       0.00816217       0.00248811
H        7.78183862      11.25575833       9.99180750       0.01380298      -0.00851339      -0.00078768
O        9.59340300       6.76742792       4.81272507      -0.00900209       0.00667048       0.00654029
C       10.77832772       7.01333991       5.57012117      -0.00611281       0.00497277       0.00225198
H       10.70741369       6.58522776       6.57056024      -0.00543509       0.00962587       0.00432199
H       10.88423756       8.09381938       5.67033633      -0.00069340       0.00485218      -0.00257385
H       11.66629668       6.61384881       5.07025939      -0.00945416      -0.00152896       0.00172865
H        9.24086742       5.91411799       5.08190492      -0.01615673       0.01314831       0.01790945
O        4.47823786       2.63046917       1.26346202       0.00422302       0.00230366      -0.00090197
C        3.22731879       3.16780278       0.84100918       0.00417227       0.00157562      -0.00159905
H        2.39312624       2.49392100       1.05781516       0.00510266      -0.00155488      -0.00788322
H        3.23844952       3.41613308      -0.22221869       0.00662223       0.00723136      -0.00025851
H        3.07505911       4.08973937       1.39991922       0.00042785      -0.00173971       0.00284359
H        4.65252974       1.85763529       0.72067075       0.00875758       0.00718459      -0.00634882
O       10.11720848       2.11936225       4.20261099      -0.00629664      -0.03466797       0.01270944
C       10.79633811       1.99293246       2.96000372      -0.00000040      -0.00407140       0.01332396
H       10.11453888       2.30785591       2.17085667      -0.00065070       0.00117087       0.01612768
H       11.08896375       0.95761261       2.76115753       0.01355956       0.00329012      -0.00275437
H       11.68851530       2.62314928       2.90786725      -0.00745136       0.00680208       0.02864441
H       10.73480213       2.08278293       4.96171238      -0.00544545      -0.01488029       0.01305862
O       10.93822701       6.53548463      12.55597655      -0.00490582      -0.00355801       0.00176496
C        9.87631310       5.64689137      12.21918779      -0.00548261      -0.00297758       0.00121070
H        9.25963670       6.04843570      11.40556453      -0.00282066      -0.00381020      -0.00109112
H        9.24865058       5.53927449      13.10420289      -0.00745592       0.00010206       0.00007504
H       10.26117689       4.66623853      11.93555485      -0.00627753      -0.00405037       0.00421114
H       11.51314638       6.58085585      11.77580541      -0.00392234      -0.00380775       0.00220564
O        3.99254133       7.75266949       2.70438576       0.00033951      -0.00534269      -0.00177440
C        4.66323430       7.64499924       3.94830147       0.00488482      -0.00057708      -0.00396070
H        4.03435034       7.15147315       4.69884764       0.00457951       0.00945464       0.00222439
H        4.95513833       8.62267775       4.34334488       0.01318514       0.00032911      -0.01242033
H        5.56480609       7.05069686       3.79107525       0.00011888      -0.00784053      -0.00282411
H        3.24710911       8.37784408       2.81337899      -0.00086090      -0.00693277      -0.00105861
O        6.29069913       3.08981363       9.70001906      -0.01100028      -0.02285203      -0.00459722
C        7.60492216       2.81892498      10.18269848      -0.01431048      -0.01456419       0.00319348
H        8.33005021       3.24476127       9.48843927      -0.01653826       0.00141664       0.01137790
H        7.79035846       1.74588590      10.25253399       0.00030169      -0.01280528      -0.00730518
H        7.76388904       3.26838802      11.16713994      -0.02557053      -0.02288128       0.00868142
H        5.72186883       2.31333355       9.80619474      -0.02049897      -0.01234040       0.02489210
O        5.54068572      10.63193070       0.93153573      -0.01455870       0.00795794       0.00458837
C        4.29643678      10.22005754       0.36028314      -0.01009898       0.00461048      -0.00266443
H        3.89665315      10.97815798      -0.32068549      -0.01226497       0.00664538       0.00110090
H        3.55563720      10.00441194       1.13111274      -0.01178192      -0.00448922      -0.00695288
H        4.48318154       9.31062027      -0.20253740      -0.00269815       0.00950286      -0.00784847
H        5.36889970      11.41717341       1.45885765      -0.02132159       0.00319627       0.00940095
O       -0.66152645       3.54591090      11.89878902      -0.00705779      -0.00767463       0.00239297
C        0.51441001       4.27576591      12.17679115      -0.00668722      -0.00996369       0.00648981
H        1.39591495       3.84452393      11.69164064      -0.00632867      -0.01102208       0.00806844
H        0.70873039       4.35821719      13.25236219      -0.00900622      -0.01197607       0.00704640
H        0.37433313       5.28386398      11.78683052      -0.00405978      -0.00916398       0.00765522
H       -0.53616139       2.62677716      12.18337394      -0.00713982      -0.00913198      -0.00220114
O        8.79278871       6.42562486       8.01241804      -0.00709468      -0.00445858       0.00889176
C        7.49130050       6.29607243       8.55921884      -0.01126760      -0.01022714      -0.00281462
H        6.71485272       6.31827064       7.78332619      -0.00523698      -0.00214906      -0.00841290
H        7.27192586       7.07847039       9.28848141      -0.01789650      -0.01839003       0.00385883
H        7.42399358       5.33443571       9.06409732      -0.01458877      -0.01564690      -0.01378886
H        8.91228743       7.36644606       7.79447231      -0.00756301      -0.00339299       0.01256584
O        3.76320787       1.78771838       9.98786240       0.01037088       0.00872436       0.01213782
C        2.64638460       1.08562032      10.52126082       0.01237816       0.00026000       0.00418386
H        1.72230688       1.33878991       9.99188384       0.01314813      -0.00081792       0.00270906
H        2.49516066       1.29339288      11.58510046       0.00827218      -0.00680710       0.00482729
H        2.83328116       0.01844285      10.40201194       0.01832043       0.00221178      -0.00237327
H        3.59731104       2.74508621      10.07723481       0.00455557       0.00805169       0.00865126
O        1.95607714       9.52603805       3.15271464      -0.00854707      -0.01355740      -0.00505304
C        1.62919292      10.03570021       4.43981979       0.00113212       0.00550075      -0.01056832
H        1.33556845      11.08737136       4.38754726       0.01629587       0.00864741      -0.02204226
H        2.49978847       9.94434680       5.08323289       0.00017354      -0.00094046      -0.01027334
H        0.82237483       9.45857505       4.90749993      -0.00713652       0.02284135      -0.00383809
H        1.44161788      10.00101579       2.45926728      -0.00132492      -0.01184237      -0.00941255
O        5.46820411       7.95610470      10.99869679      -0.00861606       0.00868911      -0.00724366
C        6.23531371       9.08145285      10.64210365      -0.00456005       0.00570330      -0.00731656
H        7.30557132       8.85407734      10.55737482      -0.00552362       0.00155972      -0.00807104
H        6.12302187       9.91178319      11.35101860      -0.00154059       0.00616691      -0.00734898
H        5.88961530       9.41590721       9.66002144      -0.00378199       0.00730536      -0.00714681
H        5.59577210       7.74218256      11.94565513      -0.00803849       0.00634840      -0.00776736
O        5.61395970       7.10753388       0.62690116      -0.00440939       0.00559431      -0.00922281
C        5.37875708       5.70815119       0.48533109       0.00620294       0.00340554      -0.00521570
H        4.47030438       5.51159836      -0.08798121       0.00872982      -0.00489486      -0.00608644
H        5.30975928       5.21313176       1.45620968       0.00803200       0.00612108      -0.00375327
H        6.22075799       5.28138534      -0.06003831       0.01016545       0.00794463      -0.00251378
H        4.98052922       7.44876022       1.29149429      -0.00369389       0.00188221      -0.00679056
O        0.48950033       2.51484869       8.01508922       0.00542322      -0.00364387       0.00161713
C        0.54591073       3.72515760       8.76431027       0.00879086      -0.00491714       0.00332774
H       -0.27076107       3.72257132       9.48387787       0.00934556      -0.00439994       0.00401729
H        0.45571535       4.59984210       8.11051264       0.01026599      -0.00374717       0.00470760
H        1.48935530       3.79847946       9.31398591       0.00953984      -0.00766895       0.00242800
H        1.14664280       2.59730380       7.28142422       0.00553636      -0.00490613       0.00137442
O       10.00058042      11.60851900       0.85202853      -0.00308490       0.00698081       0.00449599
C        8.86132887      12.35577515       0.47611163      -0.00024238       0.00618282      -0.00607432
H        7.99586793      11.91897875       0.97498628      -0.00445525       0.00576212      -0.01374637
H        8.67709267      12.31673475      -0.60534791       0.01004305       0.00529739      -0.00756240
H        8.94413357      13.40792056       0.76691906      -0.00381966       0.00637314      -0.00590391
H       10.78514400      12.07982827       0.51175506      -0.00098447       0.00050806       0.00099406
O        1.51010194      13.45580472       2.41336418      -0.01318997      -0.00120831      -0.00398532
C        2.68994883      12.89331230       1.87157975      -0.00144553       0.00475250       0.01720327
H        2.62544484      11.80579950       1.80179733       0.01476877       0.00244665       0.04195250
H        3.52246051      13.16489429       2.52420108      -0.00961100       0.03186253       0.01528597
H        2.89611919      13.27729681       0.86483363       0.00068418      -0.01583673       0.01035833
H        0.84769217      13.48137721       1.69856022      -0.00332601      -0.00912984      -0.01339028
O       11.18125490       2.47039077       6.62561188       0.00629933       0.00612134       0.00030261
C       10.97955672       3.87654548       6.68909895       0.00702278       0.00634766      -0.00463291
H       11.87576345       4.42522650       6.38473299       0.00956684       0.00520173       0.00113858
H       10.68559056       4.20356977       7.69043787      -0.00069954       0.00885780      -0.00771117
H       10.17498270       4.12704638       6.00001155       0.01241279       0.00509061      -0.01166242
H       11.99874295       2.30268806       7.14781684       0.00556759       0.00575886       0.00158552
O        1.46508503       5.78965483       5.47040607      -0.00741342       0.00139016       0.00354958
C        1.36323168       6.05176340       4.07802697      -0.00468635       0.00206807       0.00362021
H        2.28319195       5.79750622       3.54013679      -0.00344837       0.00272761       0.00526379
H        1.13594600       7.10241112       3.87350396      -0.00462049       0.00199282       0.00358869
H        0.55407218       5.43782101       3.68277875      -0.00343105       0.00181125       0.00144863
H        2.03569398       6.47238838       5.86102838      -0.00605772       0.00004822       0.00359957
O        2.04495877       2.82057121       5.88802508       0.00576907      -0.01229382       0.00156711
C        1.17074250       2.67700967       4.77112775       0.00389118       0.00207673       0.00143617
H        1.69425429       2.85388708       3.82940777       0.00427216       0.00485495       0.00221360
H        0.31077255       3.34780401       4.84718158       0.00925988       0.00805417       0.00674623
H        0.82303528       1.64630413       4.75849540      -0.00396795       0.00496012      -0.00530968
H        2.46675339       3.69427520       5.84336073       0.02202189      -0.02001756       0.00204090
O       13.50015014      10.56191894       1.18763650       0.01154530      -0.00701565      -0.01384175
C       13.24309430       9.66299960       0.11411878       0.00001780      -0.00802910      -0.01001577
H       12.17711344       9.63400970      -0.12632711      -0.00118765      -0.00033424      -0.00542434
H       13.55810528       8.66990572       0.43422065      -0.00646278      -0.00938392      -0.00838375
H       13.80930339       9.94946879      -0.77628677      -0.00193740      -0.01488791      -0.01342934
H       13.27343060      11.46306426       0.87454086       0.01088440      -0.00706831      -0.01333901
O        4.02178035       4.50598383      10.37004617       0.01017606       0.00860071      -0.00546181
C        3.74680494       5.51009683       9.39334714       0.00057611       0.00520426      -0.00513855
H        4.56171414       6.23197863       9.33826304      -0.01547024       0.02351293       0.00639831
H        2.85268304       6.04353085       9.71603339      -0.01452529      -0.01652783      -0.01352495
H        3.56476152       5.07394890       8.40585206       0.02040413       0.00547740      -0.00828710
H        4.94662832       4.22357606      10.24782923       0.00687562       0.00220687      -0.01744546
O        4.34112286      10.27437315       6.49425386      -0.00205770      -0.00510299       0.00393277
C        4.81250437      11.26868825       5.57014073       0.00158595      -0.00122041       0.01011273
H        5.62371251      10.88067482       4.94788216       0.00838274       0.00361697       0.01639915
H        5.15904528      12.16708486       6.07714066      -0.00666432      -0.00103575       0.01534598
H        3.97946113      11.53536094       4.92320428       0.00584385      -0.00307621       0.00404917
H        4.95652645      10.24527383       7.23057924      -0.00522017      -0.00804301       0.00642121
