198
Lattice="12.210719673553589 0.0 0.0 0.0 12.210719673553589 0.0 0.0 0.0 12.210719673553589" Properties=species:S:1:pos:R:3:forces:R:3 energy=-209779.875 stress="-0.00015031365910544991 0.0006399060075636953 0.00048613364924676716 0.0006399060075636953 0.0002139279677066952 0.0002297450409969315 0.00048613364924676716 0.0002297450409969315 0.0007359650335274637" pbc="T T T"
N        7.00632668       9.81901879       1.97492175      -0.01871654      -0.00350729      -0.02319372
N        8.59993148       8.45724478       2.49789350       0.00141132      -0.01410943      -0.01808745
C        6.06079886      10.93426475       2.06298724      -0.00420544      -0.00074083      -0.00239000
C        7.97061783       9.57082573       2.85739005       0.00021684       0.01632261       0.01218206
C        7.02218330       8.83068284       1.01885090       0.02969384      -0.02174520       0.01530004
C        8.02427845       7.97424377       1.34362339      -0.03467350       0.03443703      -0.00937414
C        5.95289158      11.70799543       0.76483585      -0.00519963      -0.00009122      -0.00636244
C        9.76472791       7.89390568       3.15057758      -0.00508919       0.00985804      -0.00609094
H        5.09968314      10.50278800       2.33507612      -0.00870842      -0.00338170      -0.00881515
H        6.41464018      11.57447558       2.87031153      -0.01129664      -0.00227496      -0.00559658
H        8.22899846      10.18614887       3.70079242      -0.00791967      -0.00358179      -0.01720591
H        6.31994479       8.81163072       0.21033968      -0.01284110      -0.00060928      -0.01073952
H        8.36458568       7.05266725       0.90071042       0.00027976      -0.00354463      -0.00800885
H        6.92590287      12.03082490       0.40201177      -0.00546503       0.00276981      -0.00229456
H        5.33119540      12.58630170       0.94312107      -0.00747130       0.00036147      -0.00596099
H        5.47390999      11.11314049      -0.01286742      -0.00277738       0.00184564      -0.00780615
H       10.00305920       8.49474780       4.02171499      -0.00069716       0.00575660      -0.01088297
H        9.54662848       6.87695836       3.46842889      -0.00217916       0.00442126      -0.00560920
H       10.59783403       7.89026112       2.45333551      -0.00331625       0.00355586      -0.01078638
Br      11.28404430      10.68233521       0.97554680      -0.00048536       0.00116861       0.00147682
O       11.72701444      11.82146472      -0.09697239      -0.00082205       0.00217098       0.00269943
O       12.53759523      10.34078373       1.96553491      -0.00100890       0.00264755       0.00308388
O       10.06039643      11.23304604       1.88049710      -0.00158885      -0.00029808       0.00173751
O       10.85998497       9.32875605       0.19357332       0.00199941       0.00133818       0.00085407
O        6.30967059       0.31992696       7.81648964       0.00181414      -0.00471059      -0.00227814
H        6.34073908      -0.39570184       7.15645684       0.00237246      -0.00211310      -0.00515937
H        5.94093759       1.07596010       7.31821236       0.00106764      -0.00326970       0.00020557
O        0.18834846       9.84923010       4.94107500      -0.01598814       0.00971079      -0.00251305
H       -0.43831190       9.34260890       5.50955094      -0.01648518       0.00698125      -0.00510568
H       -0.01997337       9.59671997       4.03065486      -0.01233304       0.01277421      -0.00421421
O        7.69700950       2.29304440      11.49416794       0.00040375       0.00867818       0.01341708
H        6.81765252       2.63581025      11.69944120       0.00856851       0.02775827       0.01778221
H        8.10813414       3.04621385      11.04270987       0.01162758       0.00027851       0.00992022
O       10.62082566       8.25064512       6.37667598      -0.00201388       0.00353479      -0.00049947
H       10.55723244       8.34181843       7.35444363       0.00145986       0.00062256      -0.00019777
H       10.90330925       7.32578139       6.23352511      -0.00647991       0.00267389      -0.00504459
O        0.45723045       7.02833475       3.63386855      -0.00510544       0.00090445      -0.00923574
H        1.36606100       7.28618121       3.84712908      -0.00804987       0.00163462       0.00270268
H        0.09661454       6.52016549       4.38484413      -0.01333438      -0.00016218      -0.01346096
O        3.44158485       6.16630493       2.41371813      -0.00040026      -0.00395417       0.01024200
H        2.97641052       5.76440705       1.63500651      -0.00359841      -0.00051326       0.01079067
H        3.06086606       5.82487656       3.25302285       0.00339661      -0.00501881       0.01194397
O       11.87968847      11.73987151       7.25376117      -0.00067148       0.00230898       0.00163388
H       11.27104413      11.61888238       8.00899164      -0.00007043       0.00506270       0.00266846
H       11.31413158      11.72818367       6.47228067      -0.00128925      -0.00069410       0.00205747
O        3.89604205      11.02017662       4.49061490      -0.00964193      -0.01605266       0.00071994
H        3.40628259      11.34384283       5.27475754      -0.00721845      -0.01127532       0.00036861
H        3.56239477      11.51846625       3.72126348      -0.00949888      -0.01823598      -0.00065088
O        3.09251564       2.08367577       4.98725519       0.00252256      -0.00063843       0.00537883
H        2.44189122       1.35829877       5.02720373       0.00269978      -0.00084481       0.00420838
H        2.83786594       2.72729350       5.68347905       0.00075909      -0.00080382       0.00499815
O        9.05525218       1.25903029       8.14508684      -0.00256851      -0.00555972      -0.01131055
H        8.12972421       1.07535791       8.36692340      -0.00337163      -0.00745037      -0.01519619
H        9.11971224       0.96295928       7.22010654       0.00159190      -0.00492594      -0.01115432
O        7.85508019       8.25475958       5.65653234       0.00063645       0.00503749      -0.00785285
H        8.75627127       8.29912970       6.03535994      -0.00036052       0.00869604      -0.00512999
H        7.51089565       7.38874128       5.89218510      -0.00711210       0.01503215       0.01747142
O        1.66054806       1.70532685       8.79408267      -0.00675318      -0.00930366       0.00569029
H        0.69510927       1.87354542       8.80316455      -0.00678285      -0.00788219       0.00210825
H        1.79845300       0.89830572       8.27873363      -0.00672856      -0.00815280       0.00409667
O        8.96610382      12.08051445       5.63552765       0.00489111      -0.00935836      -0.00795010
H        8.56991890      11.42182386       6.24372824       0.00552206      -0.00812804      -0.00631960
H        8.24169708      12.47609171       5.13525983       0.00384052      -0.00907318      -0.00663611
O        2.60050663      11.62302020       6.94081533      -0.00348884      -0.00705938       0.00054154
H        1.64738395      11.44588291       6.89793366      -0.00425503      -0.00408313       0.00248493
H        2.96056406      11.01087311       7.60915414      -0.00428909      -0.00569787       0.00179796
O        3.54984369       9.61334644       8.87670534       0.00259411      -0.00404087       0.01148325
H        3.81431483       9.01752058       8.14135039       0.00827983      -0.00161291       0.01117150
H        4.40248495       9.87060703       9.28683281       0.00102395       0.00105839       0.01121780
O       11.14284996       5.63319452       5.52193158      -0.00078550       0.00876692      -0.00968429
H       11.57301356       4.84396130       5.87531158       0.00040386       0.01113261      -0.00568119
H       10.26278439       5.33531084       5.20700223      -0.00012331       0.00661762      -0.01069244
O        2.76222261       0.24478039       2.26366826      -0.00078652      -0.00449778       0.00091690
H        2.59312201      -0.06917335       1.35756301      -0.00210176      -0.00121871       0.00011136
H        3.27554192       1.05962422       2.14988054       0.00445345      -0.00722545       0.00370008
O        6.15270402       4.84554086      -0.08882150       0.00458762      -0.00315443       0.00190256
H        7.02276157       4.91773036      -0.50968447       0.00478166       0.00386478       0.00314197
H        6.31431926       4.90899639       0.86803319       0.00187524      -0.00231559       0.00263957
O        4.18530755       8.55791842       1.41947727      -0.00584128      -0.00460973       0.00921050
H        3.35815837       8.81853012       0.95797732      -0.00508876      -0.00503515       0.00796877
H        3.92200377       7.77977923       1.94877532      -0.00558664      -0.00394502       0.01035315
O        6.97933188       1.49882433       3.68809698      -0.00250058      -0.01454367       0.00242227
H        7.65989844       1.53841054       2.98109153      -0.00235981      -0.00937226       0.00259536
H        6.14347119       1.73391462       3.23787091      -0.00253103      -0.01218918       0.00367903
O        6.10447484      10.31981580       5.99857085      -0.00041758       0.00232585      -0.00823987
H        5.57152128      10.55940831       5.21882829      -0.00409637      -0.00036869      -0.00660083
H        6.79412934       9.66269855       5.75658758       0.00071266       0.00404644      -0.00999131
O        5.61738898       2.18093637       5.95867072       0.00353359      -0.00185519       0.00161591
H        4.71873674       1.96077259       5.62512569       0.00251789       0.00058737       0.00267708
H        6.23449924       1.90397889       5.25383422       0.00222789      -0.00532516       0.00153273
O        8.10979038       4.91038130      10.09025615       0.00283322       0.00400710       0.00227696
H        9.08575306       4.97769088       9.87176551       0.00309213      -0.00105123       0.00046379
H        7.65455808       4.77445620       9.25214913       0.00138033       0.00037751       0.00361964
O        2.01372687       9.16547628      -0.00542452      -0.00438812      -0.00174034       0.00629841
H        2.32302635       9.98725710      -0.41525767      -0.00322138      -0.00451271       0.00183291
H        1.44511264       9.47606191       0.71710003      -0.00140398       0.00303139       0.00674004
O        7.87341628       7.71233625      10.04033725       0.01011705      -0.00047328       0.00596692
H        7.86774102       6.73732010      10.12740227       0.00654905      -0.00129136       0.00050279
H        7.08133911       7.90805748       9.52579512       0.00802708       0.00699225       0.01227015
O        1.21653217      10.69641727       9.67006036      -0.00281197      -0.00796862       0.00092606
H        0.74139330      10.88799899       8.85542665      -0.00457117      -0.01090752       0.00115955
H        2.01072147      10.19370752       9.39658110      -0.00155737      -0.00632324       0.00164984
O       11.78198475       2.60150780       5.76413903       0.00425050       0.00937171      -0.00058354
H       11.06468000       2.54274414       5.10458449       0.00195580       0.00680986       0.00190354
H       12.35009873       1.85663682       5.50742213       0.00463215       0.01009734      -0.00179716
O        8.75625526       4.79616235       4.39432563       0.00313529       0.00882508      -0.00741577
H        9.21446901       3.97986401       4.07436963      -0.00314852       0.00291608      -0.00078819
H        7.94294899       4.53121708       4.84340606       0.00141639       0.02017097      -0.00314434
O        5.74294659       4.89194843       2.65958635       0.00002310      -0.00633712      -0.00269052
H        4.93184935       5.45693030       2.53721129      -0.00030289      -0.00598251       0.00193692
H        5.99352422       5.01943351       3.58890192       0.00641963      -0.00562928      -0.00449858
O        8.80278582       1.52676123       1.64691500      -0.00219806      -0.00227588       0.00601467
H        9.19646658       0.65548458       1.48690646      -0.00144290      -0.00136165       0.00372638
H        8.47627686       1.86934536       0.77946427      -0.00211670       0.00060984       0.00664774
O       10.58265367      10.92917637       9.58228657      -0.00117064       0.00426073       0.00126120
H       11.14647972      11.23689407      10.30990047      -0.00105220       0.00214674       0.00208566
H       10.72070921       9.95643361       9.52589421      -0.00280742       0.00364489      -0.00074592
O        0.64815755       3.42119040       2.60490162      -0.00651449       0.00365968       0.00151676
H        0.39277309       4.27588033       2.16423948      -0.00152867       0.00317347      -0.00191545
H        1.29805355       3.62827239       3.28732123      -0.00809455       0.00278557       0.00315555
O        2.71656436       3.56139494       7.30180543      -0.01308957      -0.00407991       0.00696901
H        2.23653460       2.87953335       7.85904190      -0.00734138      -0.00798288       0.00702425
H        2.12157504       4.31237595       7.19402517      -0.02342909      -0.01330936       0.00005219
O        6.11009954      10.39872944       9.44290010       0.00621634      -0.00668438      -0.00215776
H        6.01985541      11.30106531       9.07746208       0.00452727      -0.00793002      -0.00472060
H        6.80549750      10.47556474      10.13760450       0.00561979      -0.00256337      -0.00165927
O       11.81035531       5.58720808       1.52735701       0.00724204       0.00522129      -0.01421075
H       12.15561496       6.21846808       2.19738234       0.00644891       0.00624656      -0.01473175
H       12.10665260       5.91751532       0.65617100       0.01536827      -0.00174524      -0.01341901
O        3.64825947       2.65954336      -0.44083452      -0.00777413       0.00826576      -0.00427972
H        2.69830999       2.42626981      -0.24329568      -0.00617964       0.00562778      -0.00080954
H        4.07822052       2.69333682       0.42397467      -0.00270019       0.00480056      -0.00685113
O        4.50247233       8.24362484       6.76962539       0.00990445      -0.00031496       0.01331502
H        3.83408050       8.23920872       6.05481691      -0.00344547      -0.00960971       0.02729654
H        5.09782320       8.99773816       6.55008560       0.00143462       0.00235753      -0.00044739
O       10.63537513       5.18251384       9.50709352       0.00150588      -0.01270933      -0.00356452
H       11.20105294       5.49790964      10.22831362       0.00381898      -0.00364310      -0.01021252
H       11.00788631       4.34140584       9.15963734       0.00274630      -0.01638159       0.00634202
O        2.53219546       5.33865619      12.29272700      -0.00387117       0.00747772       0.00517595
H        3.18400974       5.93760004      11.85973520      -0.00239201       0.00659293       0.00631009
H        2.83851846       4.44731974      12.06303690      -0.00662744       0.00732134       0.00217245
O        1.69572621       6.48282663       6.85126068       0.00428630      -0.00953674      -0.00284107
H        1.96593500       7.30875841       6.43414065      -0.04719795       0.00175643      -0.01324110
H        1.88776102       6.60702558       7.81223117       0.01721160       0.01181668      -0.00934571
O        2.67945404      11.92011091      11.60502481      -0.00426317       0.00008667      -0.00119956
H        2.03982310      11.81443038      10.87211321      -0.00530628      -0.00280084       0.00006983
H        3.26432374      12.64014314      11.33621604      -0.00715938       0.00126278      -0.00393584
O       -0.03726773       6.80923880      11.23727646       0.01154105       0.01061478      -0.02571101
H       -0.15313773       7.73085828      11.50605263       0.02473775       0.00654923      -0.00619486
H        0.85692049       6.75643416      10.84925354       0.01269552       0.00689076      -0.02305899
O        4.52691700       2.48598355       2.64573199       0.00039475      -0.00730322       0.00351941
H        4.94674036       3.38362139       2.61026518       0.00107573      -0.00775279       0.00074784
H        3.96682778       2.49998504       3.44939411       0.00070494      -0.00419705       0.00371126
O        2.59602198       8.57318295       4.78985940      -0.02328198      -0.00310329       0.02785554
H        1.75133948       9.05021218       4.96221930      -0.02232870       0.00398976       0.01404061
H        3.15879280       9.28879974       4.42793997      -0.01588778      -0.00956023       0.02632894
O        5.75810528       4.83239269       5.52632343       0.02506122      -0.00476837      -0.00324557
H        5.69591787       3.87397153       5.75488646       0.01768731      -0.00425123      -0.00252265
H        5.79498721       5.28690935       6.39924754       0.01852870      -0.00398281      -0.00319514
O        8.50336937      10.33986563       7.71248646       0.00341408      -0.00240216      -0.00231430
H        9.02219954      10.87185168       8.33232968      -0.00003612       0.00225323      -0.00334579
H        7.64831742      10.22435746       8.16190182       0.00358639      -0.00512629      -0.00269490
O        0.99002992      12.56313227       4.51228655      -0.00031663       0.00615501      -0.00066559
H        0.68348052      11.65791973       4.69801687      -0.00656577       0.00827675      -0.00085715
H        1.28987496      12.54801995       3.58696615       0.00175195       0.00370477       0.00006907
O        8.26118760      10.52875339      -1.13765201       0.00143689       0.00000907       0.00148064
H        8.43077548       9.59086163      -0.98239027       0.00297127       0.00021676       0.00427612
H        9.03249496      10.82027013      -1.65885838       0.00086324      -0.00014129       0.00088256
O       10.39151240       8.26738714       9.09928968       0.00830363       0.00625694       0.00237805
H        9.45120941       8.08964442       9.33526147       0.01059481      -0.00084666       0.00532971
H       10.88251990       7.50183766       9.42831521       0.02011446       0.02215089       0.02216602
O        2.93862166       5.09240161       4.77042110       0.01502774      -0.00049614       0.01365006
H        3.86948741       5.00564307       5.05312643       0.01728598      -0.00395580       0.00376786
H        2.50172842       5.54503658       5.51463559       0.02582684       0.00975423       0.01466165
O        2.26488472       6.67074347       9.50576125       0.02410930       0.01510151      -0.00873025
H        2.84784492       5.89585132       9.66241488       0.02135019       0.01343440      -0.00587201
H        2.81049747       7.41822860       9.79072302       0.02171408       0.01456314      -0.00291833
O        5.80565071       6.12039194       7.96680930       0.01004187      -0.00941261      -0.00343722
H        5.26539638       6.86579833       7.64010246       0.01283410      -0.00416213       0.00400289
H        5.24526260       5.64168774       8.60732804       0.00867611      -0.01108049      -0.00564264
O       11.32077785       2.74245012       8.45903216      -0.00299794      -0.00974321      -0.00150012
H       10.49144419       2.23195284       8.56887815      -0.00429730      -0.00874097      -0.00647612
H       11.45680226       2.71150655       7.48593328      -0.00052450      -0.00323283      -0.00148323
O        4.53383600       6.98301241      11.35147462       0.00543787       0.00123560       0.01085541
H        4.52384130       7.56728079      12.13946938       0.00252361      -0.00288291       0.01401638
H        5.18761680       6.28403774      11.56091644       0.00335306      -0.00110182       0.00942371
O        8.98292240       4.97223877       1.27808930       0.00807373       0.00443621      -0.00724394
H        9.93875147       5.11079134       1.39798900       0.00831524       0.00671870      -0.01301154
H        8.64144460       4.88263475       2.17671948       0.01350762       0.00445224      -0.00540452
O       10.29340886       2.83161941       3.47695281      -0.00370525      -0.00114673       0.00443557
H        9.83343472       2.36251333       2.74594609      -0.00434096      -0.00367478       0.00625626
H       11.18564744       3.06156247       3.14141002      -0.00528187       0.00047170       0.00146378
O        4.06087533       4.52525817       9.51387272       0.00196945       0.00198916      -0.00458296
H        3.67760143       4.03981000       8.75436501      -0.00824740       0.00496112      -0.00167447
H        4.10365198       3.89604481      10.25431158      -0.00325766       0.00345599      -0.00300519
O        1.12053991       2.23427289       0.17081227      -0.00870126       0.00315347       0.00029658
H        0.77911972       1.33439391       0.11277030      -0.00212236       0.00039569       0.00220114
H        0.96615736       2.53019399       1.08891565      -0.00386802      -0.00127950       0.00259743
