196
Lattice="18.64758972897806 0.0 0.0 0.0 18.64758972897806 0.0 0.0 0.0 18.64758972897806" Properties=species:S:1:pos:R:3:forces:R:3 energy=-1809925.25 stress="-0.0005870762979611754 1.6588031030551065e-05 1.920733575389022e-05 1.6588031030551065e-05 -0.0005737467436119914 -0.00015301252278732136 1.920733575389022e-05 -0.00015301252278732136 -0.0006760746473446488" pbc="T T T"
N       15.41679070      15.40135392       1.02505801       0.00617284      -0.00578812       0.00431448
N       13.64530307      14.15860893       0.94980484       0.00118640      -0.00677237       0.00266226
C       16.82260146      15.81123581       1.18607085       0.01219869      -0.00520140       0.00490189
C       14.91473908      14.21587272       1.35956025       0.00032449      -0.00279176       0.00532460
C       14.44706606      16.13038523       0.37937088       0.00535190      -0.00820893      -0.00138810
C       13.33173724      15.35054956       0.33507381       0.00260258      -0.00853288      -0.00106016
C       17.66344236      15.28125761       0.04131567       0.00125733       0.00433065       0.01173285
C       12.74367018      13.03908044       1.16840972      -0.00051916      -0.00418940       0.00478418
H       16.83660934      16.90035122       1.19437039       0.00127550      -0.01045585       0.01225293
H       17.15997638      15.43535127       2.15183839      -0.00017866      -0.01002559       0.00035602
H       15.44485107      13.43063652       1.87040987      -0.00484075       0.00090186       0.01167911
H       14.64791103      17.12892382       0.02545714       0.00593951      -0.00697165      -0.00656812
H       12.35499160      15.53504700      -0.07140499       0.00225003      -0.00450318      -0.00465869
H       17.74013004      14.19330695       0.07380964      -0.00994087       0.00506766      -0.01732014
H       18.65983187      15.71399911       0.10343048       0.00035365      -0.00748378       0.02884391
H       17.23195740      15.58563078      -0.91104079       0.01261092       0.02411655       0.00942543
H       13.32843780      12.16459373       1.43998756      -0.00163437      -0.00257784       0.00484978
H       12.04329567      13.27162483       1.96938046      -0.00066872      -0.00148344       0.00178909
H       12.19785118      12.83024955       0.25247461       0.00139378      -0.00409440       0.00558546
N       17.28073223      18.59469014      -0.24501743      -0.03939694      -0.00952224      -0.01717502
C       18.32687790      18.81233907       0.23175786      -0.01692712      -0.02541155       0.00292209
Cl      14.18726008      11.84180912       4.66371683      -0.01570362      -0.01987663       0.00158587
Cl      14.32929879      13.15330127       7.25362688      -0.01683731      -0.00750367      -0.00576977
Cl      15.97022372      14.09129949       5.06593133      -0.02074815      -0.01293164      -0.01108656
Cl      16.54122073      11.53955541       6.32653170      -0.01158461      -0.00428198       0.00012873
C       15.25810079      12.64817192       5.84120380      -0.01646537      -0.01217078      -0.00355981
Cl       4.50282357       7.02254101       2.06163989       0.00325951       0.00244466       0.01502615
Cl       5.96657104       4.95610379       0.65248506      -0.01681087      -0.00303876       0.00369383
Cl       7.35510780       6.73780206       2.46247224       0.00534403      -0.00867084      -0.00784472
Cl       6.32843884       7.74130213      -0.06132571      -0.00988033      -0.00267625       0.00053290
C        6.03460633       6.61512680       1.28429987      -0.00428465      -0.00328163       0.00436431
Cl      13.79608698       2.23824287       3.07296087      -0.00828305       0.00074789       0.00650871
Cl      13.75010406       4.13685183       0.89738118       0.00686696       0.00730705       0.01021902
Cl      12.08520908       1.77629499       0.75470785      -0.00292075       0.01291049       0.00018857
Cl      14.98004166       1.52511600       0.52990740      -0.00379878       0.00218332       0.00837460
C       13.66175961       2.41846556       1.30116740      -0.00194437       0.00605926       0.00678922
Cl      18.45404689      17.90686869       8.97577503       0.01740205       0.00264736      -0.02179512
Cl      16.56652513      16.62343815       7.19672292       0.01787780      -0.00821415      -0.01433687
Cl      17.73911025      19.16934383       6.45919001       0.02176860      -0.01444632      -0.03176385
Cl      15.81315937      19.03563429       8.61446988       0.01548842      -0.00032219      -0.03309593
C       17.14270445      18.19572665       7.80986947       0.01893103      -0.00614575      -0.02557375
Cl       5.70030042       8.86442918       5.07743008      -0.00844468       0.00058609       0.00523612
Cl       6.49928671      10.40535233       2.75151134       0.02119443      -0.01056873       0.00713730
Cl       5.45281457      11.74325395       5.10063585      -0.00552380       0.00216842      -0.01025847
Cl       3.69464670      10.17101212       3.43084385       0.01054174      -0.00348220      -0.02303663
C        5.33835011      10.29481367       4.09196003       0.00443637      -0.00260087      -0.00531789
Cl      11.69595168       4.50064325      13.13423330       0.01141444       0.00611401      -0.00227874
Cl      11.22048398       7.36427561      13.29970152      -0.00503813       0.00159234       0.00611061
Cl       9.14707005       5.50109320      14.08656054       0.00128677      -0.01374674      -0.00794801
Cl       9.88133965       5.78025324      11.28734669       0.01066187       0.00213128      -0.00389457
C       10.49101769       5.78115812      12.94838698       0.00520479      -0.00015353      -0.00179618
Cl       4.68443562      13.63694353       1.56542941      -0.01501031      -0.04073802      -0.00428635
Cl       5.99662799      12.20160223      -0.58428069       0.00090596      -0.00257441      -0.01859812
Cl       6.66228009      14.98148806      -0.07794092      -0.02189994      -0.00168625       0.01952376
Cl       4.07600726      14.28885024      -1.19548478      -0.00656667      -0.00820255       0.00197175
C        5.35362543      13.77861270      -0.06852631      -0.01532510      -0.01128973      -0.00314224
Cl       0.76957531       8.67948535      16.59522368      -0.00462242       0.00427631       0.00995436
Cl      -0.13824132       6.94699859      18.72603589       0.00845882      -0.00802886       0.00305429
Cl       2.55512380       6.68681200      17.69795700       0.00375921       0.00441968      -0.00852141
Cl       0.29947997       5.86128429      16.07312721       0.00031517       0.00859526      -0.00237966
C        0.87585361       7.03680454      17.27111544       0.00230601       0.00322984       0.00070781
Cl      11.18424890      10.76007418      11.55392105       0.00845882       0.00813370       0.00959129
Cl       8.63547118       9.42067187      11.20376340       0.01043993       0.01177058      -0.00659028
Cl       8.76219221      12.31988101      11.18357246       0.01329629       0.01091263       0.00740696
Cl       9.18670616      10.85708611      13.65892637       0.00280348      -0.00065550       0.00081843
C        9.43680737      10.83419038      11.89851438       0.00906626       0.00722828       0.00269036
Cl       3.51412808       4.88720190      14.14573289      -0.01546848       0.00114490       0.02387583
Cl       3.97142877       3.46765037      16.63072501       0.00518423      -0.00739250       0.01478177
Cl       5.94002243       5.36589826      15.64252762      -0.02205548       0.02927235       0.02819034
Cl       5.56670143       2.82249038      14.31340230       0.01677296       0.03088751       0.00942063
C        4.74790843       4.12567270      15.17454902      -0.00472912       0.01375905       0.01859345
Cl       2.77095777      17.51954290       2.71351425       0.00730592      -0.02536413      -0.00515288
Cl       5.08270508      19.24839970       2.85539618      -0.01475084       0.00485843      -0.01311079
Cl       5.29696824      16.49610201       3.73205213       0.01623553       0.01596200       0.01564224
Cl       3.76419781      18.39423390       5.29445202      -0.01377608       0.01137654      -0.01004350
C        4.22212098      17.91548435       3.64268115      -0.00176572       0.00200773      -0.00247281
Cl       9.88677204       9.21663409      19.85932435      -0.02605432      -0.00848816      -0.00692049
Cl      11.91833183       9.75836959      17.85788501       0.00283286       0.01697546       0.02793244
Cl       9.23354313      10.81268541      17.53565986      -0.00060172       0.00224733      -0.00389916
Cl       9.72438095       7.97139144      17.23619043       0.02197960       0.00787318      -0.01634483
C       10.18600976       9.43029406      18.12467791      -0.00123514       0.00426026      -0.00017041
Cl      11.53306802      17.42622691       5.66479135       0.01545055      -0.00083318       0.00021338
Cl      12.54850938      15.15699407       4.17233431      -0.00337419      -0.00249553      -0.00775366
Cl      14.21660605      17.48630899       4.57146878       0.01287711      -0.01255780      -0.00245331
Cl      11.92913263      17.63654641       2.80885017       0.01061863       0.00623488       0.00067040
C       12.55542492      16.93918012       4.30328317       0.00923266      -0.00302637      -0.00272088
Cl       0.50477866      14.18711543       6.74060780       0.00595739       0.00554800       0.01733714
Cl       3.19026039      13.32828921       7.36133647       0.00881788      -0.00008541       0.00846261
Cl       2.48624197      14.06878981       4.63777954       0.00600410       0.02223164       0.01466313
Cl       1.46402064      11.61657196       5.78594076       0.00615142       0.01216209      -0.00448831
C        1.90897629      13.29634380       6.12782986       0.00688613       0.00886923       0.00852479
Cl       8.18708727       3.38033533       3.04031352       0.00272645      -0.01170143      -0.00228170
Cl      10.56393827       2.39797380       4.36065610      -0.00393623      -0.00924332       0.01695740
Cl       8.72770862       0.53524791       3.11261467       0.00598363      -0.01344728       0.00252330
Cl       7.95415966       1.92061389       5.53620362      -0.01370531      -0.01221252      -0.00095123
C        8.85755956       2.06291828       4.01587499      -0.00077103      -0.01253878       0.00130293
Cl      17.22694798       4.05151830       8.97474678      -0.00574702       0.00599442      -0.01873240
Cl      19.51265440       5.12191206      10.39870226      -0.01397286      -0.00096601       0.00033948
Cl      19.89877033       3.09722007       8.36822524      -0.00556770      -0.00065659      -0.00000563
Cl      18.64979672       2.40686086      10.89262738      -0.02663451      -0.00062746      -0.01087311
C       18.82105789       3.66389063       9.66004042      -0.01305927      -0.00002419      -0.00772892
Cl       3.46476512      -0.60717387      14.75055419      -0.00603873      -0.00890671      -0.02067429
Cl       2.12592359       1.77518226      13.77901913      -0.00825325       0.00481188       0.02061192
Cl       0.56784762      -0.52025070      14.59987012      -0.00109601      -0.00845338      -0.03160149
Cl       2.15550642      -0.62454926      12.16190299       0.00571094       0.03266777      -0.02163035
C        2.06843294       0.00431683      13.82632822      -0.00506356       0.00501084      -0.01035007
Cl       2.04355016       8.26435065      10.55322603      -0.00216749       0.01554866      -0.00716114
Cl       3.38496058       9.38986665       8.24669831      -0.01019111       0.00512096      -0.01589321
Cl       0.83678540      10.46948541       9.13718845       0.00635833       0.02609155       0.00478984
Cl       0.95130592       7.85618966       7.88828943      -0.02585283       0.02554977       0.00282866
C        1.80500549       8.99315918       8.95421822      -0.00829045       0.01740824      -0.00316288
Cl       3.37670744       5.68548160       5.91290524      -0.00620279      -0.00201809       0.00197472
Cl       4.68345579       3.95554691       3.99400394      -0.00824354      -0.00705600       0.00428808
Cl       4.52709375       3.16428806       6.76914349       0.00256870       0.00437456       0.00927687
Cl       6.25791194       5.35335265       5.97987012      -0.00431204       0.00444219      -0.00675230
C        4.70903581       4.54006355       5.65961013      -0.00464417      -0.00022515       0.00127890
Cl      17.20095135      10.93711344       0.44119394       0.01672383       0.00433514      -0.01866390
Cl      17.87221455      12.40874186       2.85221195      -0.00442931      -0.00539115      -0.00898319
Cl      19.87078646      12.02411620       0.78444725       0.01892191      -0.01513100       0.01560533
Cl      18.99708519       9.78162817       2.40387637      -0.01764541      -0.01172438       0.00249648
C       18.49744280      11.28306547       1.61287535       0.00374524      -0.00769323      -0.00316188
Cl       5.10178322      11.12296568      14.45837660       0.02231425      -0.00188947      -0.00565919
Cl       4.02827559      11.32792122      11.77161378      -0.00076900      -0.00780776       0.00488389
Cl       2.63955738       9.75962279      13.78352803       0.00596076       0.01378550       0.02138792
Cl       5.15004995       8.81357291      12.69469241      -0.00869876      -0.01002574       0.00740600
C        4.23305160      10.25755925      13.17321969       0.00516036      -0.00087205       0.00735312
Cl       5.42106999      18.53507727       9.45923579      -0.00298280      -0.00864562      -0.00902747
Cl       5.14260310      16.05808415       7.98056846      -0.00041711      -0.00202531      -0.02035215
Cl       6.93840230      16.18141275      10.24804269      -0.00239462      -0.00902638      -0.01803574
Cl       7.59804897      17.59098943       7.79744410      -0.00369498      -0.00047310      -0.01209399
C        6.27354041      17.09028718       8.87214970      -0.00259418      -0.00597786      -0.01504309
Cl      13.76221073       7.64012747      10.96966458       0.00755122       0.01306711       0.01128265
Cl      15.29504089       7.48134579       8.50537323      -0.00610127      -0.00020206       0.00257459
Cl      16.59467914       8.25630145      10.98205269       0.00866675       0.01015396      -0.00650156
Cl      14.71514040      10.06168204       9.69209682       0.00315702       0.00514621      -0.00553215
C       15.09247747       8.35497119      10.04188841       0.00393643       0.00669715      -0.00023492
Cl       8.93478980       0.62628998      10.91879879      -0.00861301       0.02239601       0.00781506
Cl       9.25856834       1.58648358      13.63019073      -0.00810745       0.00030667       0.01489037
Cl       9.33390812      -1.26490850      13.07924863       0.01807332       0.00709015      -0.01176083
Cl       6.83690960       0.17729485      12.87983073       0.00424194      -0.01477911       0.00969756
C        8.59276588       0.28604112      12.62491418       0.00200224       0.00368846       0.00567089
Cl       1.70275007      14.52931891      13.34952040       0.00532207      -0.02317612       0.00457186
Cl       0.20476076      12.32090778      12.22054493      -0.01141274      -0.01083761       0.00829469
Cl       0.24836157      14.88285862      10.86018657       0.00733572      -0.01323414       0.00870040
Cl      -1.19505026      14.59956458      13.35713190       0.01144326      -0.00295320       0.00784950
C        0.24578736      14.07909705      12.44894096      -0.00046587      -0.01222290       0.01171413
Cl      11.63673724       7.78946911       7.69816641      -0.01134807      -0.01050983      -0.00102285
Cl       9.36679669       9.58443191       7.50130083      -0.00030710      -0.00026727      -0.01098204
Cl       8.93708325       6.75906643       7.99645775      -0.01741388       0.00535393      -0.00853600
Cl       9.87342594       7.64972477       5.39888056      -0.00456486      -0.00589586      -0.00345433
C        9.95870260       7.95295071       7.15311241      -0.00964972      -0.00469355      -0.00538710
Cl      -0.38958611       4.32973037       5.09617016      -0.01081821      -0.00252393       0.00424743
Cl       1.14960564       4.61362829       2.65117401      -0.00959250       0.01331684       0.00457525
Cl      -1.14913794       2.85204842       2.71552884       0.01121128      -0.01369950       0.00323296
Cl       1.26015390       2.13782896       4.15634000       0.01765832       0.01518619       0.00911798
C        0.20779427       3.47767120       3.64917842       0.00251516       0.00302466       0.00540487
Cl      13.63074157       1.77169582      10.67435042      -0.01062511      -0.01297913       0.01390499
Cl      15.24135052       3.24927077      12.56772394      -0.00527343      -0.00528079      -0.00272572
Cl      15.71462142       0.41658503      12.20151715      -0.01051787      -0.00519940       0.00973593
Cl      13.29315604       1.31271580      13.51119223       0.00009489       0.00540256       0.01545841
C       14.48225494       1.68809081      12.23875823      -0.00834543      -0.00478876       0.00783760
Cl       7.80783421      13.19927172       7.26651877       0.00478363      -0.00933404       0.00694233
Cl       8.61014612      15.03111936       5.16650810      -0.00142528       0.00216895       0.01287335
Cl       9.17770497      12.20885486       4.89379106       0.01229285       0.00611609       0.00565720
Cl      10.60710428      13.77952200       6.87175636       0.00305703       0.00815880       0.01117156
C        9.05137797      13.55359868       6.04778572       0.00434250       0.00247012       0.00947499
Cl       6.26116406       5.40706974      11.83385294       0.00896680       0.00994404      -0.00372958
Cl       4.83185136       5.92582457       9.37628059       0.00885552      -0.00119990      -0.00426683
Cl       4.47453960       3.39552490      10.74378907       0.01977810       0.00252229      -0.00009757
Cl       6.98859155       3.97690461       9.42886400       0.01921517       0.00973423      -0.00084329
C        5.63404552       4.68137333      10.34396429       0.01283619       0.00635241      -0.00033021
Cl      11.64896789      13.17632144      16.15197661      -0.00757607      -0.00510342       0.01041360
Cl      10.85202543      14.32492252      13.62820130      -0.00841068      -0.00962308       0.00514022
Cl      13.48449961      14.90029194      14.71019282      -0.00630909      -0.00708771       0.00301012
Cl      11.12556556      16.02823906      15.95945122      -0.00719580      -0.00186414       0.00377947
C       11.78172307      14.60954958      15.09967829      -0.00566424      -0.00693709       0.00332070
Cl      15.20332261      15.65243684      10.54005669      -0.00120550      -0.00554639      -0.00975487
Cl      12.68939490      16.74375667      11.48589690      -0.00003958      -0.01119983       0.00148481
Cl      12.82017513      14.01174636      10.50067869      -0.00127719      -0.00696445      -0.00890314
Cl      13.06372259      16.25028962       8.66644007      -0.00587108      -0.00036897      -0.00170812
C       13.44934929      15.67203885      10.30108647      -0.00147835      -0.00557978      -0.00440738
Cl      14.10983833       8.61998490       2.48492387       0.01739153      -0.00224578      -0.00856143
Cl      15.68720581       8.25702801       4.89629025       0.00526492       0.01359832      -0.00224429
Cl      16.11185545       6.52277528       2.61079108       0.00405252      -0.00836909       0.01757991
Cl      13.67947487       6.29876411       4.17098601      -0.00103351       0.01659715       0.00947353
C       14.89994982       7.41726073       3.54559767       0.00434265       0.00587016       0.00299674
Cl      14.62408832       3.86909572      16.13158214       0.00453262       0.00630534       0.00028604
Cl      15.33447923       6.43852341      17.27933091       0.01466212       0.00683561      -0.01540521
Cl      12.61368976       5.93991079      16.44380952       0.01370692       0.01144956      -0.00462215
Cl      14.71676570       6.22736668      14.45873975       0.00695067      -0.00180686      -0.01009303
C       14.32094810       5.60856039      16.07993306       0.01133212       0.00553421      -0.00657946
Cl      16.52819805       9.53066271      14.89141059       0.00033283       0.01854408      -0.01810320
Cl      15.19451360      11.78615891      16.11494411      -0.00282646       0.00963083      -0.00688583
Cl      13.63638445       9.70852720      14.82104328      -0.00115967       0.00771078      -0.00358961
Cl      15.22577586      11.51807617      13.22074971      -0.01568437       0.01790082      -0.00673896
C       15.14803410      10.62882506      14.74729927      -0.00549380       0.01381880      -0.00843686
