193
Lattice="13.219319096173075 0.0 0.0 0.0 13.219319096173075 0.0 0.0 0.0 13.219319096173075" Properties=species:S:1:pos:R:3:forces:R:3 energy=-284886.9375 stress="-0.0017249858938157558 0.0005804991233162582 0.0004305306647438556 0.0005804991233162582 -0.0024202775675803423 5.30729339516256e-05 0.0004305306647438556 5.30729339516256e-05 -0.002432502107694745" pbc="T T T"
N        7.98186739      10.80657734       2.23150876       0.00155815      -0.00110465      -0.00069317
N        6.09904580      10.65568870       3.29817354       0.01070860      -0.00678600      -0.00866660
C        9.18156639      11.38617184       1.60930448       0.00460947       0.00029492      -0.00166065
C        6.97161903      11.50545661       2.75241886       0.00431497      -0.00982857      -0.00453371
C        7.74809615       9.47095266       2.45207168       0.01867169      -0.00961101      -0.00750777
C        6.56737108       9.37494707       3.12464882       0.00510960      -0.01451093       0.00058621
C       10.34970862      11.43164456       2.56677933       0.00622556      -0.00268634      -0.00388715
C        4.85281040      11.02581095       3.95093781       0.00598234      -0.01479845      -0.00640398
H        9.39661212      10.78322732       0.72928159       0.00433022       0.00706071      -0.00503743
H        8.92376756      12.39228769       1.28475627       0.00474531       0.00425008       0.00280376
H        6.87328011      12.57600194       2.73302832      -0.00000966      -0.00461752      -0.00454776
H        8.43892325       8.71132879       2.12960109       0.00391611       0.00938500       0.00125207
H        6.07867120       8.51915916       3.56397003       0.01944331       0.00279513      -0.01106095
H       10.10555710      12.00960464       3.45941166       0.00803096      -0.00634990      -0.00150287
H       11.18057495      11.90948558       2.05060415       0.00661258      -0.00262752      -0.00245132
H       10.64965997      10.43553026       2.87965210       0.00482687      -0.00415201      -0.00764400
H        4.73130781      12.10345491       3.94657378      -0.00719653      -0.01378885      -0.01755940
H        4.01242001      10.60391980       3.40068272       0.00811441      -0.02869464       0.00199062
H        4.87746695      10.65971470       4.97684334       0.01039935      -0.00097454      -0.00216806
Cl      12.11144008      13.50430365      -0.53235434       0.00369397       0.00783134      -0.00210500
O       12.10345113      12.01436307      -0.56598186       0.00726726       0.00789499      -0.00150393
O       13.33816728      13.94667557       0.17937847       0.00090444       0.01167482       0.00003135
O       10.93424285      13.92508148       0.29925203       0.00133562       0.00514713      -0.00456917
S       10.00907591       8.82095138       4.90565882       0.00317299       0.00296772       0.00451636
O       11.21077379       9.59966018       5.38797870       0.00711989      -0.00204217       0.00146997
C        8.57745506       9.34506164       5.85014815       0.00874776       0.00263962       0.01283562
C       10.12596660       7.18587503       5.60990773       0.00097467       0.00045079      -0.00189924
H        8.32940021      10.36582587       5.56775550       0.01167544       0.00519447       0.02056155
H        8.79997280       9.27018633       6.91357806       0.01224987      -0.00508006       0.01147306
H        7.75428838       8.68434717       5.58624319       0.00514241       0.00788581       0.01164797
H        9.17123029       6.68604909       5.47455651      -0.00236441       0.00574614       0.00371767
H       10.35436121       7.29332129       6.66807520       0.00957032      -0.00414535      -0.00340387
H       10.89961974       6.63838421       5.07634614      -0.00598665      -0.00158460      -0.00946251
S       10.39048787       1.80045277       3.17983517      -0.00186140      -0.00199330       0.00201249
O        9.92401546       2.26545246       4.52697941      -0.00047395      -0.00464040       0.00305152
C       12.05477764       1.16041430       3.41536330      -0.00215822      -0.00236948       0.00042094
C       10.86507627       3.26568746       2.24263933      -0.00172958      -0.00038797       0.00484788
H       11.98111514       0.29125552       4.06518348      -0.00256090      -0.00406463      -0.00218304
H       12.65225410       1.92687597       3.90971451      -0.00276372      -0.00355490       0.00277810
H       12.47117155       0.88636426       2.44577492      -0.00190920       0.00017169      -0.00002560
H       11.30130143       2.93174181       1.30273901       0.00130434       0.00160520       0.00569570
H       11.57164395       3.85765337       2.82351460      -0.00417367      -0.00066359       0.00788416
H        9.96636527       3.85226205       2.06295382      -0.00193787      -0.00147872       0.00309835
S        4.42939501       3.95325273      13.07017804      -0.01913479      -0.00289428      -0.00930643
O        4.10112247       5.25819180      12.40682416      -0.01603419      -0.00740051      -0.01949871
C        6.07997113       3.50332741      12.49464230      -0.01789778      -0.00693402      -0.00103390
C        3.55094042       2.65293970      12.19316260      -0.01519477      -0.00951451      -0.00270161
H        6.76691397       4.26163102      12.86906434      -0.01922534      -0.00391465      -0.00531761
H        6.06981157       3.47911288      11.40444471      -0.01472636      -0.01543990      -0.00069094
H        6.35146134       2.52575699      12.89319794      -0.01923856      -0.00336773       0.00798537
H        3.81078082       1.68653895      12.62866436      -0.00992438      -0.00648081       0.00057027
H        3.82959775       2.69932895      11.13891737      -0.01680340      -0.01240065      -0.00300720
H        2.48685524       2.82604736      12.34710338      -0.01572694      -0.01452158      -0.00210091
S        3.31752935       1.51744820       3.61729625      -0.00935546      -0.01417804       0.00024737
O        2.97971839       0.11100266       4.01114087      -0.00597066      -0.01815259      -0.01044837
C        2.29823469       1.90765120       2.18937457      -0.00951961      -0.00643907       0.00341630
C        4.88102990       1.43580622       2.71283344      -0.00980407      -0.00370733      -0.00046650
H        1.26454857       1.91832198       2.52014794      -0.00932699      -0.01021433       0.00318024
H        2.43561149       1.14642712       1.42225858      -0.00813441      -0.00140026      -0.00101471
H        2.56614831       2.90335026       1.83488791      -0.01079885      -0.00410130       0.00954824
H        5.03167642       2.38365729       2.19608162      -0.01366472      -0.00030876       0.00498097
H        4.80831062       0.61788324       1.99323080      -0.00720028       0.00020544      -0.00485178
H        5.65994010       1.30383577       3.46308875      -0.00938631      -0.00484451      -0.00157969
S        6.17127839       5.41224357       4.61757978       0.00115520      -0.00020814      -0.00122884
O        6.41950327       6.84180406       5.03139750      -0.00225818       0.00188684      -0.00705391
C        7.73572791       4.54093329       4.67251529       0.00267500       0.00382480       0.00463367
C        6.04373506       5.47989485       2.81924908       0.00346512      -0.00881085      -0.00157666
H        8.07628386       4.50470573       5.70571277       0.00125881       0.00904758       0.00512028
H        8.46760065       5.05764554       4.05165227       0.00225100       0.00292392       0.00364901
H        7.56501487       3.52250522       4.33133241       0.00551167       0.00207809       0.00894578
H        5.98661158       4.46790688       2.42190917       0.00786957      -0.01070657       0.00300200
H        6.92321591       5.99957501       2.43569173       0.00211611      -0.00772876      -0.00262033
H        5.13186799       6.01901556       2.56607362       0.00224034      -0.01304066      -0.00526673
S        8.50967065       3.04367746      10.12182663      -0.00910795       0.00428820       0.00197732
O        8.78412061       4.46805809       9.76977404      -0.01266778       0.00535524       0.00332302
C        9.52411895       2.72314464      11.57713494      -0.01104534       0.00529204       0.00307584
C        9.42599136       1.98474101       8.96072809      -0.00376076       0.00794655       0.00359845
H        9.13919686       3.35259343      12.37736485      -0.01725729      -0.00210195       0.00558246
H       10.55914028       2.99396532      11.36457723      -0.01267637       0.01357199       0.00659867
H        9.47624666       1.68327355      11.88444475      -0.00421127       0.00336163      -0.00293181
H        8.93948490       1.01145498       8.92718009      -0.00106874       0.00681050       0.00288324
H       10.46915510       1.88400931       9.25866099      -0.00434779       0.01109419       0.00594454
H        9.35681452       2.48243179       7.99469644      -0.00304496       0.00772138       0.00357980
S       11.77460823       4.70706911       7.32846061      -0.00827432       0.00133461      -0.00274828
O       10.30889380       4.65241379       7.09229889      -0.00809765      -0.00427537      -0.00269568
C       12.39521740       3.05952891       6.99409522      -0.00316665       0.00165719       0.00472823
C       12.05352983       4.71482743       9.11649812      -0.00836064       0.01125819      -0.00319380
H       12.17442540       2.86424961       5.94727172      -0.00142278      -0.00354893       0.00547972
H       11.85898416       2.33438933       7.60148811      -0.00139323       0.00226217       0.00700201
H       13.46347009       2.97777260       7.17334968      -0.00314556       0.00559621       0.00561789
H       13.12696346       4.74956205       9.30649504      -0.00846300       0.01205336      -0.00333638
H       11.60788794       3.82993472       9.56415136      -0.00968702       0.01490234       0.00238220
H       11.56409957       5.60679052       9.50052085      -0.00749277       0.01429066      -0.00959291
S        0.48520100       5.32818689       4.37108444       0.00448197       0.00230440       0.00300777
O        0.77334194       5.38287065       2.90157209       0.00781953       0.00398160       0.00386965
C        1.03269344       6.90117666       5.08122900      -0.00164855       0.00328308       0.00472447
C        1.78430565       4.32223509       5.10983786       0.00449169       0.00492212       0.00595498
H        0.32911625       7.67493124       4.78198597      -0.00102258       0.00201394       0.00040328
H        2.03445103       7.11447938       4.70491299      -0.00008802       0.00471755       0.01021013
H        1.02327701       6.81352276       6.16667697      -0.00767575       0.00416170       0.00460501
H        1.80222170       4.48594704       6.18520804       0.00054942       0.00428759       0.00603092
H        2.73929834       4.59696829       4.66162122       0.00498752       0.00813508       0.00932422
H        1.55816749       3.27666898       4.91285857       0.00790462       0.00460367       0.00444414
S        7.28321470      12.89968948      10.98686325       0.00110173      -0.00280547      -0.00160736
O        6.64084591      11.85348889      10.12572317      -0.00099319      -0.00365674       0.00129586
C        8.95253115      12.32582164      11.32879861       0.00164485      -0.00306910      -0.00612046
C        6.67794691      12.64686563      12.66302796       0.00486238      -0.00137213      -0.00034213
H        9.56962501      12.52340351      10.45544184      -0.00235319      -0.00694094      -0.00954780
H        8.88504323      11.25700113      11.53941663       0.00047716      -0.00199550      -0.00246467
H        9.36891624      12.85041749      12.18845383       0.00533820      -0.00052765      -0.00964007
H        7.17584538      13.36467814      13.31678643       0.00677833      -0.00131354      -0.00211107
H        6.91746353      11.62435135      12.95952184       0.00457793      -0.00155297      -0.00125201
H        5.60168972      12.81304571      12.67829980       0.00516051      -0.00028614       0.00124524
S        2.94405596      11.41121188      -0.34688228      -0.00566459       0.00831425      -0.00397730
O        3.60070892      12.63196762       0.22524964       0.00153959       0.00547922      -0.00665605
C        1.66835389      10.91341487       0.81059159       0.00509134       0.00816196       0.00689089
C        4.07851174      10.04056419      -0.01913312      -0.00485823       0.00595450      -0.01925755
H        0.82607990      11.58937065       0.67198040       0.00674017       0.01180317       0.01694437
H        2.07387628      10.98117955       1.82035001       0.01502120       0.00351287       0.00293224
H        1.37157572       9.89392114       0.56430690      -0.00123184       0.01043563       0.00627075
H        3.61305850       9.09788644      -0.30730400      -0.00940870       0.00734457      -0.01552545
H        4.32821097      10.03623416       1.04291325       0.00706496       0.00357024      -0.02224831
H        4.97050199      10.20894077      -0.62044938      -0.01146929       0.00589547      -0.02879170
S        1.63155496      12.78385545       6.84923708       0.00818217       0.00740147       0.00100011
O        0.88230943      14.01077851       6.44819912       0.01911604       0.01402044       0.00135660
C        0.78501761      11.37990831       6.09832135       0.00445789       0.01574540      -0.00894174
C        1.13544453      12.46622420       8.56356767      -0.00362065       0.00425610      -0.00356811
H        0.97020268      11.45691698       5.02883809       0.01122726       0.01937128      -0.00736739
H       -0.28456857      11.41420559       6.29940340       0.00386491       0.02061801      -0.01363756
H        1.20474647      10.45017076       6.48419264      -0.00226784       0.01260838      -0.00982678
H        1.44865246      11.47367584       8.88396001      -0.00971603       0.00183931      -0.00572235
H        0.05337595      12.57139077       8.63619385      -0.00345962       0.00852107      -0.00923696
H        1.62346666      13.21936238       9.18033279      -0.00406051      -0.00006236       0.00175512
S        7.61355627       8.45023639      11.63780369      -0.02628446       0.00305569       0.00319159
O        8.51145279       9.36319535      12.42721805      -0.03651583       0.01015449       0.00610614
C        6.83018850       7.39165589      12.86517622      -0.01297967      -0.01042247      -0.00064981
C        8.66076796       7.20008132      10.90930945      -0.01009706       0.02005273      -0.00021608
H        6.25060810       8.04403922      13.51546218      -0.01577253      -0.01782177       0.00383922
H        7.61396174       6.89515528      13.44048228      -0.00830342      -0.00805478      -0.00525452
H        6.16122584       6.67664831      12.38571116      -0.01034385      -0.01132824      -0.00244578
H        8.05689938       6.45238510      10.40245673       0.00124322       0.00797266       0.00504003
H        9.23390845       6.71505807      11.69946379       0.00256620       0.03386717      -0.00123905
H        9.31447729       7.68799481      10.18638503      -0.02164213       0.02809311      -0.00466141
S       10.92092835       7.71400239       1.30140560       0.00318417       0.00028110      -0.01372337
O       10.12363262       6.72884734       2.10202872      -0.00758767       0.00921082      -0.01405871
C       11.86260016       6.75260138       0.09813632       0.00586721      -0.01038182      -0.00255236
C       12.36493741       8.20606653       2.26560847      -0.00144380      -0.00283143      -0.00556031
H       11.15428271       6.30115044      -0.59209309       0.00872822      -0.01159875      -0.00450590
H       12.42953900       5.99163839       0.63527806       0.00014690      -0.00939244       0.00434025
H       12.52752861       7.42467598      -0.44342913       0.01218073      -0.01607144      -0.00133323
H       12.89145580       8.96497981       1.68650066       0.00383849      -0.00378340      -0.00163396
H       12.99565043       7.33452146       2.44497092      -0.00411298      -0.00372547      -0.00103351
H       12.01771435       8.65613262       3.19408631      -0.00677817      -0.00246087      -0.00797309
S        6.51710175       1.50340322       6.76894366       0.00392723      -0.00725520      -0.00500822
O        5.82084686       2.16870232       5.61846998       0.01024389      -0.00987810      -0.01013339
C        7.60919004       0.27168510       6.03228861       0.00297078      -0.01289016       0.00400990
C        5.34838464       0.35469379       7.49619398      -0.00185281      -0.00101972      -0.00564677
H        8.36419335       0.81968521       5.46469863       0.00644770      -0.01686214       0.00529750
H        7.01529673      -0.38542756       5.39549956       0.00363809      -0.01318599       0.00393773
H        8.07597373      -0.31256201       6.82537119      -0.00265495      -0.01173266       0.00791637
H        5.87748153      -0.31084902       8.17968462      -0.00635612       0.00008861      -0.00138541
H        4.86766909      -0.20798157       6.69584714       0.00051777      -0.00316954      -0.00528780
H        4.63288919       0.96064276       8.04782039      -0.00238818       0.00293770      -0.01109745
S        4.53319367       4.35943569       8.47610696      -0.00308445      -0.00553322      -0.00213897
O        4.94576562       3.10726346       9.18485540      -0.00788763      -0.00621367      -0.00093907
C        5.24679551       5.72044563       9.40950989       0.01410329      -0.00839901      -0.01218086
C        2.81074960       4.63591999       8.96540428       0.00288856       0.00940795       0.00843942
H        6.32494952       5.64897186       9.27188207       0.01288168      -0.02257683      -0.01291139
H        4.96130479       5.60543939      10.45734405       0.01466477       0.00109009      -0.01129904
H        4.89216341       6.66966929       9.01111186       0.02482598      -0.00705449      -0.01815288
H        2.42346642       5.53188543       8.47874037       0.00733993       0.01131596       0.00876247
H        2.75435832       4.72581087      10.05086980       0.01160412       0.01222928       0.00862056
H        2.26267480       3.76059176       8.61788763      -0.00612212       0.01334934       0.01327445
S       11.43087791       9.76401395       8.52085744       0.02655542      -0.00618458       0.01106653
O       10.42948154       8.64987469       8.50870573       0.04371071      -0.02090573       0.00065212
C       11.67859792      10.14304564      10.25776421       0.00606990      -0.00756142       0.01254457
C       10.52665117      11.26573328       8.06773649       0.00948685      -0.01737154       0.01017743
H       12.14808593       9.26094412      10.68997434       0.02701131       0.00658669       0.01626138
H       10.72178670      10.31688422      10.74514974      -0.00117919      -0.03581308       0.00697961
H       12.33281399      11.00310944      10.38658149      -0.01964879       0.00933321       0.02050078
H       11.11584104      12.14871993       8.31461798      -0.00874515      -0.01002130       0.02478960
H        9.57327011      11.26861107       8.59765523       0.00325352      -0.03576310      -0.00232023
H       10.37743595      11.20814568       6.99179028       0.02279929      -0.00988495       0.00855559
S        5.27799487       9.24692722       7.77698736       0.00562611       0.01155555       0.00365019
O        5.87177378      10.18070972       6.77253350       0.00448090       0.01754737       0.00874901
C        4.05155390       8.26601223       6.87772312       0.00461793       0.01747784      -0.00120643
C        4.11726020      10.23319641       8.73424261       0.00775862       0.00502369       0.01316354
H        4.61299892       7.57764105       6.24434895       0.00354736       0.02410838      -0.00932972
H        3.44102429       8.93901895       6.27395997       0.00009649       0.02137816       0.00799058
H        3.42465820       7.71809345       7.58143353       0.00934445       0.00916834      -0.00376040
H        3.50988853       9.58574772       9.36776735       0.00661059      -0.00056855       0.00646784
H        3.50070742      10.79426833       8.02962745       0.01071662       0.01455051       0.01879542
H        4.71732712      10.90917536       9.34328092       0.00718373       0.00161383       0.01711018
