200
Lattice="13.701078356727438 0.0 0.0 0.0 13.701078356727438 0.0 0.0 0.0 13.701078356727438" Properties=species:S:1:pos:R:3:forces:R:3 energy=-294710.6875 stress="-0.0016124558169394732 -0.00020632239466067404 -0.0003863311285385862 -0.00020632239466067404 -0.002170056803151965 0.00016594296175753698 -0.0003863311285385862 0.00016594296175753698 -0.005560934077948332" pbc="T T T"
N        9.85307409      12.95521561       2.11308294       0.00539303      -0.00006130       0.01365998
N        8.16779352      12.25177878       3.28296813       0.01920772       0.00196818       0.00609139
C       11.23033803      13.13437521       1.62346690      -0.00014776       0.01055798      -0.00362992
C        9.50298836      12.35036713       3.24893676      -0.00130421       0.00993875      -0.00668347
C        8.71724739      13.24215277       1.40102206       0.02322590       0.02295193      -0.03533596
C        7.65751689      12.79936848       2.12888573      -0.04002893      -0.00620142       0.01135629
C       11.63976615      11.99181540       0.71542285       0.00191734       0.01126182      -0.00283399
C        7.39161077      11.63644857       4.34721490       0.00346285       0.00401601      -0.00033623
H       11.27528748      14.09018205       1.09939881       0.00177176       0.00898159       0.00243545
H       11.87449291      13.20682040       2.49860186       0.00201899       0.00651149       0.00005266
H       10.17743422      12.00788380       4.01474745       0.00679906       0.00832002       0.00126265
H        8.75750179      13.73410509       0.44767931      -0.00286727      -0.00435916       0.01251103
H        6.60178731      12.84320381       1.93191336       0.01779317      -0.00023849       0.00285954
H       11.66030119      11.04629327       1.25811648       0.00083046       0.01008900      -0.00529869
H       12.63165668      12.20579315       0.31065834       0.00139472       0.01116631      -0.00286285
H       10.95303390      11.89633409      -0.12717134       0.00135350       0.01353642      -0.00285816
H        8.06184741      11.35408925       5.15504140       0.00793289       0.01041148       0.00370346
H        6.65897341      12.34765555       4.72451268       0.00304694      -0.00010538      -0.00262364
H        6.87726610      10.75224929       3.96930589       0.01318391      -0.00069594       0.00504653
I       14.63779392      14.12026678      -0.50798090       0.02743545       0.01037529      -0.00139034
C        4.63716884      10.84789409       8.76177913      -0.00288574       0.00445671       0.00476888
C        3.28386004      11.17867953       8.73929485      -0.00274512       0.00406238       0.00780039
C        4.99675704       9.56255850       9.16822627      -0.00138840       0.00620937       0.00801754
C        5.68429764      11.83691677       8.34547545      -0.00459620       0.00313750      -0.00212562
C        2.31417875      10.25391130       9.10989483      -0.00122908       0.00506508       0.01339501
C        4.03477841       8.63594954       9.54256204       0.00009528       0.00739807       0.01377069
C        2.68815562       8.97927847       9.51384643       0.00018010       0.00683824       0.01642766
H        2.98584088      12.17358575       8.42733939      -0.00400266       0.00270861       0.00537806
H        6.04403217       9.27940567       9.16083016      -0.00143959       0.00675270       0.00688429
H        6.49512492      11.34886936       7.79995594      -0.00447090       0.00078346       0.00057465
H        5.25911949      12.61951290       7.71463029      -0.00593473      -0.00189619      -0.00700352
H        6.13316579      12.32010452       9.21809595      -0.00487110       0.00950558      -0.00586799
H        1.26634448      10.52492183       9.07628131      -0.00123067       0.00462715       0.01557050
H        4.32837912       7.63242104       9.82418854       0.00112246       0.00891402       0.01737253
H        1.93636168       8.25186019       9.78512466       0.00130833       0.00785290       0.02191422
C        1.07074685      11.00286875       4.77540627       0.00105774       0.00766531      -0.00189563
C        0.43387600      11.42909774       3.61040357       0.00257957       0.01107260      -0.00117934
C        2.06871551      11.81646540       5.31788778       0.00349739       0.00343056      -0.00092447
C        0.69119835       9.70526333       5.41994641      -0.00341746       0.00844130      -0.00334212
C        0.78128320      12.62855665       3.00092429       0.00648881       0.01078342       0.00043428
C        2.41040795      13.02264545       4.71742527       0.00771544       0.00260992       0.00041724
C        1.76789308      13.43241940       3.55442979       0.00913714       0.00620513       0.00131112
H       -0.32852483      10.79446764       3.16737700       0.00050224       0.01462339      -0.00181205
H        2.57080733      11.49975753       6.22361973       0.00206374       0.00094484      -0.00111098
H        0.53849595       9.81223651       6.49563974      -0.00102773       0.00745533      -0.00312763
H       -0.22670465       9.31344823       4.98700368      -0.00568224       0.01301637      -0.00225188
H        1.46535024       8.94725925       5.28634840      -0.00698909       0.00546558      -0.00569666
H        0.33951988      12.93585824       2.05958758       0.00662891       0.01379891       0.00165607
H        3.17760063      13.64791349       5.16093871       0.00986966      -0.00075262       0.00103614
H        2.03311925      14.35755364       3.05720123       0.01191632       0.00609572       0.00282168
C       11.54340845       8.46568731       6.73236503      -0.00243263      -0.00131234      -0.00163485
C       12.37024397       7.34511755       6.65130593      -0.00133209       0.00009294      -0.00307857
C       11.49176485       9.17024771       7.93542803      -0.00342488      -0.00328271      -0.00076781
C       10.70260725       8.89513872       5.56701359      -0.00228927      -0.00030866      -0.00111899
C       13.10600800       6.92155643       7.75250368      -0.00065145      -0.00027459      -0.00397230
C       12.22499487       8.75012945       9.03853222      -0.00277067      -0.00347983      -0.00181462
C       13.02510280       7.61571638       8.95394530      -0.00089585      -0.00183064      -0.00331664
H       12.43095151       6.79775629       5.71666225      -0.00063125       0.00149257      -0.00363043
H       10.86930489      10.05569817       8.00511679      -0.00467563      -0.00443045       0.00054830
H       10.65104268       9.98538706       5.51403511       0.00267692      -0.00036702      -0.00375380
H       11.09234310       8.51267779       4.62359685      -0.00540814      -0.00416626      -0.00063758
H        9.67944901       8.51937369       5.67123259      -0.00364965       0.00498082       0.00138792
H       13.73610048       6.04366996       7.67641655       0.00024548       0.00072868      -0.00509777
H       12.16615505       9.30309850       9.96863827      -0.00349465      -0.00498600      -0.00113755
H       13.57492298       7.27339456       9.82135098       0.00031208      -0.00153441      -0.00437234
C        3.00917902       7.00382753       3.07996456       0.00618942      -0.00814474      -0.00426499
C        3.25806730       8.36911412       3.09518401       0.00638112      -0.00816709      -0.00342502
C        4.09818255       6.12779776       3.08870007       0.00588688      -0.00807557      -0.00975260
C        1.60263834       6.48854487       3.07854865       0.00663456      -0.00845651       0.00092212
C        4.55877562       8.85811284       3.13865259       0.00633908      -0.00876622      -0.00628590
C        5.39267230       6.61588507       3.12632026       0.00602260      -0.00865839      -0.01338233
C        5.63009047       7.98614564       3.15749475       0.00612308      -0.00896595      -0.01091667
H        2.43007053       9.06658966       3.06439718       0.00638430      -0.00826906      -0.00020008
H        3.92893554       5.05651278       3.09840466       0.00556815      -0.00779364      -0.01123103
H        1.41302654       5.85691838       3.95033863       0.01233524      -0.01316710      -0.00156039
H        0.89468100       7.31596828       3.10036010       0.00620483      -0.00941905       0.00969975
H        1.39685251       5.88580247       2.19024090       0.00168360      -0.00368889      -0.00089218
H        4.71045861       9.93025771       3.16531439       0.00697947      -0.00893292      -0.00545015
H        6.21919156       5.92474793       3.17934048       0.00599795      -0.00913109      -0.01890237
H        6.64743501       8.35357687       3.21501156       0.00604263      -0.00905470      -0.01311405
C        7.75525827       3.66481881       3.86361046      -0.00228569      -0.01794474       0.00883869
C        7.09648459       3.71279768       2.63227906       0.00715351      -0.02324614       0.00386152
C        7.42594186       2.63172698       4.73987719      -0.01667580      -0.00701774       0.01550564
C        8.76911654       4.69658195       4.25906132       0.00297979      -0.02218607       0.00540489
C        6.12199873       2.78130768       2.29969958       0.00260128      -0.01865770       0.00491605
C        6.45958666       1.68979069       4.40742743      -0.02161224      -0.00241217       0.01682950
C        5.79291805       1.76524950       3.18985589      -0.01150943      -0.00782761       0.01149932
H        7.32249593       4.50689108       1.93193892       0.01889417      -0.03148557      -0.00123836
H        7.91795152       2.59046719       5.70546868      -0.02479700      -0.00222845       0.01949289
H        9.73686638       4.51060724       3.78884165       0.00090274      -0.02677435       0.00339721
H        8.46460967       5.69715424       3.94830064       0.00649147      -0.02152745       0.00454217
H        8.91549312       4.70137269       5.33782800       0.00525891      -0.02093908       0.00482801
H        5.60441815       2.86549039       1.35150743       0.01090195      -0.02426516       0.00016415
H        6.20701265       0.91066338       5.11769253      -0.03335264       0.00626815       0.02167302
H        5.01501536       1.05336890       2.94113402      -0.01475795      -0.00420500       0.01214084
C        9.50079611       4.61488792       8.10086955      -0.00006498      -0.00878022       0.00350551
C        8.37575150       3.91261453       8.52991508       0.00126719      -0.00957413       0.00509939
C        9.50532759       6.00428433       8.24277854      -0.00349727      -0.00851110      -0.00222454
C       10.69120152       3.90863889       7.51968715       0.00240719      -0.00820281       0.00864258
C        7.29109433       4.57777154       9.08877837      -0.00047693      -0.01018882       0.00158919
C        8.42073672       6.67142895       8.79335096      -0.00521417      -0.00920685      -0.00561199
C        7.30933463       5.95813250       9.22047488      -0.00363430      -0.00982504      -0.00350261
H        8.36020666       2.83164282       8.43884702       0.00382182      -0.00973481       0.00906729
H       10.37660322       6.56262583       7.93010019      -0.00482590      -0.00771593      -0.00420678
H       11.59353399       4.13435247       8.09214070      -0.00193623      -0.01483639       0.01756479
H       10.55093134       2.82797764       7.51328409      -0.00040311      -0.00752111       0.00045874
H       10.88397133       4.23177210       6.49352044       0.01184177      -0.00172560       0.01279756
H        6.42615673       4.01632691       9.41808892       0.00079402      -0.01082630       0.00311073
H        8.45488424       7.75037929       8.89995947      -0.00803893      -0.00862129      -0.01027672
H        6.45902580       6.47559783       9.64573036      -0.00504595      -0.01020002      -0.00631525
C        5.35287014      12.04649393      11.85056310       0.00738768       0.03376262       0.00136078
C        6.19255044      10.93301102      11.78561331      -0.00049403       0.02819932       0.00495026
C        5.94038406      13.30746459      11.97914485       0.01202532       0.03132638      -0.00565438
C        3.86925934      11.95131314      11.74894268       0.00725675       0.04107331       0.00696144
C        7.57589805      11.07074365      11.81144080       0.00007352       0.01958702       0.00148885
C        7.32095304      13.45267859      11.98401229       0.01329977       0.02348278      -0.01212216
C        8.14716409      12.33387035      11.89534362       0.00625202       0.01717331      -0.00753143
H        5.74987342       9.95131208      11.69226667      -0.00746897       0.03114589       0.01103023
H        5.27690377      14.16517865      12.05419151       0.01004955       0.02850018      -0.00595053
H        3.50940720      12.52953386      10.89811834       0.00578833       0.04744823       0.01203114
H        3.52862130      10.92379143      11.63816429       0.00253938       0.04351816       0.00350752
H        3.37672748      12.39178672      12.61645524       0.01340209       0.03888480       0.01150939
H        8.20810105      10.19172147      11.74639584      -0.00585255       0.01542818       0.00528839
H        7.75913645      14.44103675      12.04302040       0.02370710       0.01888405      -0.02081587
H        9.22482100      12.44928204      11.88905865       0.00747494       0.00914153      -0.01031207
C        3.36647971       8.17514392      -0.25117753      -0.00974125      -0.00793168      -0.01434912
C        4.31644882       9.11891001       0.12767955      -0.00958842      -0.00808430      -0.01490682
C        2.01822738       8.52065108      -0.15257351      -0.00935653      -0.00814270      -0.01320437
C        3.79942202       6.81051545      -0.69628452      -0.00979777      -0.00715032      -0.01565783
C        3.93536555      10.36221448       0.60794541      -0.00918527      -0.00832262      -0.01423776
C        1.63445257       9.76832492       0.32605661      -0.00882733      -0.00815195      -0.01310695
C        2.59381856      10.69425080       0.71618972      -0.00895080      -0.00834271      -0.01362908
H        5.36874010       8.86375236       0.07172081      -0.00990671      -0.00815734      -0.01569521
H        1.26200988       7.80279829      -0.45284025      -0.00949840      -0.00785816      -0.01267767
H        3.03387518       6.31910976      -1.29651771      -0.00986145      -0.00690804      -0.01545575
H        4.71769956       6.86278675      -1.28347238      -0.01033735      -0.00666644      -0.01611856
H        4.00567427       6.17654437       0.17158462      -0.00908757      -0.00780624      -0.01658562
H        4.69456225      11.08601954       0.88151376      -0.00898895      -0.00910072      -0.01364829
H        0.58525666      10.03324889       0.38088240      -0.00856824      -0.00816938      -0.01248377
H        2.29482791      11.67731678       1.05402991      -0.00907708      -0.00878960      -0.01310170
C        4.45895215       7.60551198       6.35136745      -0.00851125      -0.00780942       0.00050304
C        5.78786451       7.19716914       6.31225805      -0.01063524      -0.01307021      -0.00289289
C        3.46966620       6.62770129       6.47143291      -0.01208055      -0.00387067       0.00141742
C        4.08864554       9.04549141       6.24194925      -0.00340396      -0.00628221       0.00320978
C        6.12480829       5.85282826       6.35093979      -0.01569450      -0.01426016      -0.00402411
C        3.80146160       5.28069033       6.51414503      -0.01743175      -0.00485656       0.00004658
C        5.13275043       4.88815448       6.44089650      -0.01927803      -0.01011467      -0.00211588
H        6.56988496       7.94703583       6.24845788      -0.00786347      -0.01636821      -0.00437307
H        2.43053860       6.93464083       6.52717391      -0.01056862       0.00019205       0.00348814
H        3.37530160       9.32750936       7.00958018      -0.00272699      -0.00521808       0.00351557
H        4.96287531       9.69018263       6.32626921      -0.00142275      -0.00973428       0.00543159
H        3.62481107       9.24889883       5.28183122      -0.00161886      -0.00261810       0.00308013
H        7.16527931       5.56155945       6.33624926      -0.01710680      -0.01851600      -0.00700467
H        3.02244689       4.53235417       6.59966455      -0.02006020      -0.00164592       0.00095142
H        5.40099248       3.84053921       6.46887031      -0.02370604      -0.01094039      -0.00320939
C        9.41726651       5.86218596      11.93087751      -0.00661230      -0.00550313       0.00104034
C        9.95028591       4.57954786      11.80770951      -0.00695471      -0.00524503       0.00050418
C        8.07226795       5.98601930      12.26980920      -0.00482403      -0.00543821       0.00712458
C       10.28451634       7.06798467      11.73748181      -0.00752851      -0.00605804      -0.00427606
C        9.17097133       3.45483152      12.04429631      -0.00522713      -0.00483144       0.00575475
C        7.28848671       4.86842586      12.51881556      -0.00329894      -0.00513515       0.01192387
C        7.83758651       3.59686076      12.41317232      -0.00352482      -0.00497854       0.01130306
H       10.99479084       4.46568594      11.53877353      -0.00845718      -0.00542595      -0.00458618
H        7.64173337       6.97838721      12.35242156      -0.00473712      -0.00573535       0.00792211
H        9.75404926       7.98348214      11.99992688      -0.01082379      -0.00447431      -0.01717385
H       11.17537491       7.00726195      12.36732241      -0.01255484       0.00128717       0.00308615
H       10.61557920       7.15151925      10.70072581       0.00004310      -0.01563699      -0.00215584
H        9.60974360       2.46970729      11.93716649      -0.00532956      -0.00460023       0.00525142
H        6.24525406       4.98777317      12.78597993      -0.00173992      -0.00500203       0.01678685
H        7.22126160       2.72825395      12.60620419      -0.00205394      -0.00479359       0.01543507
C        9.67599902       8.05461912       1.63332711       0.01102927       0.00107895       0.00269653
C        9.05938012       6.83007885       1.39671322       0.01332030      -0.00088798       0.00749354
C       11.05784784       8.07140078       1.83181432       0.01159519       0.00571834      -0.00548944
C        8.87063040       9.31965740       1.67027256       0.00766163      -0.00132948       0.00714670
C        9.80090983       5.65753272       1.32577615       0.01661681       0.00151555       0.00567973
C       11.79920350       6.89807984       1.78594554       0.01500493       0.00820704      -0.00840316
C       11.17211724       5.68463109       1.52425137       0.01727206       0.00609964      -0.00218028
H        7.98763447       6.80203780       1.23341875       0.01297113      -0.00467184       0.01291440
H       11.56051618       9.01438747       2.01550018       0.00973258       0.00726896      -0.00951413
H        9.39925432      10.14312116       1.18835671       0.00150576      -0.00063187       0.00189865
H        7.90902140       9.19461433       1.17116924       0.00429884      -0.00467884       0.01525213
H        8.66925530       9.61570049       2.70327440       0.01556450      -0.00054137       0.00815168
H        9.30970574       4.72182934       1.09256121       0.01827541      -0.00023434       0.00955140
H       12.86879278       6.93170556       1.93556651       0.01572780       0.01222610      -0.01543556
H       11.74552172       4.76752905       1.46599720       0.01983932       0.00802045      -0.00382824
C       11.50828569      13.03464416       7.53466885       0.00106403       0.00235125       0.00121933
C       10.97229355      13.57218157       6.36273148       0.00471530       0.00417364       0.00067502
C       10.64634105      12.80291880       8.60817996      -0.00205947       0.00252804      -0.00132927
C       12.97408738      12.74505458       7.63974296       0.00012562       0.00077489       0.00527773
C        9.61877807      13.88004742       6.27160604       0.00591447       0.00620597      -0.00240936
C        9.29118843      13.09720271       8.51902975      -0.00090913       0.00420858      -0.00469041
C        8.77238577      13.64178613       7.34952445       0.00285709       0.00594144      -0.00513095
H       11.63384881      13.76416322       5.52332127       0.00722486       0.00405457       0.00278335
H       11.04737372      12.38644177       9.52605585      -0.00484231       0.00144389      -0.00080991
H       13.16749320      11.95151119       8.36116090      -0.00314601      -0.00227413       0.00244518
H       13.39407111      12.45057708       6.67839558       0.00337529       0.00468045       0.00578436
H       13.51950021      13.63261651       7.97194473      -0.00066604      -0.00120133       0.01125515
H        9.22518258      14.32083030       5.36288257       0.00853110       0.00827332      -0.00242560
H        8.64206319      12.90331169       9.36367632      -0.00326117       0.00454853      -0.00653641
H        7.71760603      13.88318323       7.28627906       0.00351512       0.00743413      -0.00762909
