197
Lattice="12.999165906204107 0.0 0.0 0.0 12.999165906204107 0.0 0.0 0.0 12.999165906204107" Properties=species:S:1:pos:R:3:forces:R:3 energy=-186051.609375 stress="-0.003062861505895853 -0.0006149987748358399 0.0002573550445958972 -0.0006149987748358399 -0.0042211138643324375 -0.0002725939702941105 0.0002573550445958972 -0.0002725939702941105 -0.0039001894183456898" pbc="T T T"
N        8.45243711      11.49359970       4.35487622      -0.00377470      -0.00529460      -0.00186326
N        6.30254194      11.66949704       4.50595889      -0.00355905      -0.00427066      -0.00645264
C        9.86718794      11.87559651       4.33329053      -0.00360373      -0.00618416       0.00402611
C        7.46002837      12.26863019       4.77475554      -0.00419993      -0.00486100      -0.00432366
C        7.91970624      10.35119690       3.80569931      -0.00298128      -0.00486684      -0.00302592
C        6.56415874      10.46946581       3.89234064      -0.00292082      -0.00410396      -0.00578061
C       10.67927348      11.23820963       5.44057537      -0.00871959      -0.00796035       0.00630701
C        4.99624583      12.28167008       4.70030311      -0.00344712      -0.00322720      -0.01088420
H       10.27843277      11.56901015       3.37610971      -0.00037631      -0.00498703       0.00526744
H        9.88212201      12.96161518       4.36756769      -0.00313572      -0.00650269       0.00609216
H        7.57720095      13.27015216       5.14221777      -0.00476720      -0.00467340      -0.00517068
H        8.58401048       9.60897809       3.38782778      -0.00267848      -0.00547759      -0.00136443
H        5.75780231       9.84247511       3.55202634      -0.00209164      -0.00369374      -0.00755358
H       10.42923707      11.65531227       6.41704894      -0.01430260      -0.01065545       0.00573985
H       11.73502375      11.40041096       5.22874000      -0.00802910      -0.00593574       0.01210002
H       10.52517050      10.15947685       5.46505939      -0.00732604      -0.00797734       0.00288639
H        5.00287396      13.23342320       4.17687512      -0.00885062      -0.01286244      -0.02751927
H        4.23353891      11.63748689       4.27651793      -0.00472280      -0.01201132       0.00615908
H        4.79464642      12.39772586       5.76400586       0.00301204       0.01536114      -0.01213533
S       11.79442443       9.39858179       2.41641355       0.00085676      -0.00732842       0.00471294
O       10.36306623       9.06960031       2.62519135       0.00162506      -0.01025474       0.00294465
O       12.68695117       8.45898242       3.07647963       0.00134039      -0.00510621       0.00702250
O       12.07372934      10.80733921       2.66935317      -0.00200391      -0.00714779       0.00424406
C       12.04987449       9.18596757       0.66931368       0.00547382      -0.00765768       0.00550687
H       11.25413433       9.67752898       0.11716681       0.00074065      -0.01746486       0.00422409
H       12.99836132       9.63267594       0.39934132       0.00064191       0.00273264       0.00642075
H       12.04178183       8.12232314       0.46264320       0.01815469      -0.00772231       0.00668404
O       11.91567369       1.53193249       4.17132201      -0.00042561      -0.01180805       0.00980869
O       10.21647095       2.78356860       4.88165661       0.01034925       0.00894661      -0.00417027
O       10.66543961       2.66692242       2.66839621       0.01554757      -0.01285580       0.00345397
C       12.03995747       1.58454283       5.60094953      -0.00459713      -0.00348493       0.00964598
C       10.66105949       2.04652904       6.02992592      -0.00200045       0.01061000       0.00124985
C       10.90338936       2.35856081       3.78730057       0.00725625      -0.00413951      -0.00491774
H       12.81144025       2.31254921       5.86311064       0.00025606      -0.00845522       0.00748627
H       12.32864626       0.60374602       5.97020540      -0.01389863      -0.00324690       0.01652029
H        9.97374897       1.21722702       6.20187074      -0.01033244       0.01804161       0.00145855
H       10.64737920       2.69375794       6.90223530      -0.00005598       0.01484439      -0.00235751
O        8.48515467      12.49562870       1.30384537       0.01637641       0.00382736       0.00554036
O        6.96179831      11.04243816       0.58835136       0.01804391       0.00667128      -0.00275941
O        6.30490765      12.99758867       1.50622943       0.01642513      -0.00050443       0.00891033
C        9.23754416      11.49571834       0.58327042       0.01701117       0.00853178      -0.00014245
C        8.23093084      10.36650190       0.42279660       0.01845300       0.00832194      -0.00438349
C        7.17378470      12.24689462       1.17552443       0.01666439       0.00337070       0.00429496
H       10.10505985      11.23081779       1.17985582       0.01828238       0.00763756      -0.00254020
H        9.54618369      11.93448882      -0.36834661       0.01466629       0.01362443       0.00177807
H        8.24199762       9.87466135      -0.54715537       0.01921700       0.01218419      -0.00607491
H        8.33564168       9.60951897       1.19645151       0.01889692       0.00585887      -0.00698024
O        7.44829349       3.75039604       2.67512963       0.00146535       0.00101262      -0.00002287
O        5.88342155       2.68009362       3.84180397      -0.00160173       0.00690168       0.00028586
O        7.88986020       1.71547194       3.51849234       0.00030756       0.00725496       0.01409268
C        6.39846702       4.71249175       2.83152821       0.00122960       0.00164044      -0.00887047
C        5.24350821       3.88471948       3.39416262       0.00057584       0.00623194      -0.00387529
C        7.15190843       2.63246566       3.35566548      -0.00022608       0.00537479       0.00568907
H        6.18272821       5.15666401       1.86111422       0.00212534      -0.00540721      -0.01212832
H        6.74594727       5.47145571       3.53320797       0.00050460       0.00694767      -0.01454315
H        4.75566933       4.34661719       4.25016417       0.00297993       0.01086625      -0.00525507
H        4.50530646       3.62636718       2.63537505      -0.00115031       0.00481762      -0.00127399
O        9.03054246       1.72862695      12.13438613      -0.00605771      -0.01110822      -0.01313498
O        8.34442097       3.79041251      12.62033073       0.00023720      -0.01233724      -0.00152541
O       10.55510283       3.35771425      12.47292777      -0.00215054      -0.01569039      -0.01331105
C        7.61404424       1.71256264      11.91163209      -0.00701599      -0.00803578      -0.00575265
C        7.14011880       3.01332879      12.53721072      -0.00121710      -0.00991857       0.00190261
C        9.42418548       2.99271661      12.42292332      -0.00197047      -0.01281947      -0.00960613
H        7.17999307       0.84643121      12.39460218      -0.00589341      -0.00899422      -0.00679314
H        7.43822586       1.68389806      10.83783350      -0.01276013      -0.00384356      -0.00472385
H        6.41424971       3.55327647      11.93330739      -0.00328007      -0.00626165       0.00812253
H        6.74981362       2.85776631      13.54069493       0.00451677      -0.01364338       0.00324905
O       10.77632039       6.56685849       6.16760758       0.00280894       0.00730060      -0.00004150
O       12.08596097       6.62697781       7.95429671       0.00239820       0.00897010      -0.00024487
O       10.47546543       8.17866857       7.70053975      -0.00649795      -0.00080669       0.00548488
C       11.78857135       5.55531684       5.93230311       0.01079736       0.01673353      -0.00489199
C       12.38971724       5.36944884       7.31169377       0.00979915       0.01366359      -0.00516114
C       11.06531455       7.21381728       7.29694660      -0.00150117       0.00544059       0.00240026
H       12.49174182       5.94886787       5.20132273       0.00780305       0.02724367      -0.00175324
H       11.28509387       4.67979780       5.53794136       0.01892339       0.01483420      -0.01043829
H       11.90659504       4.57718003       7.88601200       0.01232332       0.00896338      -0.00960818
H       13.46699321       5.23852821       7.29210238       0.01007420       0.01831601      -0.00333679
O        3.77543719       8.74154382       3.12655385      -0.02012771      -0.00268291      -0.00612164
O        2.34409330       7.94348585       4.63350165      -0.00969493       0.01704437       0.00875971
O        2.48238187      10.17245971       4.29334970       0.01202977      -0.01863265      -0.00775996
C        4.01632705       7.33178196       3.14207713      -0.02901870      -0.00499599       0.00177816
C        2.83069196       6.78693119       3.93218205      -0.03143322       0.00950730       0.00589180
C        2.80800655       9.05448190       4.05569687      -0.01756179       0.04096895       0.00740734
H        4.97138821       7.15506578       3.64473764      -0.02995485      -0.00713865       0.00265333
H        4.06732906       6.97167890       2.11395158      -0.03351381      -0.01107787       0.00352177
H        2.03179379       6.40550600       3.29620105      -0.04069239       0.02511640       0.00845793
H        3.10702397       6.04812864       4.67684391      -0.03808945       0.00399724       0.00304517
O        5.38335255      12.66467156      11.00562193      -0.01105991      -0.02414632       0.01071826
O        4.98832538      12.47815601       8.82345929       0.00566432       0.01998526       0.00545461
O        3.84808501      13.99842738      10.03523958       0.00659144       0.00539291       0.02460193
C        6.42628305      11.81741928      10.49093305      -0.01232472      -0.02079271       0.00411728
C        5.86058345      11.37980065       9.15709822      -0.00134671       0.01038948      -0.00959194
C        4.65022651      13.11960753       9.96017752       0.00122601       0.00051343       0.01417990
H        6.59289172      11.01187449      11.19847978      -0.02526539      -0.03617033      -0.01121074
H        7.33443837      12.41819198      10.38322326      -0.00727344      -0.02570015       0.02651889
H        6.59504420      11.26087022       8.36600620       0.00549927       0.02434662      -0.00496849
H        5.25202628      10.48291736       9.23594064      -0.00545231       0.01232415      -0.03490669
O        1.85342999      11.53323074       0.98437248       0.00553685       0.00919884      -0.00949079
O        3.93367844      11.35131458       1.73479230       0.00462580       0.00654921      -0.00859402
O        2.61649692      12.99555745       2.51861200       0.00642744       0.00641131      -0.00990093
C        2.36421182      10.30231117       0.43634145       0.00476366       0.01062784      -0.01212551
C        3.85892024      10.47809911       0.59631504       0.00493515       0.00815467      -0.00941824
C        2.77624222      12.04112139       1.81416647       0.00527819       0.00910044      -0.00772840
H        2.02064462      10.22492765      -0.59273363       0.00508791       0.01393470      -0.01212233
H        1.98185844       9.47714651       1.04076417       0.00386958       0.00952899      -0.01488492
H        4.39400891       9.56168271       0.82457282       0.00256805       0.00707260      -0.00934944
H        4.31828865      10.98882062      -0.25016682       0.00707459       0.00845304      -0.00744376
O        1.41383097       9.42997645       7.79546859      -0.00500599       0.01190948       0.00130862
O        2.95424697      10.14156167       9.24053915       0.00029892       0.01192971      -0.00522339
O        1.90812823      11.62435320       7.89575536      -0.00296831       0.01062906      -0.00213772
C        1.78343563       8.26196465       8.53159800      -0.00178367       0.01174614      -0.00123984
C        2.98851079       8.71961115       9.35338469      -0.00198942       0.01259300      -0.00149950
C        2.07211837      10.50873124       8.26768168      -0.00275251       0.01192784      -0.00237706
H        2.02104919       7.46845163       7.82329800      -0.00043572       0.01387650      -0.00275609
H        0.94356002       7.96795687       9.15873068      -0.00039420       0.00880232      -0.00119641
H        2.91618303       8.44148917      10.40384899      -0.00351243       0.01552591      -0.00108844
H        3.93289354       8.35365648       8.94198332      -0.00222301       0.01039742       0.00052281
O        9.83962138       5.96233229      11.27830474      -0.00286308      -0.00416967      -0.00076753
O       10.20299816       8.14243021      11.43090735      -0.00156891      -0.00511277       0.00480364
O        8.14973621       7.33738035      11.83717592      -0.00135362      -0.00513981       0.00460806
C       11.26894920       6.10401133      11.11975731      -0.00351241      -0.00461406      -0.00357288
C       11.42204637       7.59688014      10.87292422      -0.00256604      -0.00389969       0.00261219
C        9.30536263       7.15923829      11.55521545      -0.00180042      -0.00487192       0.00288551
H       11.56440381       5.49477459      10.26991925      -0.00604194      -0.00101706      -0.00678509
H       11.74331532       5.75043330      12.03090242      -0.00171706      -0.00871536      -0.00650549
H       12.26417549       8.05081077      11.38499086      -0.00213981      -0.00698392       0.00407878
H       11.44020661       7.86462855       9.82250037      -0.00249089       0.00017802       0.00382936
O       11.27669683       5.52077079       3.07716779       0.01104756      -0.01030400      -0.00521666
O       10.70193258       6.28051097       1.07534213       0.00780523      -0.00890630      -0.00325382
O       12.81673726       5.60243282       1.43179739       0.01038408      -0.00287065      -0.00579005
C        9.92637938       6.00277966       3.23350184       0.01041780      -0.01319534      -0.00331724
C        9.46380196       6.19973478       1.79823694       0.00877917      -0.01215339      -0.00224489
C       11.70542617       5.78295033       1.83225439       0.00818723      -0.00697462      -0.00422001
H        9.97224930       6.94724548       3.77184010       0.00920811      -0.01394182      -0.00224879
H        9.36132212       5.24964811       3.77931560       0.01221627      -0.01475382      -0.00392137
H        8.89981778       5.35988074       1.40004302       0.00998780      -0.01245582      -0.00266434
H        8.93377416       7.13772166       1.65246924       0.00738032      -0.01290131      -0.00057534
O        9.52323782       4.70947417       8.66653140      -0.00207174      -0.00503758      -0.00291762
O        7.73936610       3.69517528       9.51789647      -0.00152575      -0.00410903      -0.00143619
O        9.60097724       2.50427360       9.10835718      -0.00349885      -0.00520253      -0.00475002
C        8.47058715       5.69601873       8.63346678      -0.00143790      -0.00454485      -0.00126597
C        7.40548183       5.10112487       9.54227419      -0.00073814      -0.00426826      -0.00085390
C        9.01425909       3.54672921       9.10663871      -0.00243777      -0.00480640      -0.00327683
H        8.15824329       5.77313570       7.59556014      -0.00268133      -0.00380364      -0.00066489
H        8.87104247       6.64059413       8.98866958      -0.00059551      -0.00518653      -0.00129750
H        7.46921007       5.46099325      10.56709465      -0.00009035      -0.00469095      -0.00092709
H        6.39115799       5.20223978       9.16460229      -0.00070307      -0.00353058      -0.00027962
O        5.77148439       3.52734992       6.90117742      -0.00612446       0.00111073       0.00330844
O        7.56324857       2.23663617       6.65140689      -0.00601685       0.00350073      -0.00252484
O        7.55570722       4.31163668       5.78711223      -0.00991976       0.00355497      -0.00098777
C        5.37200081       2.23904912       7.42923530      -0.00333184       0.00127095       0.00533605
C        6.69260450       1.48878436       7.52675713      -0.00357474       0.00001276      -0.00389922
C        7.00699992       3.43093404       6.38997500      -0.00809696       0.00219682       0.00027153
H        4.67377669       1.78644444       6.72910847      -0.00890136       0.00249380       0.01045915
H        4.88393388       2.39015547       8.38537646       0.00381893       0.00114556       0.00888222
H        7.12892512       1.50750564       8.52426505       0.00004213      -0.00639846      -0.00571018
H        6.63075444       0.46823111       7.16304321      -0.00570690       0.00239787      -0.00946933
O        2.35932545       5.68108901      11.28505360       0.00747062       0.00536226       0.00822142
O        4.04879478       4.36548158      10.68319912      -0.00055251      -0.00453347       0.00943573
O        4.30754452       5.77984342      12.41578107       0.00848740      -0.00379914       0.00737214
C        1.79280828       4.76045379      10.32874705       0.00198019       0.00631232       0.01078496
C        3.02163812       4.13514380       9.68690669      -0.00208578      -0.00027642       0.01040190
C        3.63260183       5.31549708      11.54426267       0.00491911      -0.00146624       0.00723469
H        1.18254283       5.32833918       9.62989036       0.00385855       0.00753514       0.01025257
H        1.17544305       4.04216894      10.86887782       0.00006139       0.00997990       0.01311451
H        2.94166326       3.06396857       9.52785675      -0.00641379       0.00007391       0.01130743
H        3.31304018       4.63498531       8.76253617       0.00012743      -0.00270993       0.00995788
O        2.02155336       3.81196663       4.33939021       0.01213024      -0.00289437       0.00109781
O        2.35516801       2.38558285       6.00440501      -0.00873354      -0.01066794      -0.00203508
O        2.35700030       4.59114184       6.41772670       0.00828270      -0.01165348       0.00555587
C        1.90792556       2.50465309       3.71059285      -0.00007814       0.00003886      -0.00204116
C        2.37594587       1.55967432       4.80773177      -0.00789526      -0.00620532      -0.00520565
C        2.25386540       3.67012949       5.64810461       0.00408403      -0.01002562       0.00066522
H        2.55188047       2.48473236       2.83906525      -0.00116786      -0.00401880      -0.00247997
H        0.87798556       2.35499735       3.40382832      -0.00161815       0.01027571      -0.00120146
H        1.74403008       0.69310637       4.96573242      -0.01206917      -0.00399163      -0.01067878
H        3.39772258       1.23541476       4.65171759      -0.00875524      -0.00971225      -0.00274975
O       12.00877979      12.34496073       9.58967306       0.01299034      -0.00133640       0.01231824
O       11.10873230      10.35350116       9.97934574       0.00740451       0.00225228       0.01564713
O       13.26963204      10.68798211      10.47088709       0.00874567      -0.00448561       0.01007965
C       10.60123096      12.51203094       9.33271332       0.01392245       0.00272137       0.01186895
C       10.09022992      11.07521868       9.28196966       0.00887185       0.00446397       0.01608299
C       12.23139223      11.10076706      10.04791803       0.01025784      -0.00165534       0.01282945
H       10.48315825      13.05634776       8.39923409       0.01619411      -0.00022803       0.01018000
H       10.17172958      13.10516955      10.14052862       0.01590575       0.00673354       0.00951362
H        9.14891165      10.92187944       9.80695283       0.00957966       0.00912924       0.01798733
H       10.01658080      10.66737078       8.27406917       0.00568672       0.00251205       0.01751041
O        5.08362646       7.90420421       6.31085709      -0.00257096       0.00455662      -0.00352395
O        6.71457768       9.34074828       6.79598305       0.00264859      -0.00309590      -0.00076944
O        4.58548820      10.06718921       6.69223093       0.00803548       0.00323391      -0.00146466
C        6.25322363       7.10148419       6.56608576      -0.00544576      -0.00082099      -0.00887573
C        7.37912061       8.11019692       6.43670938      -0.00186342      -0.00423014      -0.00438042
C        5.38527321       9.18877776       6.60232976      -0.00018537       0.00551683      -0.00147936
H        6.29546360       6.28191499       5.85727705      -0.00911466       0.00380212      -0.01361218
H        6.16102197       6.69943835       7.57587341      -0.00614890      -0.00675777      -0.01161119
H        8.22251654       7.97595168       7.10532588      -0.00336489      -0.00947364      -0.00435501
H        7.74220779       8.20280988       5.41263291      -0.00098851      -0.00186930      -0.00351048
