200
Lattice="13.143170151878492 0.0 0.0 0.0 13.143170151878492 0.0 0.0 0.0 13.143170151878492" Properties=species:S:1:pos:R:3:forces:R:3 energy=-189845.71875 stress="-0.002976241521537304 0.00014882293180562556 0.0010865703225135803 0.00014882293180562556 -0.0017711964901536703 5.414428301264707e-07 0.0010865703225135803 5.414428301264707e-07 -0.0016832334222272038" pbc="T T T"
N        8.82055721       8.47766811       8.76064159       0.00016662       0.00384033      -0.00303228
N        9.86051756      10.36464751       8.52144599      -0.00122194       0.00448257      -0.00444084
C        7.75013796       7.48603547       8.92989371       0.00072756       0.00292122      -0.00489366
C        8.67082811       9.77234933       8.47588592      -0.00012589       0.00284141      -0.00763464
C       10.15516430       8.23557369       8.97017677      -0.00050664       0.00630024       0.00349496
C       10.80716052       9.42179480       8.83130087      -0.00133872       0.00666595       0.00267231
C        7.57878280       6.58979517       7.71769661       0.00618504      -0.00034964      -0.00296634
C       10.12477240      11.77858039       8.27644344      -0.00206617       0.00410360      -0.00784016
H        7.98772535       6.91802530       9.83157550      -0.00201616       0.00549063      -0.00262675
H        6.83890311       8.04038815       9.14184310      -0.00079688       0.00225897      -0.00984963
H        7.75438244      10.25707740       8.18879715       0.00033252       0.00084180      -0.01152041
H       10.49650133       7.25869336       9.25592803      -0.00072463       0.00745327       0.00752004
H       11.83830687       9.69402744       8.96074876      -0.00252678       0.00808781       0.00741188
H        7.33142757       7.15924951       6.82188845       0.00857100      -0.00323023      -0.00527123
H        6.76737474       5.88720501       7.92169308       0.00639309      -0.00045776      -0.00383087
H        8.47959204       6.01134060       7.51232468       0.00725190      -0.00003745       0.00190591
H        9.17516592      12.27037335       8.08069014      -0.00242333       0.00286489      -0.00917092
H       10.60049130      12.22019012       9.16232473      -0.00268844       0.00602269      -0.00842935
H       10.76734338      11.86850480       7.40225406      -0.00188884       0.00350450      -0.00773048
Cl      11.50314940      13.34800110      -2.08578171       0.00107443       0.00410727      -0.00968076
O       12.07938125       0.89661259       3.15534240       0.01046569       0.00454449      -0.01511160
O       13.01933856       2.90794809       3.26107527      -0.00522374       0.01124578      -0.01075512
O       12.24688262       1.94662281       5.14264480      -0.00578794       0.00498852      -0.01477504
C       12.61993628       1.12707003       1.82856761       0.01304004       0.00934100      -0.01285529
C       12.88524989       2.62415445       1.84703275       0.00248799       0.01096123      -0.01105717
C       12.43345021       1.91789645       3.96117750      -0.00051155       0.00691501      -0.01304650
H       11.88909365       0.80787073       1.08699303       0.01776606       0.00472216      -0.01528427
H       13.52584617       0.52786284       1.73016227       0.01769957       0.01625240      -0.01019232
H       13.79317014       2.93271737       1.33998888       0.00226241       0.01736142      -0.00718904
H       12.03893852       3.19998964       1.47181527       0.00014335       0.00502126      -0.01430687
O        9.66010007       3.49358085       2.96232021       0.00080352       0.00073782       0.00479931
O        8.91760872       2.24863431       4.64269110       0.00153536      -0.00094450       0.00343999
O        9.73623789       4.29797364       5.06589821      -0.00327978       0.00038713       0.00446308
C        8.97298837       2.38121575       2.33379807       0.00501782      -0.00111622       0.00402546
C        8.84277451       1.38967150       3.47580277       0.00644508      -0.00173599       0.00382213
C        9.46816931       3.41600245       4.29763997      -0.00029716       0.00048593       0.00472569
H        9.57312399       2.01856829       1.50581288       0.00619897       0.00169919       0.00397620
H        8.00787638       2.74009281       1.97463681       0.00406614      -0.00429061       0.00350367
H        7.89004986       0.86749775       3.49267682       0.00731692      -0.00354020       0.00190915
H        9.67754223       0.69567819       3.52514530       0.00766578      -0.00013277       0.00722957
O        9.50017361      12.71241850       1.15922622       0.00941753       0.00382998      -0.00144181
O        7.85333608      11.23863530       1.30841065       0.00596103       0.00745010      -0.00959013
O        7.55217217      13.11474333       0.11141726       0.01017839       0.01460487       0.00052154
C       10.09321197      11.53204423       1.75831601       0.00629920      -0.00002601      -0.00609694
C        8.86555485      10.77181653       2.22670648       0.00445908      -0.00046533      -0.01215175
C        8.24401488      12.41045394       0.79654196       0.00967357       0.00855806      -0.00247669
H       10.75603405      11.84165821       2.55972402       0.00516641      -0.00480378      -0.00334862
H       10.65371455      11.01083735       0.98477021       0.00703642       0.00281414      -0.00742257
H        8.94320953       9.69613226       2.11536270       0.00231105       0.00029004      -0.01962402
H        8.55149513      11.01978256       3.24076342       0.00418790      -0.00638929      -0.01096970
O        0.94719066       2.69401889      12.01334541      -0.00849521      -0.00223774      -0.00796838
O        1.40214798       2.64817119       9.84717664      -0.01620936      -0.00414628      -0.00918777
O        0.47628683       4.48346168      10.72648144      -0.01780987      -0.00616622      -0.00872992
C        1.44495718       1.34567754      11.78958237      -0.00352845      -0.00028765      -0.00720447
C        1.84510524       1.35067666      10.31887713      -0.01419285      -0.00373566      -0.00988847
C        0.90555596       3.36573032      10.86166771      -0.01503572      -0.00375748      -0.00901838
H        0.62231895       0.65642657      11.97411571       0.00137937      -0.00352558       0.00039027
H        2.28430418       1.18870863      12.46187074       0.00169614       0.00636426      -0.01251981
H        2.91581397       1.28954913      10.15077757      -0.01573867      -0.00489329      -0.01746914
H        1.31600713       0.58960119       9.75589295      -0.01917714      -0.00427282      -0.00407530
O        5.58499643       2.33639341       3.23220591      -0.00298300       0.00307858       0.01137876
O        3.82231476       0.99877050       3.03459791       0.00119579       0.00000438      -0.00043924
O        5.89099619       0.12021941       2.96216222       0.00388032       0.00490272      -0.00272842
C        4.43538475       3.17528380       3.52070809      -0.00585736      -0.00216615       0.01491955
C        3.28127552       2.33967210       3.00453125      -0.00207847      -0.00125437       0.00612412
C        5.16166421       1.06376516       3.07000697      -0.00014850       0.00460553       0.00246691
H        4.53314853       4.10981370       2.98046899      -0.00671962       0.00188193       0.02190951
H        4.39312787       3.33940049       4.59612699      -0.00861369      -0.01003392       0.01585513
H        2.40700355       2.37068646       3.64181616      -0.00410703      -0.00714344       0.00341126
H        3.02702414       2.59063766       1.97454438       0.00096525       0.00436008       0.00697005
O        6.52872168       6.91005188       4.12396442      -0.00278886      -0.00375776      -0.00856010
O        6.57740103       7.87989940       2.12591724       0.00116745       0.00410387      -0.00426039
O        6.13420998       9.12191376       3.94701739      -0.00626884      -0.00381249      -0.00067052
C        6.96340319       5.88345145       3.20257027       0.00098813       0.00032789      -0.01131442
C        6.55657821       6.45282854       1.85315362       0.00386988       0.00510252      -0.00982869
C        6.39888447       8.06847423       3.44270723      -0.00276044      -0.00216091      -0.00434619
H        6.45765602       4.95798841       3.46324018       0.00141148      -0.00122580      -0.01666804
H        8.04002405       5.75825580       3.32461180       0.00060821       0.00103847      -0.00864752
H        7.23719358       6.24238826       1.03369720       0.00572309       0.00924800      -0.00917077
H        5.54445300       6.17802460       1.55717222       0.00496429       0.00484620      -0.01259954
O        9.54332926       4.34608071      10.26996455      -0.00074229       0.00666429      -0.00012851
O        9.75081946       4.12377310      12.47376412      -0.01137716       0.00257003       0.00006597
O        8.19794373       5.51978780      11.64258640      -0.00645101       0.00710952      -0.00449806
C       10.43633934       3.20712813      10.45084923      -0.00243077       0.00591099       0.00135851
C       10.81779365       3.30981112      11.91311987      -0.01198718      -0.00033189       0.00402275
C        9.08580365       4.73642907      11.47642830      -0.00417924       0.00391388      -0.00210790
H       11.27758852       3.31856244       9.77349912       0.00201565       0.00843929       0.00775939
H        9.90096202       2.28563396      10.23141091      -0.00088668       0.00704253      -0.00627564
H       10.82510620       2.33208652      12.38709348      -0.01930700      -0.00174451       0.00123285
H       11.75909675       3.83437147      12.06764737      -0.01046076      -0.00538391       0.01150597
O       11.38960166       9.30618515       5.85344520       0.00906703      -0.00588441       0.00389770
O       10.04312444       7.53667906       5.73869641       0.00589603      -0.00281055       0.00001471
O        9.21017251       9.59409282       5.38466781       0.01191103      -0.00144410      -0.00912365
C       12.26565515       8.18484927       6.04879367       0.00535619      -0.00733936       0.01092783
C       11.31982591       6.98210341       6.09326723       0.00299752      -0.00530052       0.00604773
C       10.13445386       8.87613751       5.63091465       0.01061469      -0.00430238      -0.00200185
H       12.81380232       8.33489035       6.97767715      -0.00052957      -0.00743309       0.01425773
H       12.94785308       8.14434921       5.20740447       0.01110202      -0.00962200       0.01571277
H       11.57243306       6.21071076       5.37602552       0.00492049      -0.00574198       0.00715292
H       11.23209555       6.53882859       7.08398254      -0.00272105      -0.00551066       0.00531289
O        1.06723788       7.35644102       2.18448943       0.00016555      -0.01339370      -0.02064320
O        3.16515234       7.38888854       1.44585134       0.00163740      -0.00247924      -0.01433512
O        1.53265161       6.47550133       0.17440447       0.01197875       0.00083399      -0.01463032
C        1.78862817       8.08887293       3.18658738      -0.00575733      -0.01189850      -0.01725513
C        3.24520274       7.86056703       2.79901822      -0.00414944      -0.00915314      -0.01169013
C        1.89743657       7.01819682       1.17140362       0.00044307      -0.01099965      -0.02971035
H        1.55376343       7.65523658       4.15519263      -0.00921757      -0.01330663      -0.01936466
H        1.48291481       9.13261143       3.13352808      -0.00760537      -0.01290470      -0.01913319
H        3.84284600       8.76800734       2.81715259      -0.00516418      -0.00902167      -0.00511950
H        3.71089351       7.08592140       3.40788334      -0.00657336      -0.01178318      -0.01371467
O        4.19885656      10.48938287       9.94306614       0.00365534      -0.00056052      -0.00275449
O        4.76671117      12.29816414      11.10192722      -0.00141472       0.00070728      -0.00323395
O        2.59127688      11.85520859      10.73543412       0.01561666      -0.00394632      -0.01229277
C        5.59606472      10.32525836      10.26495465       0.00247058       0.00024700       0.00046124
C        6.00990166      11.73912788      10.62190893       0.00060713       0.00074083       0.00315972
C        3.74292292      11.56725116      10.61032258      -0.01968777       0.00508015      -0.00400981
H        6.08931820       9.94595250       9.38079234       0.00476408       0.00235047       0.00188670
H        5.68231762       9.61277430      11.08192820       0.00032463      -0.00008669       0.00007325
H        6.75155229      11.81232221      11.41244157      -0.00400645       0.00028932       0.00656238
H        6.32478569      12.32198853       9.75207149       0.00450232       0.00080767       0.00508070
O        4.11758834      10.07029376      -0.25660298       0.00459450       0.00742801       0.00215670
O        2.69311155      10.62985489       1.35392858       0.00121660       0.00069246      -0.00036898
O        1.96347022       9.47085187      -0.43400239       0.02749693       0.01364893       0.01166320
C        4.93939930      10.64636360       0.77759929       0.00187784       0.00921996       0.00349732
C        3.91629839      11.33011665       1.66549399      -0.00179651       0.00464594       0.00314108
C        2.84328641      10.00766531       0.16261761      -0.01873589      -0.01114887      -0.01612777
H        5.63817783      11.34086941       0.32474645      -0.00080693       0.01178205       0.00486021
H        5.48318604       9.84506623       1.27157609       0.00334716       0.01036298       0.00290877
H        4.12572030      11.23976136       2.72731471      -0.00357594       0.00313669       0.00253686
H        3.77727493      12.37763676       1.41203418      -0.00552209       0.00384837       0.00390156
O        4.24953029       2.73686994      12.68975178      -0.00128259       0.00095293       0.00834304
O        6.05656796       3.90007160      13.25834516       0.00297233      -0.00540109       0.00631564
O        4.02849456       4.58281096      13.95369072       0.00752956      -0.00435865       0.01568437
C        5.38167364       1.91285461      12.31209692      -0.00503209       0.00095528      -0.00149511
C        6.51192942       2.91360037      12.30279457      -0.00227165      -0.00205451       0.00053984
C        4.71561073       3.81920916      13.33974118       0.00273788      -0.00243133       0.01121110
H        5.17956234       1.47705554      11.34330506      -0.01022320       0.00775139      -0.00328791
H        5.51656514       1.13921089      13.06641609      -0.00414585      -0.00407386      -0.00691718
H        7.45500442       2.49859470      12.64586197      -0.00317869      -0.00683178      -0.00354856
H        6.62503541       3.40950925      11.33925218      -0.00344024       0.00234225       0.00276864
O        3.97735634      11.72678852       6.36202722       0.00589859       0.01209393      -0.00520352
O        5.79409293      10.70600329       7.12942684      -0.00007798       0.00684199       0.00090954
O        5.84990063      12.92242067       6.74111863       0.00804725       0.00582856       0.00011528
C        3.54741277      10.38142762       6.65998279       0.00087762       0.01324274      -0.00747891
C        4.85833257       9.63453754       6.86882316      -0.00243677       0.00948352      -0.00130442
C        5.25731336      11.88396003       6.73731277       0.00500265       0.00843519      -0.00133172
H        2.97192387      10.01513618       5.81241726       0.00429271       0.01511289      -0.01043621
H        2.93326583      10.41063230       7.55970625      -0.00355303       0.01498880      -0.01080659
H        4.83624095       8.98065170       7.73916718      -0.00806099       0.01129702      -0.00037494
H        5.20520103       9.10851041       5.98076605      -0.00073490       0.00717106       0.00103009
O       10.42747499       7.50648304      11.79623514       0.00662099      -0.00468218       0.00461354
O       11.50636245       9.44581847      11.89228512      -0.00743234       0.00235938       0.00632439
O        9.26209982       9.43185341      11.81948570      -0.00972986      -0.01144159       0.00475873
C       11.81504200       7.12807111      11.82266950       0.00958155       0.00554383       0.00384277
C       12.55417808       8.45686414      11.95655330      -0.00045836       0.00963157       0.01052993
C       10.31196998       8.85777002      11.84568783       0.00189424      -0.00773320       0.00531880
H       12.05212950       6.57825516      10.91148173       0.01383801       0.01157086       0.00115067
H       11.99553263       6.46594744      12.66709231       0.01373060       0.00233573       0.00033244
H       13.07519218       8.56600618      12.89776291      -0.00670481       0.01169749       0.01387084
H       13.26440392       8.65137872      11.15710106       0.00312072       0.01609287       0.01551342
O       10.79418860       8.25511199       1.36260718       0.00583161      -0.00481841       0.00477413
O       11.59945716       7.49667045       3.28299551       0.00918622      -0.00050122       0.00493724
O       12.14227101       9.57225899       2.60695546       0.00723577      -0.00154656      -0.00058015
C       10.06278097       7.04228001       1.64844942       0.00756174      -0.00486663       0.00712505
C       10.97223174       6.36319671       2.64871305       0.00787339      -0.00198400       0.00871325
C       11.57608251       8.53777441       2.43018476       0.00676394      -0.00300044       0.00256791
H        9.89951211       6.50215807       0.72132795       0.00895268      -0.00707614       0.00829419
H        9.10690520       7.33414344       2.08572451       0.00715780      -0.00503804       0.00595403
H       10.45993727       5.78570592       3.41099861       0.00761330       0.00085227       0.01057196
H       11.75388498       5.76710666       2.17373010       0.00715929      -0.00388205       0.01037483
O        5.64405142       3.08942677       7.29679656      -0.00608468      -0.00529397      -0.00388002
O        7.03668366       2.00343465       8.64578528      -0.00928596      -0.00165394       0.00188631
O        4.88082489       2.25107006       9.23350135      -0.01030058      -0.00248498      -0.00545961
C        6.84296420       2.90363430       6.51561627      -0.00373176      -0.00452506      -0.00012010
C        7.86498590       2.47301145       7.55778227      -0.00677931      -0.00568782       0.00236885
C        5.77668830       2.41912130       8.45679194      -0.00974828      -0.00327034      -0.00200054
H        7.09257309       3.84614459       6.03426510      -0.00223769      -0.00423038       0.00165983
H        6.64476155       2.12972344       5.77890086      -0.00149595      -0.00359726      -0.00139159
H        8.49746819       1.65747701       7.22352427      -0.00908338      -0.00819340       0.00450560
H        8.47439469       3.29953109       7.92377120      -0.00480938      -0.00722712       0.00187559
O        4.19789245       7.44563522       9.78683858       0.00017846      -0.00190149       0.00930518
O        4.50812405       5.42583885      10.67635876       0.00434077      -0.00007513       0.01100389
O        5.55610448       7.21320552      11.57352551       0.00970507       0.00391042       0.00901866
C        3.19161333       6.60635742       9.19410399      -0.00160766      -0.00371078       0.01446159
C        3.71553411       5.21385896       9.49109450       0.00146000      -0.00202739       0.01335065
C        4.82025884       6.73514650      10.77096130      -0.00166959      -0.00356692       0.00243455
H        3.13130279       6.83150841       8.12983797      -0.00720637      -0.00426021       0.01422742
H        2.23715941       6.80500107       9.68416984       0.00042731      -0.00479691       0.01859421
H        2.94459334       4.48636508       9.71754744       0.00305349      -0.00372374       0.01540749
H        4.36456322       4.83240490       8.70231599      -0.00028533      -0.00144447       0.01143798
O        0.90203744       5.41395299       5.86205477       0.01329929      -0.00107098       0.04330194
O        2.08860323       3.55447415       5.61588653      -0.03022482      -0.01991040      -0.00182024
O        2.29665541       5.19576564       4.10425147      -0.00693014       0.00269979       0.02446604
C        0.41501060       4.52416418       6.89699548      -0.00437433      -0.01744965       0.02095136
C        1.42803655       3.38652276       6.88655015      -0.00793305      -0.01692486       0.01020515
C        1.80096654       4.75655201       5.10085611      -0.00868750      -0.00616761       0.02411634
H       -0.58287679       4.18968092       6.61538838      -0.00026187      -0.00940247      -0.00100678
H        0.39476623       5.07178216       7.83722975      -0.01657312      -0.03553800       0.03026515
H        2.17720682       3.45897327       7.66982583       0.00647095      -0.01185900      -0.00453427
H        0.95895008       2.40861790       6.89690795      -0.00605205      -0.01718202       0.02207206
