195
Lattice="12.766589673920485 0.0 0.0 0.0 12.766589673920485 0.0 0.0 0.0 12.766589673920485" Properties=species:S:1:pos:R:3:forces:R:3 energy=-168042.15625 stress="-0.002718269359320402 -0.0003923144831787795 0.0001610337567399256 -0.0003923144831787795 -0.003827837761491537 0.0007050998683553189 0.0001610337567399256 0.0007050998683553189 -0.004397354554384947" pbc="T T T"
N       10.16723229      11.08816379       2.09245091       0.00021270      -0.00023784       0.00049518
N        8.38229497      10.16374487       1.30703710      -0.00066870       0.00717857      -0.00464962
C       11.37143007      11.73151970       4.15916756      -0.00010633      -0.00280100      -0.00024199
C       10.70653530      10.75765364       5.11777807      -0.00361040      -0.00030774      -0.00089768
C       11.47868453      11.25260923       2.72660141      -0.00008595      -0.00502766       0.00118249
C       10.78217212      11.28125953       6.54524308      -0.00268133      -0.00046289      -0.00161329
C       10.22044835      10.32167526       7.58146490      -0.00387175       0.00128067      -0.00137747
C        9.51809185       9.93800005       1.97112453      -0.00292030       0.00216663      -0.00358984
C        9.42904844      12.07703229       1.49403983       0.00427708       0.00311613       0.00155485
C       10.22377714      10.93276234       8.97387230      -0.00070427       0.00302777      -0.00275010
C        8.30421374      11.50176771       0.99821122       0.00420976       0.00762475      -0.00222042
C        7.38660080       9.15910197       1.00089909      -0.00177822       0.01019850      -0.01066113
H       10.84404855      12.68279355       4.18869691       0.00283089      -0.00142890      -0.00161816
H       12.38942836      11.94626014       4.49515972      -0.00008491      -0.00549171       0.00099896
H       11.17516575       9.76922022       5.04941648      -0.00646968      -0.00152522      -0.00051255
H        9.65492992      10.61834173       4.84020735      -0.00366393       0.00292934      -0.00178038
H       11.97701944      10.28737728       2.67740265      -0.00417134      -0.00703165       0.00322961
H       12.03859396      11.93564961       2.08878512       0.00272839      -0.00891039      -0.00013015
H       11.82643329      11.50471095       6.79389368      -0.00231761      -0.00259252      -0.00192020
H       10.24814855      12.23480934       6.60574954      -0.00035548       0.00065041      -0.00150370
H        9.20209146      10.04577436       7.28052008      -0.00452951       0.00321771      -0.00001848
H       10.81098973       9.40143131       7.56559440      -0.00573260       0.00022188      -0.00157304
H        9.80219419       8.99341046       2.40126337      -0.00470735      -0.00014999      -0.00778572
H        9.76544643      13.09321169       1.44893019       0.00776153       0.00190434       0.00493085
H        7.48570036      11.94061410       0.45557388       0.00721058       0.01100962      -0.00408775
H        9.57230693      11.80619139       9.02351043      -0.00076056       0.00271907      -0.00305514
H        9.92193299      10.24674127       9.76700903       0.00248596       0.00506881      -0.00002943
H       11.23138434      11.25346409       9.24208223      -0.00017659       0.00471070      -0.00744509
H        7.23010906       9.10902550      -0.07662628       0.00179468       0.01361244      -0.01121470
H        7.74526140       8.19952213       1.36725660      -0.00484733       0.00878522      -0.01224698
H        6.45271191       9.40853303       1.50158483      -0.00252080       0.01057487      -0.01321128
O       12.52932708      12.31221999      -0.15870709      -0.02464724      -0.03658485       0.01339614
O       11.31786766      10.46132127      -0.60729383      -0.03501236      -0.02454042      -0.00296615
C       11.60438865      11.67816242      -0.72539916      -0.01948404      -0.02825284      -0.00298512
H       10.94421443      12.27010937      -1.39830731       0.00179470      -0.02430540      -0.02032995
O        3.12056670       7.94549440       6.08226633      -0.00475125       0.00765099       0.00760543
O        1.93113059       9.66437898       6.81851518       0.00028560       0.01204851       0.00454181
O        3.90595533       9.17382352       7.77937415      -0.00368351       0.00507545       0.00865901
C        1.91361361       7.89812460       5.29102753       0.00027284       0.01592022       0.00012228
C        1.17404670       9.17097203       5.69243162      -0.00055107       0.01394647       0.00485457
C        3.04714509       8.96528162       6.95997873      -0.00297672       0.00773054       0.00629568
H        1.37916257       6.99008397       5.54985595      -0.00279343       0.01503414      -0.01026802
H        2.18554510       7.88008723       4.23744186       0.00657175       0.02414191       0.00184378
H        1.19516587       9.93252046       4.91984894      -0.00315458       0.01552173       0.00658101
H        0.16613831       8.97915004       6.03477224       0.00027969       0.01155810       0.00583199
O        5.07774939       0.38137290      11.97305179      -0.01591066      -0.00121178      -0.00384622
O        5.53471864       1.91790758      10.43789089      -0.01643685       0.00844419       0.00608912
O        7.20168520       0.68935260      11.32703948      -0.01568305       0.00723380       0.00232350
C        3.78749223       0.92031566      11.61816159      -0.01578411      -0.00044399      -0.00213936
C        4.09522015       1.80563434      10.41086577      -0.01574379       0.00177667      -0.00001717
C        6.04031460       0.96544602      11.24948920      -0.01621711       0.00526412       0.00174717
H        3.41375987       1.47289896      12.47890737      -0.01513031      -0.00192222      -0.00116479
H        3.13118271       0.08674737      11.37649256      -0.01577780       0.00016934      -0.00337356
H        3.82222880       1.35430635       9.45845990      -0.00964331       0.00086454      -0.00114810
H        3.67871623       2.80659932      10.49208880      -0.02088779      -0.00058958      -0.00123491
O       11.37352706       6.54699481       2.08092511       0.00809414       0.00111716      -0.00373432
O       12.81561526       8.21256218       2.34563035       0.00732656       0.00047688       0.00076675
O       12.19500106       6.99201027       4.12093602      -0.00203739       0.00336719       0.00231171
C       11.47339202       7.14303776       0.77017144       0.01217261       0.00130376      -0.00324023
C       12.55273780       8.20681957       0.91942842       0.01132566       0.00084475       0.00017235
C       12.13907163       7.22390415       2.94374880       0.00383308       0.00242093      -0.00541753
H       10.49848397       7.56606877       0.52831304       0.01340196       0.00209461      -0.00595485
H       11.72522317       6.35526840       0.06612150       0.01397642       0.00134471      -0.00281477
H       13.47175180       7.92626673       0.41380523       0.01273328       0.00162745       0.00249751
H       12.23027382       9.20018275       0.59213976       0.00905043      -0.00017613      -0.00014088
O       13.19483887       2.97709611       3.17840790       0.00463420      -0.00797831       0.00425810
O       11.31434968       1.81996882       2.94847834       0.00138806      -0.00036860      -0.00434566
O       12.27322220       1.98114693       4.97443073      -0.00755002      -0.00410369       0.00233412
C       12.75988127       3.22243827       1.81534724       0.01178685      -0.00615150       0.00222443
C       11.72263532       2.14102287       1.59456917       0.00887272      -0.00191039      -0.00238389
C       12.27466278       2.23523437       3.80463731      -0.00106188      -0.00300288      -0.00365740
H       13.62403524       3.14747608       1.16394770       0.01491576      -0.00880363       0.00664440
H       12.35172408       4.22756182       1.76684302       0.01604064      -0.00465852       0.00027464
H       10.84475061       2.48302479       1.06083517       0.01280072       0.00157723      -0.00613002
H       12.11958486       1.24380400       1.11424103       0.00600538      -0.00406557      -0.00032812
O        8.13271254       1.18349651       3.79468501      -0.00397374      -0.00057094      -0.00368860
O        8.16323257       3.29016633       3.07901684      -0.00753688       0.00055932       0.00112227
O        7.41331684       1.66560591       1.72155387      -0.00375360       0.00218648      -0.00378072
C        8.57399251       1.93451474       4.94450602      -0.00690077      -0.00210649      -0.00184304
C        8.74453796       3.35076421       4.39125480      -0.00608754      -0.00179410       0.00043984
C        7.85602871       2.00649879       2.77873137      -0.00411603       0.00135246      -0.00061768
H        9.51052310       1.51246313       5.30116135      -0.00776520      -0.00243640      -0.00029074
H        7.81244442       1.85334239       5.71652876      -0.00854078      -0.00329972      -0.00383762
H        8.21066093       4.10894366       4.96170229      -0.00468203      -0.00216725       0.00196919
H        9.78985697       3.63384133       4.28092629      -0.00603157      -0.00282158      -0.00029012
O        5.21854331       3.02356671       3.58563880      -0.00968496      -0.00166492      -0.00969671
O        3.32753587       4.04007458       3.00442763      -0.00814575       0.00117257      -0.00753124
O        3.86555567       2.06821876       2.05146515      -0.01170711       0.00186282      -0.00858134
C        5.26817033       4.32750736       4.19489384      -0.00858450      -0.00333187      -0.00664307
C        3.81224735       4.75199220       4.16248761      -0.00793731      -0.00184855      -0.00600308
C        4.11083054       2.95072183       2.81516593      -0.01015308       0.00001603      -0.00904906
H        5.91850343       4.96504436       3.58764762      -0.00780226      -0.00275332      -0.00469986
H        5.68274169       4.21818995       5.19086749      -0.00920881      -0.00634637      -0.00696981
H        3.26535228       4.41011790       5.04059463      -0.00813881      -0.00335652      -0.00699702
H        3.65202141       5.81430620       3.99823777      -0.00691733      -0.00155601      -0.00346723
O       10.70625223       1.41701103       9.78128412      -0.00256139       0.00613325       0.00415713
O       11.17984645       2.00308873       7.69631154       0.00589046       0.00125775       0.00507584
O        9.08094607       1.41757434       8.22236925       0.00384080       0.00012466      -0.00286049
C       12.14160256       1.54114918       9.74836854      -0.00310051       0.01095012       0.01161885
C       12.38438717       2.27806276       8.43767682       0.00206831       0.00490052       0.00915080
C       10.21803454       1.60410314       8.54951659       0.00415200       0.00253768       0.00205158
H       12.57011167       0.53807632       9.76858186       0.00006805       0.01249433       0.01976071
H       12.45225473       2.08973573      10.63285939      -0.01062625       0.01831567       0.00960234
H       12.45895970       3.35701460       8.57636146       0.00143116       0.00538796       0.00411389
H       13.22778744       1.91294906       7.85666272       0.00491509       0.00239316       0.01491088
O        9.31121312       3.12386203      12.19030619       0.01161703       0.00018305      -0.00262735
O        9.40750632       5.34485591      12.14918783       0.01162645      -0.00026755      -0.00097620
O       11.31266472       4.14464977      12.08627390       0.00372291       0.00081858      -0.00261369
C        7.94375363       3.54983715      12.03462963       0.01175931      -0.00000918      -0.00185511
C        8.02589081       5.03255686      12.37008787       0.01193029      -0.00014615      -0.00011988
C       10.11918923       4.18318971      12.12732567       0.02131987       0.00047345      -0.00263792
H        7.34023610       2.96966546      12.72521814       0.01259002      -0.00046587      -0.00269878
H        7.65493511       3.35493522      11.00407888       0.01227382       0.00086458      -0.00174242
H        7.43385011       5.66415747      11.70978081       0.01224042       0.00028433       0.00121154
H        7.79033369       5.23933841      13.41689702       0.01364492      -0.00185911      -0.00004870
O       10.72505515       6.84566620       6.84176802       0.00176232      -0.00096324      -0.00332053
O       12.49605113       5.50479303       6.81514432       0.00076634      -0.00149907      -0.00831383
O       12.65197862       7.53102524       7.75766645       0.00401044      -0.00250155      -0.00711554
C       10.27446774       5.68951055       6.11203254      -0.00028318       0.00007775      -0.00325273
C       11.51723628       4.80362001       6.01796766      -0.00130133      -0.00061494      -0.00595847
C       12.01538897       6.69376517       7.18172665       0.00200593      -0.00211358      -0.00673029
H        9.91562978       6.03080974       5.14599977      -0.00157146       0.00054075      -0.00245136
H        9.47184001       5.23095413       6.68724387       0.00039747       0.00034788      -0.00241697
H       11.38009614       3.81224392       6.43415530      -0.00073941      -0.00056213      -0.00584108
H       11.91153564       4.74575934       5.00798008      -0.00378275      -0.00075021      -0.00678021
O        3.17662651       6.85624008       1.71359805       0.00915501      -0.00096941      -0.00546119
O        3.38453513       5.26202411       0.17002405       0.01248169       0.00026730      -0.00438422
O        1.35705506       5.73176056       1.01860957       0.04234344       0.00349591      -0.00958632
C        4.54609311       6.92723066       1.29414862       0.01078272      -0.00011444      -0.00408584
C        4.72691208       5.64736621       0.47981612       0.01272976       0.00235128      -0.00266459
C        2.53067654       5.92219377       0.97917703      -0.03155869      -0.00782683      -0.00500327
H        5.17773374       6.97522013       2.18035154       0.00635611      -0.00027868      -0.00176924
H        4.67258436       7.82603612       0.69098435       0.00790591       0.00070930      -0.00136909
H        5.25361468       5.81561067      -0.45570536       0.01012632       0.00294618      -0.00333512
H        5.20085808       4.83906511       1.03952626       0.01058632       0.00151685      -0.00433350
O        5.22885138      11.72517206       9.56386141      -0.00673243       0.01024917      -0.00806645
O        6.50671644      11.12095396       7.84688952       0.00089133       0.00729400      -0.00075508
O        5.17395198      12.93463193       7.67158761       0.00505769       0.00800741      -0.00812078
C        6.04099508      10.66213311      10.07933928      -0.01113795       0.00941829      -0.00298667
C        6.69757523      10.09193254       8.82690492      -0.00515205       0.00800696       0.00107768
C        5.59319117      12.01193583       8.29486917      -0.00024694       0.00963956      -0.00663787
H        5.39039699       9.95569791      10.58740008      -0.01465157       0.01088864      -0.00628896
H        6.76852903      11.09786100      10.76667461      -0.01452371       0.00901884       0.00041780
H        7.76515253       9.94131761       8.94300907      -0.00611988       0.00674614       0.00672603
H        6.20526375       9.18497179       8.47715773      -0.00471237       0.00867197      -0.00053738
O        2.09291677      11.06009475       2.59860318       0.01104955      -0.02394564       0.01995063
O        4.23045286      10.51322730       2.33996998       0.01238767      -0.00587906      -0.00376210
O        3.36059275      10.62396438       4.40730951       0.02655539      -0.04109812       0.00349998
C        2.27921880      10.86800763       1.16548217       0.00229383      -0.00090773       0.01577127
C        3.77914353      10.98490707       1.04212359       0.00042695       0.01314490       0.00685418
C        3.23105072      10.73277033       3.22054646       0.01769089      -0.02568452       0.00666660
H        1.67650062      11.59881989       0.62863119      -0.00623164       0.00226596       0.03052518
H        1.92610784       9.86792152       0.91852748       0.00884707       0.00012070       0.00283924
H        4.19801146      10.35045833       0.26798357      -0.00045658       0.02931333      -0.00683188
H        4.12799397      12.00763627       0.93114128      -0.00864533       0.01800251       0.02303432
O        1.84784088       8.27087811      10.01040139      -0.00728217      -0.00974479       0.01017548
O        3.89524540       7.90539090      10.80339220      -0.00249737      -0.00433204      -0.00044231
O        2.90371885       9.89311805      11.15749973      -0.00711542      -0.00925481       0.00769734
C        2.13423377       6.89243380       9.68614318      -0.00441074      -0.00854105       0.00732709
C        3.63067914       6.79009820       9.92735597      -0.00275981      -0.00296408      -0.00170547
C        2.87170466       8.79751476      10.68178116      -0.00548929      -0.00692481       0.00638050
H        1.83678861       6.72219847       8.65748460      -0.00983195      -0.00843854       0.00886336
H        1.54590182       6.25971616      10.35199596       0.00250116      -0.01120099       0.01056013
H        3.91964497       5.87092586      10.42701840       0.00400563      -0.00235292      -0.00541699
H        4.20809615       6.93206874       9.01597786      -0.00851834       0.00209713      -0.00447488
O       11.00709481       6.21565963       9.80392671       0.00253811       0.00211763      -0.00467025
O        8.82891309       6.33350667       9.37881613       0.00155941       0.00442696       0.00337020
O        9.89205575       4.37077616       9.17348100      -0.00125495       0.00369781      -0.00084147
C       10.66469250       7.58604971      10.10440883       0.00544432       0.00255036      -0.00387132
C        9.22400484       7.69722356       9.61415910       0.00353625       0.00379318       0.00283263
C        9.92071436       5.54060407       9.43519218       0.00093889       0.00370312      -0.00079590
H       11.36179294       8.22837965       9.57664114       0.00353283       0.00125691      -0.00746304
H       10.75656939       7.74125235      11.17413994       0.01089894       0.00371583      -0.00465894
H        8.55360800       8.12382167      10.35905459       0.00749995       0.00371683       0.00608981
H        9.13962853       8.23330779       8.67296133      -0.00033708       0.00469595       0.00385788
O        7.31627624       9.07064375       4.07518514      -0.00331053      -0.01345378      -0.00608304
O        7.24363045       7.18794183       5.25115130       0.00134581      -0.01125500      -0.00282158
O        8.84370649       7.46757078       3.69242732      -0.01527810      -0.01942168      -0.02022395
C        6.26038921       9.27953163       5.05438892       0.01051256      -0.00684595       0.00685290
C        5.98799121       7.86271659       5.51677547       0.00767750      -0.00481790       0.01057154
C        7.88930859       7.88021693       4.29390938      -0.00487667      -0.01592830      -0.01165870
H        5.41549151       9.75411845       4.56412748       0.00688022      -0.00300592       0.01763912
H        6.64489864       9.92597578       5.84075368       0.02447598      -0.00922897       0.00170529
H        5.74512932       7.77759819       6.57042882       0.01877060      -0.00311336       0.01318616
H        5.21383389       7.37424139       4.92613431      -0.00127921      -0.00070211       0.01942524
O        5.96621911       3.08311492       7.10768872      -0.00078940       0.00756997      -0.00464090
O        4.84974104       4.39275388       8.51429238      -0.00014070      -0.00732416       0.00903031
O        3.71036935       3.12456008       7.04314604       0.00047994       0.00902790      -0.00364029
C        6.96221173       3.60367165       8.01658861      -0.00125647      -0.00445923       0.00256378
C        6.23091898       4.77105695       8.65026492      -0.00003742      -0.01000053       0.01348978
C        4.74664629       3.47898327       7.51261853      -0.00148147       0.00322202      -0.00065327
H        7.84086301       3.88903424       7.44722515       0.00027034      -0.00014473       0.00744821
H        7.23230373       2.81846593       8.71610333      -0.00458009      -0.01216480      -0.00503314
H        6.45424467       4.90889098       9.70378823      -0.00070242      -0.02111633       0.01490676
H        6.39152753       5.71069319       8.11631164       0.00107165      -0.00516906       0.02288997
