186
Lattice="12.771857033694905 0.0 0.0 0.0 12.771857033694905 0.0 0.0 0.0 12.771857033694905" Properties=species:S:1:pos:R:3:forces:R:3 energy=-156893.21875 stress="-0.0020589728374034166 -0.00017969311738852412 -0.00033637498563621193 -0.00017969311738852412 -0.0019016211153939366 0.0004030679410789162 -0.00033637498563621193 0.0004030679410789162 -0.0020928271114826202" pbc="T T T"
N        8.19155937       9.96748237       2.18812845       0.00912344      -0.00111586      -0.01005223
N        9.31149416       8.27199153       1.42799733       0.00580770      -0.00181007      -0.00547799
C        8.03560111      11.39403908       4.22146548      -0.00166443      -0.00356744      -0.00848597
C        9.47328661      11.23771005       4.69971205      -0.00545707      -0.00310673       0.00208256
C        7.85786565      11.29300448       2.71715139       0.00608434      -0.00498372      -0.00998024
C        9.59612054      11.50498853       6.19126672      -0.01438376      -0.00185794       0.00233871
C       10.99352115      11.34398248       6.76980000      -0.01618963       0.00515560       0.00832795
C        9.41493598       9.53103215       1.86546078      -0.00382233      -0.01160181      -0.00440288
C        7.29263375       8.95993100       1.95694391      -0.01427376       0.03064364      -0.00403214
C       10.96896118      11.59397536       8.26897060      -0.01962815       0.01289724       0.00700539
C        7.99201413       7.89696124       1.47590334       0.02234757      -0.02769712      -0.02714356
C       10.41137851       7.45330628       0.94357732       0.00016928      -0.00796229      -0.00238094
H        7.38849620      10.66778458       4.71989401      -0.00579262      -0.00370243      -0.01323095
H        7.66386745      12.37709277       4.51658396      -0.00401638      -0.00348911      -0.00996275
H       10.12296885      11.92074686       4.14121804      -0.00228953      -0.00303677       0.00591938
H        9.83717351      10.22317362       4.49572440      -0.00380086      -0.00300464       0.00441287
H        8.48675382      12.01537002       2.19490880       0.01465157      -0.00284341      -0.00442806
H        6.82405365      11.48371076       2.42398813       0.01130393       0.00310681      -0.01571925
H        9.23139097      12.51488967       6.41064827      -0.01936831      -0.00303015      -0.00074536
H        8.91716038      10.82717536       6.72394442      -0.01412252      -0.00384653      -0.00013772
H       11.37110988      10.33920117       6.55937560      -0.01280879       0.00524870       0.01468236
H       11.70072508      12.02787517       6.29232255      -0.01682568       0.00459042       0.00680746
H       10.32464380      10.10210103       1.91985228       0.01178178      -0.00600110       0.00235200
H        6.24380136       9.08704558       2.15243209       0.00709268       0.00356323      -0.02565714
H        7.66856759       6.91999634       1.16461884       0.00127646       0.00615791      -0.01591183
H       10.11478700      11.08701464       8.72410872      -0.01857688       0.01271143       0.00877717
H       11.86981631      11.23686361       8.75514887      -0.01877815       0.01853474       0.00937083
H       10.88046966      12.66029253       8.48447671      -0.02324414       0.01368013       0.00118843
H       10.21850380       7.13012769      -0.07646614       0.00985029      -0.00118697      -0.00501949
H       11.31446330       8.05721766       0.93870178       0.00692394      -0.01054294       0.00656300
H       10.54688553       6.59825581       1.59920935      -0.00447610      -0.01046550      -0.00606433
Br       1.78502282      11.27490467       8.86653482      -0.00714945      -0.00018274       0.01849654
O        3.39813551      11.25004490       9.04489923      -0.00630927      -0.00200144       0.01060523
O        1.09761227      11.14034680      10.33891717       0.00021785       0.02772517       0.02488577
O        1.33494252      12.66050377       8.15186724      -0.00842914      -0.01251328      -0.00342757
O        1.28171974      10.02757706       7.94386487      -0.01486963      -0.01633584       0.04388082
O       11.46166121       7.12872722      10.86932544       0.01578745       0.00091929      -0.00075327
C       12.13489631       8.38320481      10.95018839       0.01688135       0.00005305       0.00188601
C       12.33138765       6.02321401      10.68919139       0.01459983       0.00018960      -0.00099530
C       11.09092346       9.46992242      11.02243987       0.01766014       0.00057095       0.00272489
C       11.48328342       4.78707949      10.50202378       0.01299164       0.00177336      -0.00278130
H       12.79914426       8.39916777      11.82826413       0.01550430      -0.00234006       0.00297943
H       12.77082446       8.52664516      10.06858401       0.01764616       0.00101674       0.00266200
H       12.96863451       6.19831953       9.81056224       0.01553005      -0.00001742      -0.00011674
H       12.99556328       5.92394512      11.56182752       0.01367277      -0.00147034      -0.00050244
H       11.57747591      10.44319358      11.00297631       0.01876473      -0.00003444       0.00479868
H       10.41557346       9.40480350      10.17054423       0.01860778       0.00257978       0.00204356
H       10.47977074       9.39279014      11.92155156       0.01716650      -0.00031118       0.00215767
H       12.11353664       3.90686815      10.37258429       0.01153642       0.00095512      -0.00288766
H       10.84259237       4.62321301      11.37110589       0.01190013       0.00217533      -0.00371000
H       10.85119752       4.89529146       9.61944370       0.01415810       0.00382259      -0.00319886
O        4.77310164       3.56013697      10.08566167      -0.00571546      -0.00411922       0.01073297
C        4.96343959       4.76382631      10.79426686      -0.00793815      -0.00158586       0.00670090
C        3.54694168       3.54533232       9.36953800      -0.00329046      -0.00628147       0.00687569
C        6.25543353       4.65769379      11.56656031      -0.01167393       0.00052328       0.01273233
C        3.45031808       2.26084329       8.59135512       0.00063731      -0.00697565       0.00783539
H        4.98745091       5.61338608      10.09464911      -0.00438122      -0.00437850       0.00361589
H        4.11769223       4.93607776      11.47925344      -0.01065528       0.00162549       0.00235334
H        2.70725417       3.63424229      10.07680432      -0.00533524      -0.00619124       0.00420654
H        3.50290642       4.42341304       8.70826072      -0.00193202      -0.00717217       0.00577220
H        6.44796086       5.58375731      12.11202657      -0.01435184       0.00188465       0.01098215
H        6.20096755       3.83340321      12.27677396      -0.01532193       0.00271681       0.01466042
H        7.09072589       4.47442247      10.89155192      -0.00852077      -0.00158856       0.01718992
H        2.51515197       2.21531102       8.03527803       0.00204346      -0.00924108       0.00596713
H        4.28118955       2.17438728       7.89056161       0.00225867      -0.00568994       0.00974432
H        3.47021928       1.39641848       9.25335982       0.00121723      -0.00629084       0.00865045
O        4.11994099       9.26361857       6.65025724       0.00001667      -0.00431833      -0.00485939
C        3.62550632       7.97344887       6.34553426      -0.00628942      -0.00143409      -0.00710523
C        4.42614051      10.02823646       5.50909910      -0.00590093      -0.00097716      -0.00428599
C        3.09939033       7.33763085       7.61021537       0.00680026      -0.00634502      -0.00447643
C        4.66382186      11.46071741       5.92649288       0.00204960      -0.00365406      -0.00046006
H        2.82007242       8.05906740       5.59990143      -0.01451552       0.00460675       0.00274235
H        4.42496856       7.35997246       5.91102059      -0.01285249      -0.00101978      -0.01973982
H        5.31743408       9.61430819       5.00457559      -0.01135933      -0.00220588      -0.01253420
H        3.59475787       9.96962500       4.78989583      -0.01134533       0.00494503       0.00168511
H        2.68245499       6.35403887       7.38495038      -0.00142384      -0.00281273      -0.00416462
H        3.89974256       7.21258029       8.34088035       0.01576146      -0.01432062      -0.01573828
H        2.32498513       7.96971893       8.04341348       0.01551650      -0.00470272       0.00875618
H        4.95746030      12.06182206       5.06263558      -0.00692528      -0.00027499      -0.00106414
H        3.76156081      11.88512335       6.36465498       0.00791630      -0.00406224       0.01195475
H        5.45261076      11.51618642       6.67779048       0.01129806      -0.00837491      -0.00983013
O        7.30214233      10.76543819      10.84486187       0.00341484       0.00774956       0.00182195
C        7.41111235      12.01581477      11.48693109       0.00478327       0.00810859       0.00072670
C        6.04466630      10.63048317      10.18424909       0.00063352       0.00533551       0.00808480
C        8.81880015      12.16558190      12.01146317       0.00783730       0.01220572      -0.00910397
C        5.99764350       9.30840093       9.46831169      -0.00142303       0.00457340       0.00996202
H        7.17059791      12.82403841      10.78177051      -0.00219345       0.00727582       0.00228998
H        6.67214706      12.08071522      12.30528813       0.01027760       0.00645826       0.00570446
H        5.22528185      10.71332445      10.91202301       0.00396842       0.00549589       0.01182726
H        5.91327483      11.45607956       9.47437285      -0.00383037       0.00446934       0.00791922
H        8.92567102      13.08551428      12.58867453       0.00941654       0.01372992      -0.01201524
H        9.06927424      11.31734347      12.64883196       0.01463697       0.01435465      -0.00907407
H        9.53700386      12.18256366      11.19279067       0.00187834       0.01239824      -0.01422954
H        5.05257110       9.22452653       8.93530576      -0.00283954       0.00370599       0.01274575
H        6.80686234       9.24103837       8.73969523      -0.00335506       0.00350845       0.00801212
H        6.10220754       8.47846618      10.17066587       0.00038245       0.00548334       0.01057284
O        9.92775908       6.61076859       7.61486163       0.00345221       0.00059515       0.00239995
C       10.96293966       7.58030154       7.52929473       0.00080848       0.00350048       0.00328398
C        8.95408001       7.00744915       8.57646206       0.00260693      -0.00161394       0.00194929
C       11.92058716       7.21429002       6.42476708       0.00576434       0.00423628       0.00773036
C        7.79899337       6.04086977       8.55959593       0.00728500      -0.00710121       0.00596725
H       10.51782146       8.56739359       7.33960069      -0.00198534       0.00139910      -0.00069471
H       11.48672605       7.64417014       8.48788673      -0.00301984       0.00752790       0.00495058
H        9.42253884       7.05301965       9.56610501       0.00331333       0.00333430       0.00136310
H        8.60922587       8.02276330       8.33344235      -0.00273731      -0.00401986      -0.00048597
H       12.74468377       7.92944763       6.40757305       0.00281844       0.00741208       0.00879801
H       12.32934380       6.21539307       6.58762784       0.00938876       0.00639039       0.01196123
H       11.42283187       7.22995607       5.45400206       0.00928974      -0.00064024       0.00607824
H        7.07273247       6.33589614       9.31680173       0.00587590      -0.00751291       0.00458197
H        7.29644379       6.02908926       7.59382617       0.00748410      -0.01308649       0.00588199
H        8.13723832       5.02805511       8.78215788       0.01213727      -0.00448699       0.01019045
O        2.58323892       8.70553801       1.84520355      -0.01078333      -0.00062644      -0.00550973
C        1.73640356       9.73365148       2.33184467      -0.00840944       0.00067896      -0.00509778
C        3.62176200       9.21505862       1.02991716      -0.01475871      -0.00255397      -0.01187830
C        0.65368165       9.10280290       3.17230410      -0.00184929       0.00415269       0.00571865
C        4.41131308       8.05285477       0.47608874      -0.01585788      -0.00378349      -0.01040582
H        2.32199615      10.44832955       2.92911496      -0.00524646       0.00439650      -0.01285160
H        1.31158880      10.29202626       1.48431699      -0.01471032      -0.00408378      -0.00494152
H        3.20483615       9.82282735       0.21524210      -0.01896298      -0.00602052      -0.01210070
H        4.25902661       9.88660706       1.63260479      -0.01291621       0.00003389      -0.01700899
H       -0.02889075       9.86464975       3.55378853      -0.00070176       0.00533478       0.00528895
H        0.09172735       8.37771457       2.58075326      -0.00424146      -0.00061772       0.01413099
H        1.07998062       8.57804695       4.02705171       0.00450489       0.01042678       0.00618856
H        5.25538243       8.41257064      -0.11494562      -0.01861735      -0.00518637      -0.01491237
H        4.78260246       7.41814420       1.28539676      -0.01220357      -0.00014820      -0.00952007
H        3.77945234       7.44110405      -0.16751134      -0.01754026      -0.00677255      -0.00566597
O       10.93632678       3.35659039       3.66970690       0.01049623      -0.00082076       0.00313741
C       12.18425175       2.68055033       3.74322465       0.00889862      -0.00415963      -0.00259255
C       11.12274354       4.75716324       3.62878410       0.01320750      -0.00140843       0.00324326
C       11.93717143       1.20283576       3.88625134       0.00412607      -0.00353515      -0.00536403
C        9.78980210       5.46079500       3.70332492       0.01485169       0.00057593       0.00992913
H       12.78348809       2.88969659       2.84976641       0.00682572      -0.00373638      -0.00380057
H       12.74441107       3.05574068       4.61146802       0.01288183      -0.00802894      -0.00356224
H       11.75930024       5.06825021       4.46854700       0.01787892      -0.00305153       0.00038856
H       11.66074281       5.02764096       2.70432355       0.00910425      -0.00177181       0.00101984
H       12.88494026       0.67509108       3.99938333       0.00194135      -0.00720794      -0.00589696
H       11.32819353       1.00352421       4.76821342       0.00310473      -0.00249173      -0.00592911
H       11.42431301       0.81111895       3.00569589       0.00270210      -0.00002540      -0.00592679
H        9.93881266       6.54211127       3.72351763       0.01634809       0.00029562       0.00617423
H        9.15868603       5.19877390       2.85372221       0.00947212      -0.00077187       0.01447064
H        9.25080864       5.18086236       4.60397554       0.02000710       0.00359964       0.01396126
O        7.98103130       2.92502350       3.99753907       0.00218006       0.00121605       0.00532573
C        7.96631181       2.06401272       2.88149563      -0.00448747       0.00326431       0.00409478
C        8.20646059       2.22567832       5.21184742      -0.00040258      -0.00250652       0.00336891
C        8.05266971       2.87876388       1.61381912      -0.01328799       0.00615895       0.00569883
C        8.58003932       3.19736107       6.30310596      -0.00084110      -0.00608110       0.00638065
H        8.82680952       1.38142641       2.94151853      -0.00401193       0.00331095      -0.00264315
H        7.04794244       1.45162302       2.88840339      -0.00407916       0.00285169       0.00872993
H        7.30182338       1.65719250       5.48313430      -0.00159365      -0.00176916       0.00041644
H        9.01760858       1.50288085       5.05873911      -0.00134778      -0.00323591       0.00228757
H        7.91198055       2.24214173       0.73897422      -0.01737221       0.00796950       0.00520048
H        7.27996048       3.64825251       1.60024357      -0.01468661       0.00475053       0.01238182
H        9.03074259       3.35431696       1.54158056      -0.01481314       0.00830545       0.00090664
H        8.58956060       2.68662026       7.26714905      -0.00202157      -0.00887392       0.00472695
H        9.57064246       3.61445623       6.12629100      -0.00068307      -0.00586008       0.00865256
H        7.86708046       4.01894679       6.35337270      -0.00058857      -0.00607866       0.00789841
O        2.43497592       2.71919088       1.96647033       0.00360003       0.00646737      -0.00861068
C        3.06244205       3.95124992       2.26912060       0.00473183       0.00736949      -0.01587930
C        3.19167142       1.95805299       1.03711560       0.00110459       0.00126857      -0.00614303
C        2.19409505       4.73089240       3.22679933       0.00478202       0.01410265      -0.02164787
C        2.46989268       0.66525204       0.75059827      -0.00304338       0.00277439      -0.00145681
H        4.05405603       3.75803082       2.70413663       0.00437951       0.00945807      -0.01431844
H        3.22088426       4.52464727       1.34307002       0.00562975       0.00138357      -0.01930305
H        3.33553903       2.53886613       0.11429542       0.00240018      -0.00226861      -0.00800309
H        4.19216222       1.76294739       1.45537419       0.00054410      -0.00017598      -0.00578439
H        2.63819611       5.70213562       3.44368369       0.00332683       0.01674488      -0.03067090
H        1.21038452       4.90242905       2.79283599       0.00428721       0.00857705      -0.02252448
H        2.06292631       4.18760307       4.16327665       0.00629698       0.02213484      -0.01682022
H        3.02184851       0.07682190       0.01635405      -0.00599520      -0.00118532      -0.00030260
H        2.36174618       0.07745218       1.66336314      -0.00401393       0.00604747       0.00040892
H        1.47802290       0.85870901       0.34253152      -0.00265682       0.00462273      -0.00108667
O        6.31714101       5.89740648       5.46948308      -0.00477465      -0.00361364      -0.00052977
C        5.39990763       5.06000215       4.78584231       0.00283957      -0.00969985      -0.00317425
C        6.79508422       6.92690813       4.63041271       0.00021020      -0.00826639      -0.00335793
C        4.91488472       3.99344084       5.73239929      -0.00601175      -0.00233549       0.00019324
C        7.72718776       7.81428814       5.41656411      -0.00774106      -0.00210685      -0.00151727
H        4.56141634       5.67292853       4.42751468       0.00588983      -0.01371068      -0.01668960
H        5.89580409       4.61668633       3.91205069       0.01237845      -0.01685426       0.00607827
H        7.30933065       6.48192795       3.76896433       0.00784257      -0.01262742       0.00323758
H        5.94082532       7.50328714       4.23878941       0.00251704      -0.01184437      -0.01347616
H        4.14520638       3.38150067       5.26108057       0.00362697      -0.01079951      -0.00481050
H        5.73303268       3.34092872       6.03175269      -0.00710769       0.00451223       0.01847349
H        4.49520236       4.44641590       6.63082712      -0.02121665       0.00468767      -0.01031668
H        8.17251928       8.56557378       4.76361930      -0.00743945      -0.00277084      -0.00187849
H        7.18767665       8.32870268       6.21479120      -0.01473245      -0.00176229      -0.00658722
H        8.53298011       7.23125117       5.86282252      -0.00778919       0.00267279       0.00454280
