200
Lattice="12.697922842331336 0.0 0.0 0.0 12.697922842331336 0.0 0.0 0.0 12.697922842331336" Properties=species:S:1:pos:R:3:forces:R:3 energy=-90484.234375 stress="-0.0015474336687475443 0.00012218907795613632 -0.00013406076323008165 0.00012218907795613632 -0.002982349367812276 0.0006476907874457538 -0.00013406076323008165 0.0006476907874457538 -0.0021541474852710962" pbc="T T T"
N        7.08958826       6.70775235       3.59543128       0.00059078       0.00028270      -0.00764495
N        6.89335827       7.54807913       1.60533163       0.00841151       0.00718096      -0.01340133
C        8.30424235       7.29012054       5.66837002      -0.00640586       0.01012594      -0.01067662
C        8.37422769       8.79017848       5.42291103      -0.00506234       0.01025620      -0.00826478
C        7.07759355       6.62987528       5.05918261      -0.00590488       0.00684755      -0.00986874
C        9.57823772       9.45388549       6.07066834      -0.00563765       0.00612459      -0.00382972
C        9.67552417      10.93270670       5.73533815      -0.00052685       0.00469840      -0.00685647
C        6.58625161       7.72572996       2.89420429      -0.00353563       0.01743269      -0.00624508
C        7.73818321       5.85844631       2.73131421      -0.00435901       0.01165664      -0.01019135
C       10.84487139      11.59906622       6.44019538      -0.00062221       0.00291742      -0.00599730
C        7.61689094       6.38510939       1.48014332       0.00054145       0.01306355      -0.00427723
C        6.54137372       8.46212273       0.53398062       0.01064302       0.01670521      -0.00803262
H        9.21512693       6.81150588       5.29543523      -0.00483260       0.00877619      -0.00707076
H        8.25936194       7.08565008       6.74260904      -0.00864416       0.01298070      -0.00990683
H        7.45080187       9.26557402       5.77850394      -0.00531903       0.00979462      -0.00804450
H        8.43714004       8.98650356       4.34720962      -0.00220078       0.01642666      -0.00630009
H        6.16255981       7.10645124       5.40743140      -0.00490221       0.00438873      -0.00895355
H        7.00294591       5.57777331       5.32884330      -0.00080803       0.00886035      -0.01071438
H        9.53171516       9.33391945       7.15647476      -0.00913604       0.00716530      -0.00387335
H       10.48297542       8.93541346       5.73777778      -0.00641561       0.00302517      -0.00102317
H        9.76489643      11.05506496       4.65252531       0.00265232       0.00065292      -0.00697741
H        8.74193042      11.42881551       6.01557478       0.00016546       0.00818948      -0.01098053
H        6.04419871       8.56077177       3.30479348       0.00353544       0.00784321      -0.00913261
H        8.21884965       4.95631165       3.06561209      -0.00487117       0.00554868      -0.00860330
H        7.96046425       6.02283428       0.52746836       0.00433972       0.01132014      -0.00864519
H       11.79622598      11.15466581       6.14485593      -0.00172429      -0.00156564      -0.00250492
H       10.90177040      12.66422518       6.21384416       0.00290069       0.00182720      -0.00888987
H       10.75165724      11.50082747       7.52325428      -0.00434105       0.00538981      -0.00609063
H        5.93232013       7.93950305      -0.19964959       0.01935887       0.01748076      -0.01200485
H        5.97262960       9.28095140       0.96031770       0.00610346       0.01125376      -0.00829467
H        7.44451235       8.85569996       0.06538841       0.01233816       0.01910799       0.00341189
F       12.56127107      12.19304096       0.03944231       0.03249645       0.01727805      -0.00871819
O        4.37255592       8.87489550       8.83027151      -0.01038414       0.00273658      -0.00479102
C        3.25152997       9.40925623       9.57023905      -0.00722843       0.00191170       0.00051832
C        3.03813561       8.65954954      10.87081642       0.00101930       0.00213167       0.00160909
C        3.41627373      10.89819505       9.80172896      -0.00603295       0.00178355      -0.00168189
H        2.39521677       9.23650509       8.91253675      -0.01003060       0.00081018       0.00472689
H        2.16581973       9.05106074      11.39427535       0.00392768       0.00180484       0.00633994
H        2.88678783       7.59630281      10.69099938       0.00096988       0.00205131       0.00319289
H        3.90646551       8.78298747      11.52404150       0.00459395       0.00319634      -0.00348004
H        2.56350125      11.29847867      10.35171388      -0.00368568       0.00293560       0.00065331
H        3.51469400      11.43772004       8.86020755      -0.00869286       0.00061191      -0.00255260
H        4.31633886      11.07827425      10.40088105      -0.00397845       0.00148262      -0.00486110
H        5.17686366       9.11637918       9.30346161      -0.00833014       0.00068900      -0.00747168
O        4.67368690       3.99854707       9.75865680       0.01220888      -0.01199153      -0.00438544
C        5.71170288       4.49733964      10.61223197       0.00768785      -0.00824264      -0.00037402
C        5.69674759       6.01085970      10.64253159      -0.00258622      -0.00853074       0.00490928
C        5.57569809       3.93964666      12.01715125       0.00684159      -0.01573992      -0.00380212
H        6.64920972       4.14791798      10.17222326       0.01161849       0.00013745       0.00147220
H        6.55903182       6.37503001      11.19674547      -0.00311883      -0.00483444       0.00289079
H        5.74540575       6.42216039       9.63735961      -0.00889429      -0.00492339       0.00573856
H        4.78083379       6.36441612      11.12556283      -0.00291857      -0.01625339       0.00920181
H        6.45661991       4.18994747      12.61296234       0.00440924      -0.01509989      -0.00066961
H        5.47244471       2.85836316      11.99227106       0.01100360      -0.01588920      -0.00974588
H        4.70171646       4.38009080      12.50084533       0.00422475      -0.02163602      -0.00393511
H        3.98822848       4.66981844       9.72098809       0.02125345      -0.00494084      -0.02703651
O       10.59274807      11.56784367      11.46706299       0.02499616       0.01294094       0.00425589
C       11.29757864      10.93199435      10.44125550       0.01331580       0.00473028       0.00184131
C       12.25319853      11.90766338       9.75143046       0.01461577      -0.00414401      -0.00820005
C       12.06474108       9.73144778      11.00253841       0.00941855       0.00175637       0.00001782
H       10.56972269      10.57722822       9.69127177       0.00587106       0.00656706       0.00845963
H       12.84469715      11.41325927       8.97461490       0.00792533      -0.01106426      -0.00866097
H       11.68886859      12.71295026       9.28096792       0.01687902      -0.00356087      -0.00966045
H       12.90414350      12.32970601      10.51876509       0.02058911      -0.00327592      -0.01423809
H       12.67504577       9.23638892      10.24147730       0.00369609      -0.00213747      -0.00180725
H       11.36849828       9.00007958      11.41794054       0.00822665       0.00560849       0.00411937
H       12.69906807      10.10478327      11.80940275       0.01512089      -0.00070840      -0.00375667
H       11.37315187      11.88558866      12.10471653       0.03009164       0.01477221      -0.00274280
O        8.51469563       6.15382009       9.68097960       0.00292993       0.00568840       0.00743622
C        9.19377848       7.40376191       9.84467423       0.00378868       0.00595096       0.00067122
C       10.43994236       7.45070131       8.97578044      -0.00011873       0.00235480      -0.00469708
C        8.24106017       8.56597075       9.60759232       0.00299177       0.00458676      -0.00013722
H        9.49632564       7.41026669      10.89726245       0.00817139       0.00982271      -0.00076234
H       10.90830378       8.43241376       9.01253462       0.00280426       0.00090447      -0.00688380
H       11.16097118       6.70525876       9.30951215      -0.00082579       0.00042200      -0.00760369
H       10.18529155       7.23664698       7.93665342      -0.00551680       0.00292379      -0.00338587
H        8.71313175       9.51885364       9.85276723       0.00284930       0.00544401      -0.00493008
H        7.35256956       8.44212476      10.23049942       0.00461759       0.00649400       0.00256222
H        7.92167379       8.60024942       8.56170768       0.00032144       0.00085811       0.00066738
H        8.10180617       6.15105492       8.81008520      -0.01592722       0.01053968       0.01670644
O        1.50794514      11.01394028       5.67825274       0.00376621       0.01112005      -0.00816441
C        1.83928920       9.77359545       5.05226953       0.00319402       0.00934541      -0.00470942
C        3.33533917       9.51418069       5.14332880       0.00179720       0.00509713       0.00223239
C        1.00401680       8.63731959       5.61862176      -0.00280255       0.01288337      -0.00669599
H        1.56498213       9.92335690       4.00505277       0.00835396       0.00862576      -0.00594622
H        3.61308377       8.68061399       4.49343892       0.00231746       0.00326475       0.00520179
H        3.89018901      10.39939266       4.83377814       0.00559582       0.00281048       0.00275909
H        3.62786936       9.25867548       6.16706348      -0.00319216       0.00585089       0.00363488
H        1.27793999       7.68237324       5.16479033      -0.00179554       0.01087926      -0.00135421
H       -0.05747645       8.81207735       5.44718853      -0.00123379       0.01417183      -0.01426007
H        1.16594685       8.54856813       6.69649423      -0.01059219       0.01642930      -0.00531529
H        1.68721463      10.92308783       6.62005499       0.00200059       0.01300082      -0.00777297
O        5.86515611       1.24951096      10.24811569       0.00736219      -0.03570101       0.01301372
C        6.69331532       1.04611150       9.09719875       0.00697196      -0.02269039       0.01027393
C        7.86672059       0.14997650       9.45662665       0.00622380      -0.02757210      -0.00039443
C        5.88990777       0.49925845       7.93175513       0.00716501      -0.00936583       0.00477779
H        7.05674765       2.04755561       8.84244539       0.00775737      -0.02052522       0.02115481
H        8.52661334      -0.00507449       8.59923094       0.00203065      -0.02143767      -0.00453359
H        8.44206796       0.55210608      10.29301628       0.00988090      -0.03692735       0.00131044
H        7.50336323      -0.83160641       9.77198323       0.00516753      -0.02957220      -0.00857851
H        6.51428133       0.40852902       7.04238733       0.00760978       0.00130878       0.00444530
H        5.04186000       1.14933373       7.71019314       0.00711703      -0.00744136       0.01137422
H        5.51130699      -0.49717284       8.17401567       0.00775322      -0.01241575      -0.00736483
H        5.29828792       0.47787517      10.33846821      -0.01206253      -0.02320962      -0.01125231
O       10.62998345       7.90044241       3.08784156       0.00359136      -0.00542124       0.00259311
C       11.78168279       7.12793519       2.70824475       0.00432320      -0.00402421       0.00258657
C       11.81888534       5.82238793       3.48482834       0.00693836      -0.00356197       0.00293005
C       11.80900718       6.90640993       1.20928877       0.00391037      -0.00493594       0.00292480
H       12.63485677       7.74729413       2.99804281       0.00330314      -0.00264764       0.00192927
H       12.71201224       5.24236555       3.24135660       0.00911084      -0.00062130       0.00442490
H       11.79723873       6.01307365       4.55934775       0.00491798      -0.00331835       0.00278324
H       10.95265612       5.20955727       3.22414205       0.00963832      -0.00654459       0.00201507
H       12.68796760       6.33200826       0.91904470       0.00542469      -0.00238910       0.00255042
H       11.81234485       7.85735652       0.67793759       0.00068208      -0.00534663       0.00227185
H       10.93473761       6.32540457       0.89589641       0.00580147      -0.00772960       0.00388676
H        9.90101512       7.58859055       2.54247437       0.00382896      -0.00564963       0.00221381
O        9.51553879       0.38820764       2.90427565      -0.02258503      -0.00911787       0.00625092
C       10.47040157       0.97237635       2.00366580      -0.01709372      -0.01476312       0.00941232
C       10.10721947       2.42710873       1.71489492      -0.00820011      -0.01438898       0.00015702
C       11.89376634       0.83588372       2.51032617      -0.02007127      -0.01770788       0.01688907
H       10.38916175       0.39788342       1.08092007      -0.01562427      -0.01690394       0.01058882
H       10.73354390       2.83694691       0.91956064       0.00219046      -0.02445461       0.00365676
H        9.06115877       2.49782708       1.40673600      -0.00442757      -0.00737206      -0.01098129
H       10.25266622       3.03778807       2.61217306      -0.01169291      -0.00909434      -0.00291029
H       12.56788244       1.04028050       1.67586325      -0.01489890      -0.03267121       0.01699787
H       12.09536742      -0.19154658       2.80954009      -0.02929985      -0.01471949       0.03341409
H       12.07831184       1.51263719       3.35328934      -0.02055009      -0.00936815       0.01017799
H        9.77305394       0.58215487       3.81321294      -0.02756377      -0.00678870       0.00710554
O        8.68354751       1.24467751       5.74087699       0.01510021       0.02128804       0.01955998
C        8.28303473       2.44725724       5.08026468       0.00639418       0.01415473       0.01307006
C        6.80873802       2.72424193       5.32591794       0.00673479       0.00972071       0.01925921
C        9.18966728       3.58029915       5.51523876       0.00404689       0.02165210      -0.00264847
H        8.41660410       2.24864556       4.01219995      -0.00000038       0.00751397       0.01369846
H        6.47050740       3.56883957       4.72021048      -0.00043692       0.00254737       0.01355095
H        6.21301767       1.85559812       5.04095483       0.00858300       0.00513868       0.03043232
H        6.60926461       2.94840601       6.37575884       0.01222232       0.01797817       0.01827373
H        8.98258217       4.50928543       4.98771273      -0.00107501       0.01445140      -0.01247106
H       10.23192983       3.31618701       5.32999415       0.00417854       0.02407591      -0.00420317
H        9.07561209       3.75982562       6.58703331       0.00744805       0.03441864      -0.00473097
H        9.15089499       1.48739221       6.55414595       0.02319763       0.02785148       0.01348065
O        5.03095327      11.86961505       3.38833058      -0.00715747       0.00867230      -0.00824156
C        4.48619920      11.38597468       2.15294324      -0.00618304       0.00947329      -0.00944367
C        3.03830329      11.80584307       1.95830452      -0.00593555       0.00957206      -0.00941049
C        5.37866043      11.78872038       0.99035060      -0.00581765       0.01138400      -0.00804314
H        4.50443236      10.29427019       2.27225744      -0.00663404       0.00938624      -0.01172838
H        2.56496312      11.26793179       1.13479652      -0.00686228       0.00856497      -0.00800294
H        2.46349512      11.61765816       2.86472207      -0.00551329       0.01128246      -0.00890167
H        2.96630331      12.86791663       1.71934573      -0.00649745       0.00880806      -0.01150689
H        5.04541244      11.31823912       0.06242077      -0.00486853       0.01224396      -0.00854337
H        6.41954260      11.52202087       1.18007479      -0.00578095       0.01197293      -0.00821368
H        5.33498293      12.86942928       0.83346824      -0.00654486       0.01127158      -0.00767403
H        5.32491882      12.77617769       3.25440532       0.02213879      -0.00257276      -0.01526411
O        0.12036544       3.21616574      12.27692022       0.00361323       0.00522760       0.02405649
C        1.28943947       3.47381146      11.50361717      -0.00242823      -0.00477479       0.01228645
C        1.81475785       4.86263668      11.84680275       0.01159926      -0.00874114       0.00494462
C        2.31747272       2.37104857      11.67552932      -0.00843829      -0.01163661       0.00260587
H        0.95305786       3.47739447      10.46130152      -0.01309894      -0.00371816       0.01609331
H        2.71486096       5.10898926      11.28143810       0.00803688      -0.01793791      -0.00412304
H        1.05415584       5.61749456      11.63753416       0.01557302      -0.00313558       0.01161560
H        2.06136253       4.91225072      12.91025062       0.02212489      -0.00899673       0.00218177
H        3.16798296       2.52311078      11.00930358      -0.01428054      -0.01757019      -0.00607936
H        1.85146909       1.40399950      11.48087862      -0.01671831      -0.00884637       0.00994515
H        2.67950485       2.36554100      12.70553922       0.00327738      -0.01283492      -0.00181541
H        0.42508584       2.90782885      13.13863500       0.01018267       0.01226320       0.02433906
O        1.76751989       2.87358166       2.38818476      -0.00989980      -0.00880796       0.00212225
C        2.91453261       3.16813952       3.19056711      -0.01119107      -0.00472915       0.00276241
C        2.82838227       2.47137730       4.53586660      -0.01106479      -0.00362575       0.00310451
C        4.20065694       2.83351249       2.45521773      -0.00938058      -0.00302929       0.00535980
H        2.87829371       4.25098986       3.32887261      -0.01402957      -0.00466216       0.00153837
H        3.68939589       2.72119899       5.15897917      -0.01276200      -0.00035466       0.00390961
H        1.91994760       2.75822560       5.06768832      -0.01263840      -0.00575338       0.00128002
H        2.82187105       1.38557319       4.40133837      -0.00755313      -0.00354077       0.00383616
H        5.07092193       3.17502717       3.01825252      -0.01132439      -0.00323080       0.00853918
H        4.21834253       3.30568441       1.47758679      -0.00649421      -0.00215785       0.00585139
H        4.28901780       1.75632766       2.30965297      -0.00876692      -0.00267315       0.00548580
H        1.50063190       1.96126668       2.55222162      -0.00573292      -0.01018533       0.00109111
O        5.04361016       6.26963737       7.38642430      -0.01300721       0.04577267       0.00444162
C        3.83736763       5.58574118       7.01160088       0.00214517       0.01883815       0.00789380
C        2.65782722       6.13974248       7.78862870      -0.00952077      -0.00270975       0.00354284
C        3.61787761       5.71513613       5.51410270       0.00027008       0.00212284       0.00762105
H        3.99058208       4.53308366       7.26876781       0.02524398       0.02453208       0.01400524
H        1.71495367       5.72211804       7.43522485       0.00154853      -0.03015880       0.00957789
H        2.74186310       5.94029578       8.85916591      -0.00365742       0.01093693       0.00519711
H        2.61602324       7.22189409       7.65894875      -0.03930965      -0.00592148      -0.00693352
H        2.66914059       5.26438675       5.21992775       0.00914140      -0.01751953       0.01201438
H        4.41606797       5.22100024       4.95699640       0.00778803       0.01117963       0.01086277
H        3.59647660       6.76772666       5.23457006      -0.01920591      -0.00160615      -0.00241597
H        4.78489972       7.12328500       7.76364480      -0.02721705       0.03983175       0.00885948
O       10.18702735       2.15234114       8.35643222       0.00519979      -0.01873696      -0.00759821
C       11.30275421       2.86690678       8.93278104      -0.00036202      -0.01191956      -0.00456212
C       12.04092862       3.52641855       7.78859955      -0.00199370      -0.00438011      -0.00104100
C       10.80754102       3.85971499       9.96301627      -0.00899380      -0.01863295      -0.00313139
H       11.96509666       2.14110881       9.41573522       0.00418225      -0.00815070      -0.00550064
H       12.96267017       3.97824189       8.15796609      -0.00348556      -0.00389739       0.00146052
H       12.29794892       2.79290268       7.02323881       0.00129046       0.00035383      -0.00432537
H       11.43238898       4.31135224       7.33608559      -0.00298356      -0.00348808       0.00262181
H       11.63023191       4.45527947      10.35958513      -0.01237153      -0.01907446       0.00386808
H       10.36049161       3.34744495      10.81643896      -0.01281584      -0.02412522      -0.00857294
H       10.06809782       4.52599484       9.52410991      -0.00801739      -0.01819745      -0.00407641
H        9.72950386       1.71559160       9.08311357       0.01521332      -0.03554699      -0.01187477
