193
Lattice="12.965421601460255 0.0 0.0 0.0 12.965421601460255 0.0 0.0 0.0 12.965421601460255" Properties=species:S:1:pos:R:3:forces:R:3 energy=-257862.65625 stress="-0.0032005272805690765 -0.0003950611426262185 0.0007776194543112069 -0.0003950611426262185 -0.0051833330653607845 0.0002613832475617528 0.0007776194543112069 0.0002613832475617528 -0.004854987841099501" pbc="T T T"
N        8.75337920       7.88575017       4.41414638      -0.00116631      -0.00477427       0.00244026
N        8.58746185       5.72865197       4.40465860       0.00017415      -0.00418329      -0.00320744
C        7.49912812       9.99739850       4.82594669      -0.00386949      -0.00686187       0.00440013
C        6.43902440       9.42194782       5.75113669      -0.00483067      -0.00700021       0.00267941
C        8.82450628       9.27268070       4.89253097      -0.00373319      -0.00592035       0.00499204
C        5.20931580      10.31384457       5.76407297      -0.00208760      -0.00377280       0.00536609
C        4.03791375       9.76277271       6.55721097      -0.00429391      -0.00194633       0.00267830
C        8.43262303       6.82402542       5.15619407      -0.00224265      -0.00650060      -0.00105822
C        9.09970406       7.46197312       3.15802792       0.00235483      -0.00137148       0.00263518
C        2.78738898      10.62062606       6.42222115       0.00116020       0.00636229       0.00977007
C        9.00496707       6.10552147       3.14979313       0.00338340      -0.00108503      -0.00077611
C        8.52305090       4.35975956       4.88747046       0.00023997      -0.00485444      -0.00646463
H        7.11608090      10.02922909       3.80202402      -0.00277095      -0.00554352       0.00439644
H        7.71623168      11.02073296       5.13649221      -0.00422339      -0.00759292       0.00601006
H        6.84890671       9.30861943       6.76115514      -0.00531004      -0.01044871       0.00214443
H        6.15373834       8.42636247       5.40160636      -0.00724590      -0.00514650       0.00011176
H        9.18371174       9.23744541       5.92110928      -0.00543527      -0.00727990       0.00516713
H        9.57840595       9.76181878       4.27305235      -0.00365230      -0.00434513       0.00694998
H        5.50068596      11.28955985       6.16292745       0.00069128      -0.00607809       0.00846763
H        4.89656412      10.47227544       4.72600822      -0.00085245       0.00065526       0.00593936
H        3.81266174       8.76154142       6.18708485      -0.01050564       0.00187457      -0.00324342
H        4.30175440       9.64806785       7.61418621      -0.00419722      -0.00967589       0.00143474
H        8.13742885       6.87639634       6.19145248      -0.00223143      -0.00960425      -0.00114258
H        9.43324122       8.15125742       2.40603732       0.00401858       0.00034566       0.00532198
H        9.22935420       5.38420059       2.38567463       0.00430120       0.00102610      -0.00207692
H        2.45495422      10.64802337       5.38302337       0.00104029       0.01776893       0.01040728
H        1.96701934      10.23474929       7.02921671      -0.00073317       0.00662347       0.00683899
H        2.96609657      11.65546261       6.72510652       0.00770129       0.00229053       0.01855674
H        9.51006180       4.03043536       5.21574825      -0.00149181      -0.00202118      -0.00041772
H        7.80496159       4.27469676       5.69889002      -0.00542215      -0.00876164      -0.01236463
H        8.18665830       3.71770476       4.07638949       0.00941759      -0.00454767      -0.01004404
N       13.42962968      12.22978428       0.07787082       0.00596376       0.00262272       0.00311640
C       13.39826079      13.09796369      -0.70741641      -0.01265691       0.00156647       0.01513523
S        1.69157473       5.83024303       8.43496654      -0.01301813      -0.00232506       0.00211475
O        3.04608681       5.36505127       8.83814107      -0.01562405      -0.00052673       0.01243174
C        1.12318274       4.79133972       7.06026839      -0.00148913      -0.00283360      -0.00137597
C        1.90738319       7.32825257       7.46797931      -0.00872782      -0.00258392       0.00373173
H        1.12405221       3.75394080       7.39285050      -0.00415330      -0.00248632      -0.00120042
H        1.77867742       4.92371395       6.19758128       0.00507785      -0.00322727       0.00397162
H        0.10598532       5.09239101       6.80485939       0.00110113      -0.00239568      -0.00958085
H        0.93057898       7.69821107       7.16038773      -0.00714967      -0.00633454      -0.00503206
H        2.50975311       7.10995540       6.58782281      -0.00112541      -0.00153060       0.00923787
H        2.37485968       8.04834949       8.13732569      -0.01599979      -0.00060114       0.00640452
S       10.23865921      12.21049885       1.15109139      -0.00485253       0.00271444       0.00486946
O        9.72464654      12.71489607      -0.15352926      -0.01251584      -0.00370044       0.00572371
C       10.55790226      10.45692867       0.91167116       0.00500715       0.00468737       0.00804311
C        8.78838377      12.04913160       2.21182117       0.00059545      -0.00269955       0.01039839
H       11.41782063      10.39016936       0.24904188       0.00611350       0.00802261       0.00968355
H        9.69236425      10.00044183       0.43118554       0.00818448      -0.00047570       0.00762095
H       10.79798107       9.97740588       1.85918499       0.00615796       0.00710166       0.00860596
H        9.08582379      11.61763171       3.16464810       0.00689614       0.00402774       0.01110702
H        8.01886710      11.45874352       1.71075576       0.00328754      -0.01037060       0.01583266
H        8.43556907      13.06231158       2.39560358      -0.00612669      -0.00465567       0.00674995
S       11.65601025       1.69190039       3.55596287       0.01031339       0.00664473      -0.00657570
O       10.58939510       0.90368449       4.24906863      -0.00065720       0.01416337      -0.01561117
C       13.04882425       0.60220211       3.22888337       0.00446808      -0.00302523       0.00308988
C       12.49200066       2.65624727       4.83314811       0.00798571       0.00037044      -0.00081801
H       12.77726914      -0.05105533       2.40189333       0.00677873       0.00167985      -0.00067048
H       13.26493448       0.04345699       4.14096565      -0.00795048      -0.00683844       0.00324015
H       13.90692285       1.20739205       2.93077289       0.01170186      -0.00925791       0.01263595
H       13.27956211       3.24643554       4.36375083       0.01562408      -0.00601853       0.00473176
H       12.89873673       1.99507155       5.59982421      -0.00208002      -0.00112003       0.00271124
H       11.74779710       3.31458097       5.27887931       0.01047504       0.00729944      -0.00776403
S        6.11368284       1.79497786       4.78391979       0.00599271      -0.01086915      -0.00859368
O        5.86380773       3.04825395       5.56910891       0.00055173      -0.00619757      -0.01850581
C        4.77098789       0.67756167       5.18683334       0.00315821      -0.00722212      -0.01031607
C        7.45173946       0.91373866       5.58106075       0.00030732      -0.00520369       0.00632650
H        3.86179068       1.18561567       4.87560367       0.00598848      -0.00790133      -0.01906382
H        4.78075041       0.48035207       6.25785971      -0.00407866      -0.00048272      -0.00934133
H        4.89210116      -0.23876124       4.61453184       0.00601739      -0.01076327      -0.00342354
H        7.58107604      -0.03302179       5.06106251       0.00329083      -0.00945144       0.01576861
H        7.24728929       0.74520325       6.63620363      -0.00764821       0.00344766       0.00581288
H        8.36759780       1.48662453       5.44589463       0.00085646      -0.00626916       0.00775659
S        4.66421889       0.95099755       1.80618118      -0.00742412       0.01331139      -0.00508633
O        3.76572539       1.93827507       2.49874930      -0.00639284       0.01516986      -0.00713873
C        6.13074568       1.83787813       1.28253172      -0.01141578       0.01315361      -0.01505569
C        3.98971968       0.70701052       0.16121706      -0.01325935       0.00175314      -0.00021338
H        6.71829770       2.04803873       2.17152861      -0.01178252       0.02374506      -0.01757260
H        5.81763243       2.76519824       0.80375206      -0.01409371       0.00683317      -0.02468370
H        6.68869202       1.21893725       0.57978502      -0.00893455       0.00787288      -0.00807381
H        4.67560945       0.06937258      -0.39503117      -0.01289304       0.00188217       0.00057680
H        3.89389280       1.68000704      -0.31629271      -0.02022958      -0.00148681      -0.00490128
H        3.01358230       0.23228416       0.25051566      -0.01016630      -0.00213129       0.00694552
S        4.49113353       6.55459562       4.32198456      -0.00985575      -0.00276501       0.00159389
O        3.02367667       6.88597571       4.34222667      -0.00930202      -0.00150913       0.00473690
C        4.65183878       5.01825267       3.39789801      -0.01246408      -0.00025976      -0.00165403
C        4.89656832       5.89403868       5.94654833      -0.00790386      -0.00678924      -0.00092930
H        4.42917892       5.24398475       2.35705786      -0.01318920       0.00155059      -0.00081657
H        3.96404077       4.27080705       3.78761819      -0.01216789      -0.00051782      -0.00258531
H        5.67187355       4.65035878       3.49365442      -0.01294555      -0.00112032      -0.00306288
H        5.86861448       5.41034986       5.91952449      -0.00739235      -0.00508766      -0.00291220
H        4.15863157       5.15305785       6.24436779      -0.00662287      -0.00860226      -0.00319299
H        4.89703535       6.71966606       6.65468541      -0.00853506      -0.00911923       0.00137043
S       12.03761516       2.12618153       8.39316601       0.00963068      -0.01078880       0.00567342
O       13.35189482       1.55559440       7.94566851       0.00483847      -0.01702672       0.00037596
C       12.34993096       3.03415454       9.91308966       0.01749967      -0.01888999       0.00782138
C       11.08024388       0.79539314       9.12187854       0.00212869      -0.00693917       0.00160348
H       13.00588884       3.87089967       9.67938100       0.02331883      -0.02341835       0.00976660
H       12.80460084       2.36997258      10.65135953       0.01234653      -0.02517915       0.00503659
H       11.41037023       3.43161884      10.28947276       0.02147561      -0.01233057       0.00994914
H       10.10777146       1.18547286       9.42416507       0.00489698      -0.00186871       0.00303021
H       11.62144993       0.39878488       9.98314004      -0.00073531      -0.01217555       0.00051580
H       10.92052950       0.04883362       8.34679476      -0.00214361      -0.00399563       0.00004664
S        8.09667979       2.91101214      11.95080770       0.00350128      -0.00120652      -0.01066744
O        7.57865615       1.58087420      11.48774822       0.00361392      -0.00034750      -0.01191944
C        8.32793186       3.87776497      10.46851731       0.01794803      -0.00454122      -0.00998759
C        9.81127886       2.69541177      12.42973633      -0.00090903      -0.00324741       0.00320849
H        7.34678073       4.00312590      10.00551931       0.02255821      -0.00617408      -0.01942288
H        8.97731350       3.33289387       9.78218337       0.02566221      -0.00482655      -0.00185307
H        8.75691124       4.84276896      10.73126448       0.01395179      -0.00397426      -0.00706070
H       10.32097771       3.65661478      12.47643123       0.00003014      -0.00391877       0.00321628
H       10.29518044       2.02420998      11.72435183       0.00368303      -0.00623049       0.00948031
H        9.82210439       2.21305305      13.40270444      -0.00959873       0.00007972       0.00462949
S       10.41707546       7.11319666       7.52996049       0.00499892       0.00051200      -0.00079709
O        9.18411913       7.91893454       7.81847158      -0.00399840      -0.01246756      -0.00457728
C       10.12480393       5.47564795       8.22742334       0.02100103      -0.00039816       0.00102788
C       11.67926253       7.65464396       8.67479496      -0.00526017       0.01632503       0.00224555
H        9.12044335       5.18641302       7.91992322       0.02773647      -0.01455602      -0.00608689
H       10.16809111       5.53263968       9.31140649       0.01204211       0.00306883       0.00090382
H       10.85280655       4.76256408       7.84081677       0.03295398       0.00831660       0.00887668
H       12.42618477       6.87001807       8.79564333      -0.00053252       0.02279075       0.01120276
H       11.20435867       7.89422426       9.62549977      -0.01348019       0.01753580      -0.00230202
H       12.13662750       8.54932715       8.26051253      -0.00986886       0.01707333      -0.00041887
S        0.47190110       4.61324862       0.65904573      -0.01124263       0.01472680      -0.01564455
O       -0.54371206       4.58552524      -0.44266965      -0.01052868       0.02147718      -0.01613772
C        1.58566178       5.97319037       0.27713651      -0.00234318       0.00688308      -0.01593503
C        1.63838953       3.28658813       0.33871033      -0.02141571       0.00638437      -0.01407114
H        0.97137709       6.87007705       0.27570071       0.00468963       0.01131746      -0.01394555
H        2.03839269       5.81164837      -0.70105498      -0.00509927       0.00477430      -0.01656795
H        2.33629461       6.04435341       1.06451333      -0.00053813       0.00042814      -0.01752235
H        2.39533489       3.26698923       1.12670639      -0.02273118       0.00035558      -0.01335014
H        2.08637631       3.43974017      -0.64409508      -0.01890716       0.00325087      -0.01317382
H        1.08388299       2.34703150       0.33880547      -0.02885853       0.01108614      -0.01522073
S        8.02042027      10.96522152       8.83170978      -0.00676644      -0.01258135       0.00711679
O        8.47760727      11.88789741       7.74141629      -0.00458360      -0.02513635      -0.00230181
C        6.37727139      11.53516891       9.32845700      -0.00178021       0.00200352       0.00461012
C        8.84334427      11.46549635      10.34031011      -0.00283369      -0.00261003       0.00085372
H        5.73911081      11.48302010       8.44841555      -0.00412048      -0.00505910       0.00730462
H        6.44341826      12.55643190       9.70533016       0.00577989       0.00578792      -0.00825009
H        5.99428787      10.85617596      10.09139098      -0.00457793       0.01524789       0.01439987
H        8.47882887      10.85359045      11.16244253      -0.00469395       0.00899304       0.00811021
H        8.65573113      12.51810286      10.54380653       0.00248575      -0.00023407      -0.00892966
H        9.90427731      11.26129281      10.22630639      -0.00455521      -0.01001109       0.00204236
S        3.89333705      10.43182240       1.44005820       0.01700878      -0.00239146       0.00085974
O        5.00292295       9.95129657       2.32104410       0.01815236       0.00015295       0.00000703
C        2.64698362      11.21240448       2.48516056       0.01550806      -0.00775877       0.00258231
C        2.87335891       9.00098182       1.04054718       0.02144516      -0.00439060      -0.00084848
H        3.09191545      12.09031341       2.94848528       0.01368049      -0.00709529       0.00261466
H        2.34697742      10.49917552       3.25068767       0.01921896      -0.00949737       0.00220475
H        1.80854612      11.50603160       1.84714183       0.01407672      -0.00969353       0.00454405
H        1.92779695       9.35384574       0.62689269       0.02109881      -0.00684271      -0.00092674
H        2.72586754       8.42889181       1.95895903       0.02170118      -0.00523105      -0.00190473
H        3.39782353       8.40805698       0.29358394       0.02328385      -0.00189137      -0.00082874
S        1.93759374      10.20213665      10.73254936      -0.00310916       0.00426495       0.00302398
O        2.55968833       9.06404054       9.97867134      -0.00257748       0.01027346      -0.00462842
C        0.33097275      10.52893956       9.98625333      -0.00584179       0.00368063       0.01036778
C        2.73431055      11.70140103      10.12608775      -0.00906685       0.00905597       0.00911817
H       -0.35560842       9.75322435      10.31894730      -0.00169372      -0.00132516       0.00617050
H        0.44644242      10.52007979       8.90174985      -0.00907984       0.01255155       0.01024561
H       -0.01174443      11.49779875      10.34360592      -0.00862250      -0.00084320       0.01873223
H        2.18414674      12.56490283      10.50295188      -0.00983636       0.00548041       0.01508196
H        2.73924972      11.66846505       9.03682188      -0.01283138       0.01489445       0.00920063
H        3.75245906      11.69147089      10.50954225      -0.00803123       0.00985463       0.00562201
S        9.24123196       7.43268555      11.25661178      -0.01318389       0.00303471       0.00101346
O       10.06746697       8.67784808      11.22687841      -0.01515704       0.00388324       0.00150208
C        7.58057574       7.90899322      11.76103496      -0.01127988       0.00006792       0.00636420
C        9.73043962       6.54972984      12.74064495      -0.01013704       0.00184575      -0.00131190
H        7.19162783       8.52439578      10.95206893      -0.01706699      -0.00014181       0.00937128
H        7.61484067       8.47012876      12.69579956      -0.00974719      -0.00057601       0.00645658
H        6.96894448       7.01307286      11.86444442      -0.00972722      -0.00049663       0.00822990
H        8.97355460       5.80320631      12.98561505      -0.00866220       0.00033972      -0.00224780
H        9.86121645       7.27518369      13.53855359      -0.01119029       0.00086425      -0.00053123
H       10.69277418       6.06980175      12.55205372      -0.00983638       0.00415076      -0.00363911
S       12.98134767       7.48985131       2.88797190       0.00383949       0.01836465      -0.00943696
O       11.86342637       7.39315691       1.89454997      -0.00197458       0.02892230      -0.00306535
C       12.47319080       6.59373263       4.36356129       0.01637912      -0.00218204      -0.01870471
C       12.86986498       9.13656206       3.61464984       0.00691755       0.00825244       0.01273713
H       12.42187068       5.53960934       4.09926638       0.01333944       0.00238065      -0.03472409
H       11.50289825       6.95845690       4.69965363       0.01976788      -0.00708088      -0.00469708
H       13.23635847       6.74471458       5.12461057       0.02457252      -0.01400715      -0.02515180
H       13.62481265       9.23678155       4.39363604       0.01119357      -0.00209923       0.00939584
H       11.86905825       9.28684093       4.02143334       0.00943959       0.00247591       0.02011782
H       13.06082686       9.84486214       2.81076893       0.00255360       0.01895825       0.02158205
S        5.26884653       2.32629703       8.48165080       0.00374059       0.00009680      -0.00230616
O        5.89516872       3.68156284       8.54357922       0.01157069      -0.00338840      -0.01039659
C        3.61241790       2.50097890       7.79435988       0.00768733       0.00698197      -0.00769711
C        4.69094670       1.97259144      10.14809815      -0.00130081       0.01359482      -0.00161016
H        3.73000329       2.82941179       6.76561864       0.01326929      -0.00694571      -0.01113670
H        3.09808661       3.25399431       8.38515911       0.01499040       0.01952653      -0.01761834
H        3.09316575       1.54340883       7.83876560      -0.00209307       0.01325537       0.00267793
H        4.06746354       1.07991267      10.12770218      -0.00721831       0.01802046       0.00159967
H        4.11389682       2.83516362      10.48530215       0.00449381       0.01939359      -0.00746081
H        5.57054437       1.80943872      10.76966076      -0.00358900       0.01047985       0.00030871
