189
Lattice="12.472415037069002 0.0 0.0 0.0 12.472415037069002 0.0 0.0 0.0 12.472415037069002" Properties=species:S:1:pos:R:3:forces:R:3 energy=-103708.9921875 stress="-0.003043492091819644 0.000596677273279056 0.0006643499946221709 0.000596677273279056 -0.004461080301553011 -0.00012012921797577292 0.0006643499946221709 -0.00012012921797577292 -0.001709637464955449" pbc="T T T"
N       10.86299128       7.00998877       3.26479617       0.00399491      -0.00597364      -0.00754333
N       10.45472431       5.66461864       1.61613563       0.00395933      -0.00556415      -0.00743288
C       10.08858822       9.14756341       4.27891562       0.00512382      -0.00619900      -0.00724473
C        8.61054742       9.07811015       3.91230101       0.00568107      -0.00477344      -0.00918626
C       10.69569493       7.77042086       4.50481347       0.00401403      -0.00644237      -0.00746536
C        7.96117966      10.44680200       3.78414167       0.00754908      -0.00407106      -0.00892413
C        6.50676768      10.37744686       3.34098448       0.00636581      -0.00064948      -0.00498018
C        9.97866883       6.14676184       2.76767530       0.00465107      -0.00673771      -0.00684959
C       11.93464789       7.08334289       2.40786786       0.00269055      -0.00366238      -0.00869089
C        5.88102421      11.75201558       3.17209139       0.01043974       0.00105643      -0.00581414
C       11.68526837       6.23256451       1.37387675       0.00305110      -0.00404781      -0.00824210
C        9.75554864       4.70811822       0.77306676       0.00429690      -0.00660628      -0.00622377
H       10.66418323       9.69645979       3.52209343       0.00715801      -0.00521269      -0.00499657
H       10.20826537       9.70568907       5.21370326       0.00385141      -0.00773613      -0.00637457
H        8.07515053       8.48996709       4.67223715       0.00412506      -0.00487973      -0.01054645
H        8.48139002       8.55118462       2.95983168       0.00630970      -0.00379489      -0.00962204
H       10.06396416       7.16557627       5.15899498       0.00372076      -0.00655431      -0.00812392
H       11.68242164       7.82880242       4.95998302       0.00395417      -0.00707010      -0.00748678
H        8.04145611      10.98377206       4.73745807       0.01112988      -0.00336231      -0.00974265
H        8.52732791      11.03028846       3.05274670       0.00696492      -0.00633897      -0.01095805
H        6.46617700       9.83458302       2.39448439       0.00207031      -0.00179139      -0.00383827
H        5.92898772       9.78718169       4.06521712       0.00654015       0.00286913      -0.00238004
H        9.04126180       5.88081365       3.22015989       0.00547963      -0.00795424      -0.00628799
H       12.76045763       7.75011720       2.58200726       0.00172861      -0.00252142      -0.00879507
H       12.29656263       6.01858686       0.51184678       0.00214710      -0.00293956      -0.00901284
H        6.45390930      12.35050810       2.45877503       0.01040754      -0.00248542      -0.00854957
H        4.85748866      11.71443920       2.80162348       0.00928375       0.00358142      -0.00251367
H        5.85909107      12.30336908       4.11685205       0.01518730       0.00270570      -0.00694384
H       10.30287501       3.76770456       0.73846539      -0.00017050      -0.00920039       0.00130973
H        8.76630945       4.54193643       1.18907360       0.00136515      -0.00049896      -0.01090564
H        9.65453558       5.10973078      -0.23072632       0.01178830      -0.01140435      -0.00870061
O       12.45023859      11.31727998       2.05715954      -0.00893086      -0.03355750       0.02585840
H       12.25406098      11.12139237       1.13483485      -0.02607736      -0.02352789       0.02760148
O        3.47013438       1.32057804       2.41168819      -0.01460743      -0.00747201      -0.00173694
N        1.74755401       2.30514565       1.27799379      -0.00632865      -0.00199822      -0.00596370
C        2.42644018       3.55839259       1.02533664      -0.00110289      -0.00438845      -0.00403610
C        0.44798883       2.10292865       0.68877754      -0.00478857       0.00364875      -0.00941498
C        2.33202371       1.29091076       1.95021819      -0.01027608      -0.00304300      -0.00317830
H        1.81017621       4.39324521       1.36397197      -0.00020814      -0.00241309      -0.00793824
H        2.61047458       3.69507062      -0.04426379       0.00429649      -0.00626812      -0.00310892
H        3.36405449       3.57072622       1.57314530      -0.00394580      -0.00675146       0.00014341
H       -0.23872442       2.88147585       1.03203496      -0.00278774       0.00543642      -0.01052372
H        0.06944229       1.12191834       0.98966712      -0.00945061       0.00537407      -0.01194678
H        0.49960700       2.16001208      -0.40396955      -0.00226312       0.00386291      -0.00899383
H        1.66397371       0.41366743       2.01962674      -0.01532876      -0.00059658      -0.00338643
O        0.41504388      12.58092942       6.44001149       0.00418773      -0.00434446       0.01097962
N        1.35090035      10.80256560       5.34147154       0.00322081       0.00344542       0.00055584
C        1.99492549      11.57348425       4.29907515      -0.00053945       0.00933191       0.00295439
C        1.39352761       9.37395791       5.18053357       0.00147005       0.00483929      -0.00878370
C        0.58556656      11.37852474       6.28544586       0.00442287      -0.00048053       0.00447649
H        1.53147941      11.32218013       3.33407665      -0.00092807       0.00902003       0.00354177
H        3.06755573      11.36410276       4.28347064       0.00002044       0.01362844       0.00058435
H        1.83282352      12.62743222       4.49978215      -0.00439851       0.00774065       0.00658648
H        0.93139782       9.10040808       4.22751259      -0.00399277       0.01203111      -0.00800747
H        0.86768490       8.89480512       6.00593555       0.00563204       0.00027262      -0.00902480
H        2.42506346       9.01405983       5.17626074       0.00124636       0.00479559      -0.01632071
H        0.11161143      10.63677497       6.94132190       0.00519067      -0.00587714       0.00030771
O        8.05512637      12.64827066       8.13869943       0.01656568       0.01187426      -0.03202152
N        6.29292311      11.23476702       8.42591254       0.01543526       0.01469597      -0.00731452
C        5.97149898      11.21924166       7.01884236       0.00271884       0.00573638      -0.00292911
C        5.57465698      10.33758889       9.30729271       0.02456488       0.01713837       0.00313859
C        7.34078259      11.96746265       8.86050269       0.01498878       0.00859946      -0.01369485
H        4.89457977      11.33637970       6.87535686       0.00172365       0.00468191       0.00500033
H        6.28534729      10.28353577       6.54644064      -0.00039953       0.00402710      -0.00118989
H        6.49393231      12.04309378       6.54005701      -0.00196120       0.00367180      -0.01206636
H        4.49702013      10.42820843       9.14215721       0.02239090       0.01432210       0.01253632
H        5.78823365      10.59089171      10.34484816       0.03229054       0.02205934       0.00007078
H        5.86787822       9.30131392       9.13661509       0.02317899       0.01595715       0.00603497
H        7.49688059      11.87038631       9.94464907       0.02874130       0.01811206      -0.02417994
O        6.72519366       1.56598888      10.68486368      -0.01577270      -0.01510891       0.00217557
N        4.51717425       0.93137241      10.61662792      -0.01587246      -0.01162555      -0.00164402
C        4.32136311       1.01263380       9.18974310      -0.01327484      -0.00182597      -0.00134104
C        3.34320602       0.65136438      11.40334843      -0.01573461      -0.02007691      -0.00507517
C        5.67525759       1.26457382      11.22644857      -0.01698911      -0.01840264       0.00132364
H        3.59831004       1.79619360       8.96541801      -0.01179102       0.00010616       0.00145600
H        3.94048986       0.06258981       8.81193094      -0.01248732       0.00103846      -0.00878201
H        5.26299846       1.25663134       8.71202904      -0.01241279       0.00133588       0.00254584
H        2.59188085       1.43097857      11.25453028      -0.01625571      -0.01922208       0.00363535
H        3.61656278       0.62307203      12.45453954      -0.01555407      -0.03128402      -0.00550190
H        2.90703327      -0.30913264      11.11934094      -0.01502663      -0.01654235      -0.01690580
H        5.57185455       1.20528982      12.32297448      -0.01570619      -0.02498862       0.00056940
O        7.46765372       9.28347303      12.61896329      -0.00626785       0.01564014       0.00084639
N        9.30246094       8.27874820      11.69833249      -0.01011705       0.01021390       0.00390027
C       10.24171594       9.27274455      12.18263328      -0.00717603       0.00535512       0.00740787
C        9.80305068       7.27767816      10.78630239      -0.01324083       0.00947218       0.00392219
C        7.97383367       8.39648825      11.94614504      -0.01052362       0.01689231       0.00343275
H       10.83779952       9.65802926      11.35313744      -0.00328447       0.00375056       0.00949782
H       10.92748125       8.84521122      12.91696163      -0.01101987       0.00131831       0.00851294
H        9.68635555      10.08045420      12.65107538      -0.00469977       0.00685604       0.00700326
H       10.10490908       7.73049927       9.84012938      -0.01286767       0.00847028       0.00371334
H        9.02774427       6.54669047      10.56252002      -0.01484984       0.01116455       0.00462813
H       10.68586888       6.78267900      11.19867783      -0.01438273       0.00763039       0.00353009
H        7.38317058       7.59849950      11.46713627      -0.01202551       0.01812732       0.00102872
O       12.68739374       9.36886996       9.07195940       0.00817394       0.00799316       0.00491703
N       10.56713148      10.07291406       8.55946240       0.00813248      -0.00087708       0.00367935
C       10.70537635      11.37582331       9.18821860       0.00643822       0.00174436      -0.00214796
C        9.28917005       9.72053648       7.97805594       0.01042169      -0.00363174       0.00151359
C       11.59125629       9.20231170       8.55653109       0.01207900       0.00211170       0.00903073
H        9.96561905      11.49177235       9.98172366       0.00701961       0.00272529      -0.00170279
H       10.54180569      12.16202124       8.45300990       0.00409483      -0.00198090      -0.00550175
H       11.70772156      11.44471176       9.60051392       0.00656858       0.00559745      -0.00348933
H        8.53356854       9.56795559       8.75450002       0.00750721       0.00227921      -0.00057411
H        9.38759914       8.79263311       7.41768307       0.01228691      -0.00751208       0.00841885
H        8.94855428      10.51438074       7.31291565       0.01419953      -0.00836882      -0.00587851
H       11.33405980       8.28128679       8.00107180       0.01062062      -0.00268939       0.01581584
O        5.93502839       7.17631895       9.14242663      -0.00284719       0.01436140       0.02117458
N        3.93845181       7.45353010       8.06853247      -0.00004486       0.00711222       0.02086124
C        4.51646323       7.97005723       6.84978330      -0.00182674       0.00656701       0.01985892
C        2.50159826       7.31313196       8.11120037       0.00194678      -0.00548285       0.01745938
C        4.71983931       7.07901325       9.11063034       0.00409198       0.01106278       0.02075744
H        4.22807736       9.01221945       6.69349575      -0.00707653       0.00450149       0.01664177
H        4.16686956       7.38930288       5.99054403       0.00083998       0.00293182       0.02126804
H        5.59957315       7.89555930       6.91645941      -0.00201005       0.01171633       0.01996886
H        2.00214150       8.28209396       8.06448331      -0.00677484      -0.01055360       0.01050223
H        2.20987927       6.84076977       9.04777839       0.00290229      -0.00304015       0.01886696
H        2.16253767       6.69162075       7.27472301       0.01035348      -0.01323518       0.02004614
H        4.13051135       6.65968272       9.94183811       0.00216687       0.01009008       0.02060866
O       11.13782283       3.51614428       5.12882594      -0.00442169       0.00747389       0.00097787
N       10.45610616       1.60322529       4.05569099       0.00361487       0.00366929       0.00537022
C        9.93751992       0.94685034       5.23727645       0.00423115       0.00461316       0.00581025
C       10.26432099       0.92440643       2.78367385       0.00878058       0.00006914       0.00728485
C       11.01861459       2.81548393       4.12581519      -0.00080487       0.00666928       0.00479984
H       10.33953871      -0.06511968       5.29246283       0.00567406       0.00541532       0.00729074
H        8.84565424       0.89211379       5.19683977       0.00449169       0.00289690       0.00537096
H       10.24126100       1.50041196       6.11906358       0.00266294       0.00613886       0.00494382
H       10.95138263       0.06573123       2.64701413       0.01097360       0.00110456       0.01226473
H       10.45001736       1.63142282       1.97610488       0.00654839      -0.00120702       0.00588936
H        9.22363420       0.59639614       2.71201213       0.01079783      -0.00492238       0.00679170
H       11.37915185       3.15561156       3.13779581      -0.00096218       0.00485466       0.00332394
O        4.00990181       4.41943307       3.78554075       0.00215602       0.00104085       0.00171614
N        3.08918340       3.05770678       5.38299266      -0.00182207      -0.00145796      -0.00138672
C        4.14869865       2.07383354       5.36664585      -0.00165036      -0.00071794      -0.00089990
C        2.01712977       2.87006015       6.33809470      -0.00276235      -0.00117602      -0.00196384
C        3.11638789       4.12653872       4.56715274       0.00056386      -0.00009668       0.00151187
H        3.72112393       1.08216379       5.22805776      -0.00098358      -0.00124943       0.00314690
H        4.70827741       2.09802018       6.30418636       0.00168766       0.00260893      -0.00314900
H        4.80158542       2.28357024       4.52514846      -0.00502051      -0.00180919      -0.00355884
H        1.68285343       1.83331996       6.34206312       0.00344490      -0.00305003       0.00484780
H        1.17000438       3.48480528       6.04615473      -0.00611022      -0.00889352      -0.00791062
H        2.33721747       3.14847870       7.34825545      -0.00720625       0.00769754      -0.00318655
H        2.20638534       4.74634810       4.67650990       0.00222391       0.00076112       0.00043786
O        5.87274506       5.90917892       1.65723884       0.00070971       0.00169188      -0.00183475
N        6.87009292       4.01871452       2.46026971      -0.00409812      -0.00218390      -0.00851031
C        6.40578818       3.16059503       1.38726686      -0.00853406       0.00143397      -0.00927025
C        7.63389826       3.38007556       3.50467096      -0.01119224      -0.00776306      -0.00732157
C        6.47118957       5.30704379       2.52962440      -0.00174457      -0.00095558      -0.00588858
H        5.68878697       2.43784449       1.78777834      -0.01505896       0.00734681      -0.01072475
H        7.24518940       2.62703725       0.93310730      -0.01196656      -0.00577478      -0.00639182
H        5.92021017       3.77090554       0.63121939      -0.00151797       0.00437039      -0.01089261
H        7.05924048       2.58387462       3.98765031      -0.01829559      -0.00280795      -0.00815281
H        7.92399334       4.10166857       4.26566296      -0.00690104      -0.00992046      -0.00710428
H        8.53748692       2.93312972       3.08700822      -0.01418453      -0.01503377      -0.00554332
H        6.77877691       5.79103357       3.47628159       0.00076565      -0.00497998      -0.00401789
O        8.50390768       5.55139864       8.29634834       0.01136720       0.00580049      -0.01123005
N       10.72584006       5.01736363       8.10346137       0.00883056       0.00037773       0.00558007
C       10.64145438       3.73058467       8.76330019       0.00087054       0.00050938       0.00413789
C       12.00315178       5.39015996       7.54456212       0.01143353      -0.00497985       0.00991013
C        9.63279907       5.77496117       7.89884168       0.00930262       0.00176051      -0.00161517
H       11.34985643       3.69425725       9.59475100      -0.00148615      -0.00321523       0.00582227
H       10.89192320       2.93580798       8.05661582      -0.00042931       0.00000146       0.00427490
H        9.62999950       3.58438586       9.13233612      -0.00025514       0.00438921       0.00095397
H       12.77654375       5.33838152       8.31321881       0.00943184      -0.01284377       0.01104286
H       11.95037488       6.41501677       7.18033909       0.01848697      -0.00331011       0.01400696
H       12.25344825       4.73676386       6.71010224       0.00973564      -0.00300094       0.00803593
H        9.87904859       6.67990986       7.31328201       0.01782221       0.00064817      -0.00155005
O        4.88899278       3.78332888       9.45860118      -0.01369729       0.00738364      -0.00082350
N        5.96749025       3.99970904       7.43606717      -0.00646412       0.00424427       0.01046926
C        7.00472048       3.01392832       7.65244179      -0.01017579       0.00209256       0.01526548
C        6.03046403       4.77224051       6.22285089      -0.00049673       0.00043429       0.00994771
C        5.00561474       4.25711405       8.34129358      -0.00945142       0.00492051       0.01096261
H        7.97243965       3.44644418       7.40652318      -0.00771141      -0.00001961       0.01933388
H        6.84775535       2.14025772       7.01264839      -0.00824603       0.00263125       0.01366475
H        7.00186704       2.69329486       8.69103422      -0.01522663       0.00186116       0.01420268
H        6.95869518       5.35093349       6.20348819       0.00215933      -0.00331992       0.00971402
H        5.19105500       5.45967142       6.18491922       0.00274539       0.00422251       0.00494627
H        5.96356230       4.13955308       5.33992205      -0.00048749      -0.00120804       0.01048285
H        4.27331982       4.97447766       7.93322079      -0.00325334       0.00834185       0.00606233
O        1.75122229       6.58853486      -0.23353210       0.00345683      -0.00475121      -0.01002169
N        2.93252284       8.29532908       0.72518239      -0.00441920       0.00000238      -0.00933412
C        1.92647450       9.30808496       0.47630153      -0.00335446      -0.00109906      -0.01806693
C        4.16690467       8.73323815       1.34690362      -0.00867306       0.00221903      -0.00285772
C        2.75926783       7.02455980       0.32908861      -0.00013840      -0.00154400      -0.00489569
H        2.35765800      10.11186169      -0.12610434      -0.00041093      -0.00263858      -0.01805739
H        1.54750450       9.76285789       1.39954683      -0.00863521       0.00084434      -0.02088475
H        1.10427442       8.85761251      -0.07348827       0.00018154      -0.00268127      -0.02181584
H        4.67422468       9.46951909       0.71815897      -0.00382285      -0.00060859      -0.00191727
H        4.83325864       7.88591734       1.49398598      -0.01092671       0.00212529       0.00432377
H        3.95298812       9.19691558       2.31375811      -0.01424089       0.00571309      -0.00591186
H        3.62275864       6.38526948       0.57130197       0.00133032       0.00179860      -0.00174759
