200
Lattice="13.752052699811864 0.0 0.0 0.0 13.752052699811864 0.0 0.0 0.0 13.752052699811864" Properties=species:S:1:pos:R:3:forces:R:3 energy=-910597.9375 stress="0.0012024056632071733 0.0006403890438377857 -0.00014672813267679885 0.0006403890438377857 -2.7250054699834436e-05 -3.7691445868404116e-05 -0.00014672813267679885 -3.7691445868404116e-05 -0.0001256828982150182" pbc="T T T"
Ac      13.88392738      12.25915281      -0.71269990      -0.00075251      -0.01541049      -0.00803750
B        4.87913977      13.19511902       8.28325589      -0.01932535       0.00304442       0.00860866
F        6.06366585      13.42708915       8.97643795      -0.03401279       0.00336210       0.03227246
F        3.91917507      12.63182028       9.18180953      -0.03670543       0.00539798      -0.00980014
F        4.35346405      14.41561053       7.81319568      -0.00715268       0.00335681      -0.00324947
F        5.07973571      12.33275592       7.21120163       0.00114655       0.00140345       0.01487839
B        9.48283849      12.94031609      10.38816368       0.01406136       0.00426327      -0.00332440
F        8.49746667      12.71064731      11.30327827       0.02336544      -0.00725794       0.00514978
F       10.59419683      13.70481994      11.15381971       0.01536298      -0.00124572      -0.00770645
F       10.11213081      11.75564362      10.00950930       0.01358727       0.00850874      -0.01686826
F        9.15790209      13.74768757       9.35208160      -0.00169303       0.00820649       0.00427639
B        8.70315524      11.35547919       3.37593159       0.01668505       0.01560989      -0.00464459
F        8.40006423      12.50361213       2.65421023      -0.00736767       0.01073635      -0.00104886
F        7.53736578      10.81754516       3.92868531       0.02913296      -0.01070875      -0.00579160
F        9.25340936      10.40941514       2.44463401       0.03673217       0.03021938      -0.00739771
F        9.64470967      11.61364756       4.35941362       0.01108003       0.03004593      -0.00266349
O        9.26184880       3.12905125       5.85333432      -0.01232839       0.00116670      -0.00626934
O       10.21028078       4.98200180       5.02872884       0.01736730      -0.01037097       0.00099480
C        9.00705756       5.10035443       7.12006161       0.01239431       0.00056678      -0.00172430
C        9.56516017       4.44972705       5.90045694       0.00595820      -0.00422725      -0.00109082
H        7.92283257       4.97884781       7.11202619       0.01118809       0.01153090      -0.00294238
H        9.40074678       4.61346186       8.01374080       0.00640873      -0.00441791      -0.00165753
H        9.25507127       6.15635107       7.11532394       0.02396983      -0.00228164       0.00034428
H        9.61187155       2.79017983       5.01600720      -0.01741636      -0.00246952      -0.00677058
O        5.93956163       7.23303614       8.39128625      -0.00192153      -0.01154125       0.00963596
O        3.73552590       7.44700246       8.05377232       0.00038826      -0.00544064      -0.00421894
C        4.70213182       8.30955191      10.07303943      -0.00655697       0.00550297      -0.00564182
C        4.73428804       7.62997847       8.74647011      -0.00228330      -0.00491062       0.00036901
H        5.06706476       7.61741592      10.83452092      -0.00199438       0.01475428       0.00020382
H        5.39120698       9.15465651      10.05200415      -0.01055682       0.00851226      -0.01509806
H        3.69316929       8.63157521      10.30775037      -0.00775717       0.00314106      -0.00792762
H        5.87718965       6.69599473       7.54988151       0.00198315      -0.01378015       0.01091796
O        3.47957007       5.24984956       6.58577656       0.00300854      -0.00171655      -0.00498223
O        5.70720463       5.42913046       6.49227240       0.00416034      -0.01313359       0.00512437
C        4.70257811       3.32021514       5.99255945      -0.00463246      -0.00307131      -0.01809262
C        4.68698696       4.75958202       6.36952019       0.00127593      -0.00614220      -0.00414738
H        4.58036483       2.71784612       6.89770685       0.00243929      -0.01330613      -0.02399889
H        3.87636068       3.08214310       5.32599054      -0.00966373       0.00526514      -0.01476076
H        5.64842126       3.06778901       5.52594763      -0.00794655       0.00218861      -0.02756094
H        3.57099773       6.14587668       7.02162361       0.00562720      -0.00308058      -0.00169707
O       12.59322120      10.74818295       9.08035942       0.01542938       0.00925340      -0.01428556
O       13.45895742      12.02043405      10.67297821      -0.00545001       0.02378331      -0.01276555
C       12.63272460      13.08340753       8.70024348      -0.00094314       0.00405994      -0.02468662
C       12.90360243      11.90181201       9.54318790       0.00370811       0.01285398      -0.01419074
H       13.56493601      13.42867437       8.24184039       0.00205189       0.00925598      -0.01630424
H       11.92225686      12.84502287       7.91574272       0.01095834      -0.01299915      -0.03092372
H       12.24742290      13.89754262       9.31238896      -0.01647998      -0.00148413      -0.02640674
H       12.66043110       9.99882779       9.80090988       0.01433805       0.00352475      -0.02462882
O        7.26424284       7.81635015       3.56790959       0.00563920       0.01915571      -0.00284785
O        7.48166151       7.93682851       5.79616192      -0.00317204      -0.00394404      -0.00132143
C        5.43670715       8.70858497       4.80623682      -0.00033426       0.00530267      -0.00320165
C        6.81235493       8.12014418       4.81750385      -0.00122941       0.00560132      -0.00209552
H        4.89996679       8.48146072       3.88756884       0.00305610       0.00988981      -0.00647439
H        4.88018770       8.36075056       5.67402640      -0.00383340       0.00281703      -0.00646876
H        5.55286315       9.79154345       4.88487875       0.00059731       0.00522768       0.00008253
H        8.20882199       7.58814504       3.66784008       0.00809419       0.02984921      -0.00304502
O        5.38551546       2.42933860       0.69105479      -0.00669807      -0.01280749      -0.00490963
O        5.06468433       3.57341004       2.59096417      -0.02561292       0.01470006      -0.02336764
C        3.52462849       1.81864113       2.02838721      -0.00937235      -0.00580162      -0.00885679
C        4.71407237       2.70527493       1.83127681      -0.01588529      -0.00163275      -0.01462907
H        2.73841664       2.40468693       2.50077861      -0.01279166      -0.01140302      -0.00829430
H        3.16976053       1.42135606       1.08057771      -0.00832951      -0.00780174      -0.00815785
H        3.83108892       1.00112342       2.68140320      -0.00431344      -0.00482360      -0.01023480
H        6.10852308       3.07119668       0.63065376      -0.01143360      -0.00852877      -0.01227750
O       10.19075659       8.38808970       3.70177657       0.00517136       0.02669212       0.01010466
O       12.04710235       9.63623246       3.84188892       0.01910341       0.00384033       0.01784629
C       11.50109305       8.12609908       5.64065949       0.00147882       0.00133473       0.00996923
C       11.31443302       8.79628141       4.32472837       0.00902629       0.01045746       0.01338977
H       10.75424163       8.52232676       6.33286824       0.00293763       0.00085726       0.01200382
H       11.32030533       7.05729490       5.54077623      -0.00314238       0.00268310       0.00217267
H       12.50244410       8.32357356       6.00800831       0.00189769      -0.00627914       0.01270971
H        9.95868351       9.08377421       3.04474168       0.02001608       0.02742586       0.00530306
O       10.61317593       8.17157314      10.08309057      -0.00365004      -0.01377630       0.01527637
O       12.64198397       8.87495118      10.73597347       0.01201802      -0.01235260      -0.03567379
C       11.94876673       6.63373877      11.24098184       0.01170368      -0.00165880       0.01051670
C       11.78151236       7.99056134      10.67054551       0.00788751      -0.00915630      -0.00619241
H       11.21521977       6.49972154      12.03862092       0.00680819       0.00392109       0.00671488
H       11.73475552       5.90413067      10.45884747       0.01671664      -0.01023076       0.01705888
H       12.95436383       6.49987012      11.62863853       0.01075342       0.00424732       0.01510320
H       10.51648309       9.04814972       9.66593125      -0.00743368      -0.02330828      -0.00355047
O        7.78651824       1.46428566       2.97264845      -0.01129653       0.00982261       0.03239661
O        5.91749676       0.23847691       3.00421779      -0.00635195       0.00205940       0.02398545
C        7.18041243       0.48367246       5.03979004      -0.00438012      -0.00628160       0.02495146
C        6.87075443       0.69030013       3.60145451      -0.00868297       0.00160450       0.02691025
H        8.00409460      -0.23188327       5.09829812       0.00171381       0.00008209       0.01669473
H        7.51691677       1.40763223       5.50675526      -0.00991768      -0.00598176       0.02835377
H        6.31895740       0.07450101       5.55931382       0.00044745      -0.01539912       0.02555133
H        7.56499477       1.41568422       2.03139901      -0.00821146       0.01274525       0.03153107
O        4.53037277       4.61693909       9.34309460       0.00092375       0.00213581      -0.00077350
O        3.77478006       4.12035023      11.39129375       0.00811741      -0.00996843      -0.00114477
C        2.21915098       4.84407976       9.68395189       0.00170642      -0.00910582       0.00497681
C        3.54736690       4.48115311      10.25952406       0.00461686      -0.00576270       0.00120628
H        2.25978500       5.86915741       9.31265338       0.00014343      -0.01176897      -0.00235886
H        2.01785622       4.20768753       8.82236056      -0.00189755      -0.01543379       0.01049380
H        1.44022367       4.75126002      10.43152784       0.00489938      -0.00450551       0.00868599
H        5.35554725       4.32637498       9.75843286       0.00431299       0.00561158      -0.00438854
O       11.40864091      12.08220984      12.68828718       0.00228541      -0.01232708      -0.00818034
O        9.71959546      12.79869846      13.97395956       0.01492801      -0.00657564       0.00436384
C        9.82258244      10.45650151      13.42570891      -0.00595043      -0.00211495      -0.01414420
C       10.25561302      11.86680070      13.43623192       0.00156248      -0.00955100      -0.00480798
H        9.73019800      10.13113978      12.38881810      -0.00988739       0.00544017      -0.01715121
H       10.58218807       9.82745488      13.89610546      -0.00631791      -0.00949442      -0.02109516
H        8.90757327      10.34501803      13.99489476      -0.00468937      -0.00517671      -0.01219940
H       11.10807827      12.85098056      12.00097647       0.00835368      -0.01379031      -0.00741267
O        3.90276843       6.59532563       1.13520216      -0.01486656      -0.00376356      -0.00646210
O        2.19370147       7.79868645       1.93792140      -0.00639179       0.00965726      -0.01060134
C        3.11652357       6.03979822       3.30350133      -0.01308080       0.01316950      -0.00178373
C        2.98817835       6.90669957       2.10142948      -0.01151019       0.00680953      -0.00691677
H        3.16935646       4.99041017       3.01482268      -0.01727671       0.01126361       0.00429046
H        4.06755955       6.24314836       3.79997014      -0.01153049       0.01322602      -0.00499827
H        2.29255331       6.22763843       3.98493913      -0.01113668       0.01992990      -0.00131682
H        3.75493966       7.22339871       0.41141218      -0.01355538      -0.00842625      -0.01077145
O        8.20267441       1.96746762      11.94916308       0.00895506       0.00008804      -0.00982738
O        9.32694788       3.18017803      10.43047380       0.01002061       0.00004870      -0.00946036
C        7.04786314       2.52750454       9.97886284       0.00673574       0.00811944      -0.00663185
C        8.31143771       2.61881464      10.76302006       0.00818968       0.00150794      -0.00852053
H        6.93665662       1.50675213       9.59947653       0.00091749       0.00927266      -0.00782789
H        6.18424288       2.70812045      10.62235784       0.00919370       0.01073458      -0.00389712
H        7.08371337       3.21197467       9.13484641       0.00812202       0.01025884      -0.00487144
H        9.09838182       1.90438609      12.30893081       0.00869560       0.00005378      -0.00895456
O        6.73319259       9.54176186       1.39069398       0.01335770       0.01242769       0.00516921
O        4.52496225       9.76640799       1.34339018       0.01204473       0.00782582       0.03255194
C        5.91523657      11.64912836       0.77872622      -0.00158315      -0.00048333      -0.01993037
C        5.65841397      10.25096068       1.17873699       0.00890189       0.00604609       0.00798985
H        5.98605634      12.23781324       1.70283803      -0.00232804       0.01528086      -0.03041849
H        6.86970601      11.76230014       0.27130084      -0.00670290      -0.00282160      -0.02975364
H        5.10106564      12.04112371       0.17617266      -0.00853509      -0.01733506      -0.02047250
H        6.58328823       8.74405621       1.94364646       0.02432409       0.02425450       0.02627605
O        2.55805789       4.20216510      14.14147186      -0.00378305      -0.00595415       0.00018762
O        1.37997896       5.62631696      12.86401813       0.00190365      -0.00418735      -0.00191718
C        0.73299518       3.31007316      12.95857586      -0.00617561      -0.00249630       0.00159356
C        1.56014505       4.51517719      13.30225373      -0.00207366      -0.00383234      -0.00011465
H        1.22692677       2.80353450      12.12513217      -0.00624098      -0.00604239       0.00387773
H        0.67909255       2.62863577      13.80763808      -0.01008490       0.00017929       0.00336379
H       -0.26448394       3.61075126      12.65245152      -0.00521962      -0.00048530       0.00021911
H        3.13626408       4.98289871      14.23340472      -0.00272974      -0.00632742       0.00242221
O        8.85720392       9.14704644       8.20428487       0.00986481       0.00900006       0.01188684
O        7.07841308      10.23329488       9.02666836      -0.00397599      -0.01281988       0.00703812
C        8.38551334      11.28385506       7.29402523      -0.01518185       0.00439471       0.01037502
C        8.01216490      10.22541900       8.26725192      -0.00347906      -0.00072950       0.00875401
H        8.06872762      12.25414997       7.66429492      -0.04039880      -0.00313148       0.00639842
H        9.44863398      11.26243623       7.06749796      -0.01210862       0.02790369       0.02572278
H        7.85380811      11.07063619       6.36334235       0.00251592      -0.00598977       0.00315523
H        8.40238953       8.42658637       8.66685928       0.01634958       0.00634863       0.01432323
O        2.12915015      -0.59518245      11.48396985      -0.00521842       0.00217302       0.00255805
O        2.58485366       1.34659122      10.42896527      -0.02441841       0.02746216      -0.01904884
C        4.27196839       0.44806641      11.90927441      -0.00873566       0.01071658      -0.00833964
C        2.98835340       0.52690578      11.18379272       0.01458746      -0.01524055       0.02616823
H        4.70008776       1.43988006      12.00697661      -0.00844345       0.01065230       0.00401238
H        4.16288962      -0.00944252      12.89090441      -0.00410579       0.00364895      -0.00728640
H        4.93434104      -0.18167153      11.30500033       0.00086376       0.02037948      -0.00753179
H        1.63199663      -0.72481067      10.65637406      -0.00706097       0.00765752       0.00974810
O        2.41548311      10.80293961       0.68723537       0.00642712      -0.01025507       0.01855594
O        0.31029326      10.81743617       1.24062450       0.00006634      -0.02040680      -0.01121262
C        1.86618178      10.51671339       3.03030207      -0.01366712      -0.00632536       0.01011780
C        1.49515326      10.67770662       1.60803839      -0.00394148      -0.01336426       0.00592011
H        2.67858376       9.80381805       3.13915771      -0.00526765       0.00255653       0.01903863
H        2.22631706      11.49120333       3.38269467      -0.02984959      -0.00000772       0.01032864
H        0.99630060      10.20694507       3.60365605      -0.01601458      -0.01151608       0.00327249
H        3.40287691      10.42909740       0.99443294       0.00575125      -0.00167465       0.02560219
O        7.46400702       8.03874189      12.42028647      -0.01757452      -0.01143205       0.00592819
O        9.43013715       7.35910635      13.25981170      -0.01071090      -0.00355373      -0.00158760
C        8.01875024       5.77057983      12.12666845      -0.00513329      -0.00656718      -0.00652099
C        8.40328323       7.10602869      12.67433937      -0.01278424      -0.00764240      -0.00151384
H        6.97829541       5.54389840      12.36074810      -0.00550786      -0.01098902      -0.01206655
H        8.11587975       5.79314317      11.03900536      -0.00053241      -0.00231818      -0.00610819
H        8.68444631       5.00564144      12.51297123      -0.00401115      -0.00582716      -0.00680725
H        7.78990795       8.88093853      12.77046265      -0.02085492      -0.01121169       0.00819510
O       -0.19599904       5.10438202       1.93066306      -0.00358877      -0.00811833      -0.00311449
O       -0.46026175       6.56303862       3.60768913      -0.00154582      -0.01524943       0.00342786
C       -1.01715913       7.25132354       1.35916771       0.00505695      -0.00277013       0.00617182
C       -0.54411556       6.32563187       2.43100390      -0.00016238      -0.00941549       0.00274873
H       -0.27294147       7.29472881       0.56248449       0.00231715      -0.00720717       0.00361663
H       -1.94544253       6.86874536       0.93032367       0.00022686       0.00626457       0.00870951
H       -1.18750930       8.23413024       1.79073284       0.01604833      -0.00214173       0.00872001
H        0.07291213       4.58004789       2.69857195      -0.00808287      -0.01380821      -0.00539637
O       10.98254979      13.88653692       2.22660021       0.01356784      -0.00710130      -0.00183296
O       12.87128732      13.51766826       1.09507594       0.01434405      -0.02110653       0.00560415
C       12.84335534      13.25705893       3.48407362       0.01082353       0.00060149       0.00819561
C       12.23527951      13.58047565       2.17677744       0.01386824      -0.00986627       0.00374080
H       12.39510022      13.83561105       4.28643876       0.00379118       0.00505519       0.00105354
H       12.60364546      12.20166977       3.67326042       0.01061241       0.00159228       0.01346695
H       13.92199489      13.38222779       3.46454859       0.01109841       0.00339268       0.01476557
H       10.51019562      13.73082408       1.36229720       0.01511750      -0.01541189      -0.00062627
O        2.34259545      13.97984932       4.76121691       0.00751309      -0.00379616       0.01120633
O        0.71082635      14.45950825       6.21808420       0.01226467       0.00025213       0.01495269
C        1.99599643      12.44925307       6.53809675      -0.00856070      -0.01505792      -0.00164229
C        1.59581079      13.71449499       5.86348535       0.00610811      -0.00517142       0.00889561
H        2.69633038      11.86750957       5.94745988      -0.00185244      -0.01047493       0.00179853
H        2.50804920      12.71641278       7.46530213      -0.02630746      -0.03076134       0.01218909
H        1.10942842      11.86700967       6.78719631      -0.01545899      -0.01345332      -0.02375884
H        2.07225197      14.85902075       4.45830405       0.01600638       0.00080538       0.01695035
O       14.17920128       6.21717031       6.97715465       0.01789467      -0.00016034       0.00061151
O       12.30326072       5.72394957       8.09912295       0.02009785       0.01145771       0.00905514
C       13.17514236       4.14323464       6.49803917      -0.00065238       0.00958389      -0.00071108
C       13.14313200       5.41139702       7.28736318       0.01284564       0.00742903       0.00355756
H       12.85151038       4.38315530       5.48243968      -0.00274768       0.01446633       0.00107214
H       14.18529808       3.73949974       6.45133359      -0.00385065       0.00220169      -0.00577511
H       12.49351233       3.41591812       6.92794444      -0.00394678       0.01349077       0.00070406
H       14.06319935       7.03439587       7.48261104       0.03017658      -0.00269109       0.00750783
