196
Lattice="14.011793971826481 0.0 0.0 0.0 14.011793971826481 0.0 0.0 0.0 14.011793971826481" Properties=species:S:1:pos:R:3:forces:R:3 energy=-1096339.625 stress="0.0002979412383865565 0.00012209454871481284 0.0003636415203800425 0.00012209454871481284 -0.0004319800063967705 0.00046811670472379774 0.0003636415203800425 0.00046811670472379774 -0.0014477286022156477" pbc="T T T"
Ac      12.20466331      11.58421627      -1.04255599      -0.00695920      -0.01382196      -0.00068849
Br       0.19274463      13.08188352       4.53949582      -0.02427024      -0.01420219      -0.02370753
O        1.61797227      13.82704797       4.28517331      -0.02724445      -0.00876176      -0.03349815
O       -1.01120758      14.11417062       4.16451151      -0.02847111      -0.01361597       0.00096387
O        0.09702055      11.78823231       3.53997406      -0.03378557      -0.00437856      -0.03380013
O        0.08134108      12.59116155       6.07336565      -0.00342855      -0.02823132      -0.02737427
Br      11.58189682      12.12220238       9.55687246       0.01630449       0.00683260      -0.00665557
O       12.89347422      11.68490495      10.60095555       0.00088882      -0.00924438       0.00196242
O       12.16725472      13.27940814       8.58631690       0.04528993      -0.00993717      -0.00933623
O       11.35375323      10.73904229       8.69528207      -0.00292040       0.00569928      -0.00031555
O       11.27566036      13.35178513      12.76290065      -0.00876552      -0.01196933      -0.00617519
Br       6.72491914       9.85994191      14.21852715       0.00718658      -0.00833704       0.01106375
O        6.10038679      10.14514818      15.67995553       0.01076108       0.00325048       0.01199746
O        6.13934614       8.46368474      13.62069452      -0.01031446      -0.00087881       0.01476359
O        6.33504464      11.09041276      13.23895150       0.01741207      -0.00436711       0.01002645
O        8.35479585       9.74440628      14.32260112       0.00341523      -0.02491718       0.00965585
O        5.03211330       8.87499499       5.56535475       0.00206009      -0.00140908      -0.00086355
O        3.21336485       8.89016567       6.71029591      -0.00020909      -0.00167549      -0.00358773
O        4.55963896       7.07931546       6.87029703      -0.00508919      -0.00380802      -0.00971967
C        6.28586868       8.28593338       5.13203529       0.00192267      -0.00466755       0.00245297
C        7.13571298       9.36493941       4.52483233       0.00705096      -0.00626445       0.00729561
C        4.30518243       8.17137556       6.41960514      -0.00129592      -0.00519186      -0.00375187
C        2.18521653       8.18524906       7.40920279       0.00023064      -0.00171968      -0.00205437
H        6.75531011       7.81204203       5.98799755      -0.00248739      -0.00682107       0.00367707
H        6.04844437       7.52445181       4.38800978       0.00186111      -0.00317088       0.00109246
H        8.08929940       8.92781212       4.23019936       0.00629869      -0.00901952       0.00883940
H        6.67117554       9.78229097       3.63474982       0.01106718      -0.00249971       0.00722456
H        7.33439120      10.16467766       5.23493739       0.00800323      -0.00888839       0.00987428
H        1.74707706       7.42482852       6.76426972       0.00421762      -0.00644383       0.00120798
H        1.44255063       8.93973753       7.65278184      -0.00258602      -0.00295538      -0.00756092
H        2.58055558       7.72084961       8.31209745      -0.00003821       0.00464207       0.00096226
O       11.39406568       9.94109479       1.33809619       0.00397720      -0.00341433       0.00991060
O       10.47747966      11.84764365       1.14326966       0.00262311      -0.00337219       0.01040205
O       10.04289061      10.65364578       3.03095993       0.00772792      -0.00294976       0.00445271
C       11.68994017       8.69148448       2.00427461       0.00094460      -0.00566857       0.00832659
C       11.71520470       7.61814229       0.94869868       0.00136827      -0.00299770       0.00524342
C       10.56160606      10.80054304       1.96866019       0.00111508      -0.00544924       0.01853096
C        9.57974263      12.92613676       1.51139231      -0.00201657      -0.00876106       0.01136458
H       12.65435433       8.81862996       2.49688456       0.00031999      -0.00823731       0.00985657
H       10.92349384       8.52164035       2.75833156      -0.00058565      -0.00608169       0.00618377
H       12.04893359       6.67440856       1.38046511      -0.00133087      -0.00455043       0.00421531
H       10.72435533       7.48519285       0.52016964       0.00201392      -0.00047791       0.00280572
H       12.39219301       7.88653544       0.13943305       0.00375576      -0.00269357       0.00767484
H        8.67342897      12.49858049       1.93174765      -0.01139033      -0.01300684      -0.01659052
H        9.39691799      13.45297363       0.57944819       0.01904583       0.00771397       0.01752484
H       10.08378725      13.57017754       2.22857941      -0.01653808      -0.02422263       0.03317517
O       11.37042122       3.25021739       3.26188047      -0.00238627      -0.00203416      -0.00063579
O        9.58185235       2.19667940       2.66607198      -0.00233740      -0.00163439      -0.00150737
O        9.66580176       3.10307121       4.74283466      -0.00325346      -0.00143686      -0.00182033
C       12.15193190       3.91868403       4.28052772      -0.00239325      -0.00369176       0.00049353
C       13.50554019       4.20587253       3.68826979      -0.00075078      -0.00689957       0.00296056
C       10.15543680       2.87090915       3.66477453      -0.00258726      -0.00151247      -0.00144100
C        8.24293712       1.74132023       2.94290771      -0.00149444      -0.00329210      -0.00046881
H       11.62385741       4.82586715       4.58453557      -0.00064886      -0.00236115      -0.00055838
H       12.22189070       3.25872299       5.14590997      -0.00561808      -0.00394335       0.00049767
H       14.10569869       4.76935992       4.40320282      -0.00046770      -0.00898283       0.00423254
H       14.02146599       3.27677395       3.44812997      -0.00271196      -0.00787005       0.00346934
H       13.41144179       4.80192895       2.77889304       0.00253545      -0.00614947       0.00329325
H        8.24356308       1.03279261       3.77012182       0.00007633      -0.00205761       0.00061777
H        7.91001011       1.27696875       2.01922406      -0.00113709      -0.00482498       0.00021064
H        7.60962595       2.58704813       3.19642155      -0.00259522      -0.00387040      -0.00136036
O        6.95023410       4.62163750       4.37068703      -0.00660622      -0.00188506      -0.01207946
O        8.16445430       4.98796017       2.63001064      -0.01134656       0.00086821      -0.01435587
O        8.47951397       6.29511232       4.45217324       0.00028443      -0.00853753      -0.00989807
C        6.51326527       4.94144016       5.71602146       0.00664109      -0.01355034      -0.00525914
C        5.81599378       3.73363468       6.27010968       0.00432616      -0.01574814      -0.01328614
C        7.91926103       5.39238210       3.88798810      -0.00518709      -0.00347328      -0.01207912
C        9.18019498       5.75207953       1.96836877      -0.01040881      -0.00059450      -0.01495992
H        7.38179799       5.23433292       6.30479480       0.01384032      -0.02604418      -0.01018769
H        5.83626055       5.78776990       5.66350898       0.01154244      -0.00893801       0.00989729
H        5.35973220       4.00286067       7.22335901       0.01833411      -0.02656036      -0.00419141
H        5.02201195       3.39976583       5.60043935      -0.00661580      -0.00007537      -0.00724147
H        6.51228537       2.91157286       6.41719312      -0.00029598      -0.02280857      -0.03417445
H        8.79791263       6.74331421       1.72239101      -0.00574853       0.00330326      -0.00580335
H        9.42358240       5.19789212       1.06720472      -0.01926636       0.00447008      -0.02010620
H       10.05172248       5.84632047       2.61436613      -0.00628325      -0.01119338      -0.01960626
O        9.44789035       3.47438254      12.95165496       0.00405741      -0.00179680       0.01033042
O        7.45504092       4.24000487      13.27589535       0.00790302       0.00722712       0.01157128
O        7.76607410       1.99780079      13.31028435      -0.00239956       0.00536418       0.01209511
C       10.36345701       2.35166306      12.74097772      -0.00106847      -0.00601953       0.01129640
C       11.72464693       2.93763969      12.49238313       0.00119218      -0.01320305       0.00712911
C        8.19277322       3.11957590      13.19184606       0.00304762       0.00472188       0.01136199
C        6.05378036       4.00767662      13.44599851       0.00754392       0.01412550       0.01764750
H       10.34382935       1.70153889      13.61152518      -0.00233536      -0.00295359       0.01350158
H       10.00551531       1.77551412      11.89120312      -0.00497003      -0.00671145       0.01360643
H       12.41985060       2.11458335      12.33221267      -0.00387286      -0.01692779       0.00476053
H       11.72085597       3.57815500      11.60931848       0.00149646      -0.01307561       0.00728987
H       12.05921598       3.52710335      13.34684277       0.00709146      -0.01501279       0.00583328
H        5.65298709       3.47449939      12.58325331       0.00171033       0.01411395       0.02047232
H        5.60616655       4.99374699      13.52859699       0.01245984       0.01625982       0.01759228
H        5.86858777       3.41868295      14.34297970       0.00891356       0.01690283       0.01972154
O       10.40354416       6.16908151       7.30906384       0.01279974       0.01022398       0.00324786
O       10.93501993       7.92639632       6.18027444       0.01345183       0.01303431       0.00877005
O       12.59879261       6.69755736       7.10781409       0.01280022       0.01319015       0.01016811
C       10.76175203       5.02465637       8.11873845       0.01214540       0.00851262       0.00050230
C        9.48252553       4.32250121       8.48124846       0.01270533       0.00410762      -0.00632992
C       11.42956266       6.91227407       6.89093976       0.01325667       0.01258518       0.00767232
C       11.90158606       8.90224284       5.74869560       0.01325561       0.01493528       0.01222920
H       11.42490804       4.38043684       7.53940948       0.01560891       0.01192638       0.00078291
H       11.30233431       5.38492006       8.99490202       0.00825292       0.00676736       0.00353646
H        9.69422611       3.45748315       9.10951254       0.01264612       0.00315854      -0.00757666
H        8.81504576       4.99300888       9.02289901       0.00890516       0.00097513      -0.00730677
H        8.97751511       3.95874144       7.58811590       0.01723528       0.00519779      -0.00923833
H       12.28741245       9.45034492       6.60622916       0.00725783       0.01692532       0.01357028
H       11.35368414       9.57410429       5.09446376       0.01557171       0.01350886       0.00885366
H       12.71689375       8.41501344       5.21504421       0.01783347       0.01795742       0.01721416
O        3.67344744       8.97222583       2.91667609      -0.00839266       0.00254875      -0.00480387
O        4.30532533       6.95428893       2.53885207      -0.01075935      -0.00092487       0.00278112
O        2.67800097       7.29487752       4.08057221      -0.01200926       0.00731999      -0.00550067
C        2.92031986      10.00922487       3.61466926      -0.00715914       0.00262678      -0.00588077
C        3.78725985      11.23820354       3.67047840      -0.00496680       0.00103027      -0.00394942
C        3.46643956       7.72063236       3.26772587      -0.01382488      -0.00065151       0.00078297
C        4.19906544       5.55102399       2.78524321      -0.01445311      -0.00017659       0.00927304
H        2.00652269      10.18897768       3.04770177      -0.00586033       0.00472613      -0.00791574
H        2.64936289       9.63769842       4.59873522      -0.00987776       0.00333750      -0.00642043
H        3.18712652      12.08121522       4.01616590      -0.00340337       0.00147806      -0.00288785
H        4.62120747      11.08511167       4.35330243      -0.00496158      -0.00193229      -0.00461726
H        4.18163107      11.47003909       2.68426073      -0.00442888       0.00209495      -0.00353265
H        4.18833827       5.34447368       3.85322667      -0.00764799       0.00458373       0.00994563
H        5.07635789       5.10599142       2.32487982      -0.01875785      -0.00443891       0.00538363
H        3.28745462       5.15176388       2.33693353      -0.01852849       0.00150349       0.01696667
O        6.76226239      12.01091737      10.68656670      -0.00180957       0.00493258       0.01023410
O        5.03899623      10.70382476      10.49573473      -0.00612873       0.01054348       0.01355768
O        7.09064708       9.77776108      10.64018106      -0.00888276       0.00496316       0.00100068
C        8.18174943      12.13179787      10.96114418      -0.00035712       0.00165343       0.00669347
C        8.53162625      13.58503448      11.06108445       0.00220374       0.00057560       0.01005540
C        6.36877189      10.74592066      10.62855864      -0.00412655       0.00535911       0.00737254
C        4.53745541       9.36810193      10.36974691      -0.01043585       0.01217351       0.01401629
H        8.36593486      11.60909359      11.90179350       0.00038927      -0.00087041       0.00509411
H        8.71322039      11.62426913      10.15381512      -0.00341287       0.00303102       0.00409526
H        9.54207205      13.66877075      11.47934134       0.00311014      -0.00382150       0.00963233
H        8.49802674      14.07940056      10.09041967       0.00273797       0.00293840       0.01136208
H        7.85710398      14.09059801      11.75112543       0.00423922       0.00038704       0.01206112
H        4.97441592       8.88042345       9.49912026      -0.01620349       0.01261120       0.01116088
H        3.46411387       9.47826194      10.24001981      -0.01062560       0.01524393       0.01971258
H        4.76952964       8.80016163      11.27079691      -0.00709702       0.00988525       0.01174232
O        0.96321031      10.16376325       0.20637690       0.01219764       0.02530134      -0.01921777
O        0.41634513      12.24284328       0.49673637       0.00367475       0.00941539      -0.02059916
O        2.57804577      11.64718439       0.80963467       0.00797319       0.02093709       0.00330424
C        1.95063578       9.08098844       0.14922104       0.00219029       0.01759662      -0.02312377
C        1.37497346       7.85584833       0.80895461       0.01080647       0.01593435      -0.02164415
C        1.45276699      11.36898069       0.53922593      -0.03390670       0.00343229      -0.02349994
C        0.73981521      13.56503050       1.03295886      -0.01998764       0.01140010      -0.02035010
H        2.16338314       8.91211093      -0.90610331       0.00856932       0.01737363      -0.02186278
H        2.85765134       9.42239983       0.64032894       0.00657102       0.02100094      -0.02032310
H        2.12993906       7.06847022       0.79288556       0.01059616       0.01912139      -0.01888341
H        1.11854766       8.04791263       1.85088371       0.00528701       0.01964269      -0.02352238
H        0.49161977       7.48717009       0.29060741       0.01075813       0.01433190      -0.02357924
H        1.37360465      13.44747338       1.90632813      -0.02480099       0.01389799      -0.01120546
H       -0.21198666      14.00709471       1.30665556      -0.02041945       0.00836639      -0.02865960
H        1.24438206      14.13907902       0.26026804      -0.01046015       0.01566228      -0.01332694
O        5.46744047      10.87025760       7.56987402      -0.00638711       0.00318500       0.00642973
O        7.12166036       9.50472688       7.70486169      -0.00176791       0.00767231       0.00208580
O        7.55669133      11.72682317       7.80908170      -0.00928628       0.00826263       0.00595416
C        4.91923719      12.20762189       7.57718892      -0.00812697       0.00233339       0.00358216
C        3.43114823      12.10466387       7.37837338      -0.00714022      -0.00037912      -0.00202213
C        6.79262257      10.79857649       7.70590297      -0.00493741       0.00684667       0.00520265
C        8.52819110       9.23936751       7.83584891      -0.00057159       0.01200354       0.00090879
H        5.15977171      12.64991724       8.54301943      -0.01229572       0.00440109       0.00373000
H        5.41435660      12.78387426       6.79363011      -0.00636125       0.00207841       0.00463837
H        2.99394519      13.10212574       7.33115473      -0.00851349      -0.00127202      -0.00461096
H        3.18304901      11.59008903       6.45399125      -0.00239009      -0.00174832      -0.00263590
H        2.96877396      11.56760704       8.20663418      -0.01010570      -0.00045405      -0.00394890
H        9.09363614       9.80632452       7.10146624      -0.00261186       0.01691017       0.00332960
H        8.63989125       8.17403236       7.66068333       0.00300711       0.01309577      -0.00291874
H        8.86169403       9.50517350       8.83573634      -0.00133646       0.00942487       0.00172502
O       10.14644873       7.55548436      10.91579151      -0.00422409      -0.00259216      -0.00959820
O       12.12242578       7.90704941      10.20314245      -0.00147583      -0.00860205      -0.00800582
O       11.33026758       9.22803228      11.87103414       0.00420723      -0.01452181      -0.00254467
C        9.02201533       7.74724586      11.82864405      -0.00163689       0.00384855      -0.00843239
C        7.91190302       6.88049376      11.30969773      -0.00513506       0.00470185      -0.00215998
C       11.20320192       8.31687657      11.05909376       0.00076974      -0.00715190      -0.00538975
C       13.38042557       8.59617089      10.18900087       0.00056337      -0.01142666      -0.00475562
H        9.34520979       7.44738876      12.82510727      -0.00061330       0.00876486      -0.00755674
H        8.75258345       8.79810970      11.84440741       0.00070378       0.00447071      -0.01373742
H        7.06328758       6.98148531      11.98363959      -0.00445440       0.01372170      -0.00268950
H        7.60657176       7.21392569      10.31952244      -0.00409602      -0.00120360      -0.00439429
H        8.22270193       5.83766098      11.27467441      -0.01004256       0.00330144       0.00550895
H       13.23201389       9.66451413      10.04546931       0.00317900      -0.01259774      -0.01416581
H       13.91153243       8.15956722       9.35018848       0.00479646      -0.01975831       0.00249124
H       13.91774174       8.40138810      11.11981764      -0.00657560      -0.00425687       0.00020185
O        7.85060696       1.48998571       8.23680691       0.01196568      -0.00655106       0.00605768
O        9.70899292       1.01990490       7.25245708       0.01013374      -0.01456381       0.00702003
O        7.76683869       0.46927685       6.21140687       0.00840020       0.00653160      -0.00079703
C        6.48522846       1.11786431       8.50219281       0.01052542      -0.00186092       0.00481242
C        5.97647278       1.99038174       9.61976265       0.01217687       0.00034311       0.00377604
C        8.39148960       0.93198352       7.13186685       0.01036188      -0.00336164       0.00454330
C       10.48727368       0.38068585       6.22101086       0.00734994      -0.01045404       0.00227183
H        5.89458863       1.22108299       7.59189353       0.01201007      -0.00018842       0.00416863
H        6.48826360       0.06825755       8.79096895       0.00694163      -0.00186247       0.00526167
H        4.94146265       1.72372906       9.83915430       0.01125666       0.00348093       0.00297476
H        6.56454896       1.84329616      10.52544877       0.01084687      -0.00047671       0.00442377
H        6.01103076       3.04447482       9.34447263       0.01550353       0.00002100       0.00305435
H       10.58592010      -0.67617962       6.45473355      -0.00260981      -0.01391256      -0.00921643
H       11.46535220       0.84471874       6.25033715       0.01115045      -0.01961567       0.00933308
H       10.01564149       0.52119695       5.25333261       0.01015747       0.00351719       0.00316927
