196
Lattice="13.454454174705582 0.0 0.0 0.0 13.454454174705582 0.0 0.0 0.0 13.454454174705582" Properties=species:S:1:pos:R:3:forces:R:3 energy=-871002.625 stress="0.0007960760267451406 -4.3602014557109214e-05 2.6903750040219165e-05 -4.3602014557109214e-05 0.0005253060371614993 6.59269280731678e-05 2.6903750040219165e-05 6.59269280731678e-05 0.0007419601897709072" pbc="T T T"
Ac      11.75567456      12.69521957       1.91306065       0.00051292      -0.00089094      -0.00153868
Cl       0.40153864      13.24693104       6.11420160      -0.00313446       0.00146596      -0.00161733
Cl       5.14435695      12.39471405       3.51956340       0.00181513      -0.00297564       0.00803624
Cl      10.68725768      13.71364755      12.88759739       0.00049303       0.00196063      -0.00021191
O       11.05022125      10.47210007       3.22943755      -0.00034259      -0.00241182      -0.00237018
C       11.33106050       9.07614802       2.98364490       0.00039591      -0.00257945      -0.00294750
H       11.15521266       8.87067151       1.93251060       0.00386342      -0.00195673      -0.00321928
H       10.65756983       8.46532129       3.58146101      -0.00144351      -0.00290716      -0.00510262
H       12.36732863       8.84009033       3.22813591      -0.00014514      -0.00268552       0.00050998
H       10.92263159      10.56049128       4.19736698       0.00114248      -0.00211387      -0.00308663
O       10.26759544       3.55607589       1.73837720       0.00344527       0.00056213       0.00059587
C       11.15102175       2.64277796       2.34590838       0.00280914      -0.00094652      -0.00064314
H       11.56610556       3.07204358       3.25901631       0.00255903      -0.00278816       0.00024945
H       11.99522528       2.39515078       1.68822672       0.00293700      -0.00017718      -0.00085427
H       10.59590736       1.72456967       2.62583400       0.00219963      -0.00133803      -0.00261195
H       10.45763818       3.57798051       0.77393447       0.00186305       0.00003945       0.00029956
O        2.34296739       7.95162852       2.50116139      -0.00387257       0.00271526       0.00392149
C        3.50777404       7.18317382       2.80847556      -0.00284681       0.00256224      -0.00003257
H        3.92036509       6.71404077       1.90774232      -0.00629216       0.00197272      -0.00099793
H        3.29869844       6.40449621       3.54576019      -0.00027961       0.00311297       0.00151318
H        4.25006679       7.86930288       3.21623440      -0.00120273       0.00275031      -0.00280389
H        1.63167137       7.34323707       2.21785867      -0.00418515       0.00262155       0.00422641
O        7.71531399       3.80628358       9.04424662      -0.00337270      -0.00603271       0.00112689
C        7.78346397       2.41140688       8.78011811      -0.00203830      -0.00671570       0.00096387
H        6.88178131       1.88448578       9.10890363       0.00181195      -0.00843565       0.00822011
H        8.65640040       1.94533105       9.24841477       0.00257564      -0.00384058      -0.00462790
H        7.86981566       2.30386163       7.70000515      -0.00937908      -0.00771307       0.00058764
H        7.72438617       3.93121774       9.99611408       0.00580956      -0.00510782      -0.00179121
O        3.13565671       9.49460799       0.36557118      -0.00679511       0.01225378       0.00922562
C        4.50008985       9.85247805       0.52070458      -0.00396645       0.00416754       0.00513618
H        4.66123540      10.51429862       1.37871784       0.00265482       0.00161743       0.00578076
H        4.80680051      10.37821808      -0.38438623      -0.00438618       0.00443992       0.00480255
H        5.14444671       8.97057134       0.63149073      -0.00893594       0.00027704       0.00051679
H        2.86521782       8.97064088       1.14470002      -0.00618851       0.00924039       0.00752415
O        0.09832920       0.42811080      13.78020433       0.00202528      -0.00181758      -0.00017822
C        1.18048192       1.35857742      13.59216244       0.00724986      -0.00726025       0.00388243
H        1.81787562       1.29800927      14.46683188       0.00563621      -0.01346003       0.00444405
H        0.79291494       2.37414389      13.49031595       0.01320349      -0.00479969       0.00618269
H        1.74444543       1.09083000      12.69990273       0.00724871      -0.00789081       0.00373185
H       -0.49177081       0.48197727      13.00872674       0.00323260       0.00229055      -0.00121534
O        7.43421381       9.08341362       8.56791009      -0.00175827      -0.00307828       0.00112435
C        7.19251938       7.69871371       8.80133645      -0.00206958      -0.00163555       0.00855219
H        6.15579798       7.52030360       9.09867459      -0.00075817       0.00029707       0.01366371
H        7.85368979       7.36475878       9.60021147       0.00147425       0.00145397       0.00737238
H        7.40686129       7.10473563       7.91438853      -0.00573397      -0.00617887       0.01073271
H        6.80353904       9.36074883       7.85153819      -0.00373133      -0.00540401       0.00071123
O        2.06397715       4.03440813      10.01594955      -0.00314784       0.00653806       0.00090368
C        0.87536738       3.24825644       9.95478401      -0.00168824       0.00433585       0.00011207
H        0.23574400       3.56872555       9.12945218       0.00046730      -0.00022346      -0.00314578
H        0.33349034       3.39118998      10.88989306      -0.00495589       0.00740471      -0.00190887
H        1.09516144       2.18359184       9.83445593       0.00038764       0.00411054       0.00550837
H        2.52326744       3.90685562       9.15834671      -0.00137537       0.00577480       0.00172950
O        5.76604539       9.55990861       6.61675927      -0.00061357       0.00154567       0.00425541
C        4.34521759       9.56324925       6.73314370      -0.00100219       0.00644811      -0.00125851
H        3.90959339       8.69880777       6.22222596      -0.00192198       0.00794983      -0.00309357
H        3.92513478      10.47521702       6.30211435       0.00388737       0.00789827      -0.00246899
H        4.08349191       9.50817009       7.78879746      -0.00510795       0.00657304      -0.00191477
H        5.98231046       9.59656637       5.65430253       0.00361107      -0.00005125       0.00497255
O        8.11718110       8.82204484      13.10483843       0.00229964       0.02255142      -0.02649589
C        7.64488639       7.53116320      12.71265171       0.00109465       0.00169127       0.02163595
H        8.48499367       6.84570449      12.55987213      -0.00323680       0.00834922       0.00599854
H        7.07785868       7.59897149      11.78279310      -0.02651991      -0.01420258       0.02696848
H        6.99472539       7.12341805      13.48706343       0.02596737       0.01844419       0.03794834
H        7.92960560       9.42457293      12.34255173       0.00165679      -0.00188455      -0.02397057
O        1.08000613       6.55333604       9.69401023      -0.00654843       0.00468364      -0.00213200
C        0.94730057       6.51185204       8.27761348      -0.00362568       0.00304088      -0.00253385
H        0.15185947       5.82667810       7.96808555      -0.00093326       0.00045022      -0.00339732
H        1.87972564       6.20710677       7.79153520      -0.00162637       0.00566451      -0.00036910
H        0.70522428       7.52005209       7.93866642      -0.00600202       0.00220898      -0.00374957
H        1.47897664       5.69659144       9.95945454      -0.00559100       0.00532169      -0.00086928
O        9.16835089      12.18667590       1.89958093       0.00180733       0.00018728      -0.00226274
C        7.95719627      12.73020275       1.29666550      -0.00243863      -0.00217061       0.00284541
H        8.21869856      13.70116100       0.89013446      -0.00121031       0.00235070       0.00356863
H        7.17639405      12.81316814       2.05411159       0.00139633      -0.00311838       0.00121218
H        7.63271149      12.07345675       0.48850576      -0.00035682       0.00214696      -0.00007129
H        8.91075968      11.42782785       2.43611940       0.00155744      -0.00319779      -0.00215334
O        0.41305222      12.18336833       3.28823754      -0.00055696      -0.00395450       0.00053254
C        1.75617173      11.65547266       3.07897967      -0.00128914      -0.00716343       0.00329444
H        1.74499225      10.56914476       3.16619361      -0.00477137      -0.00747386      -0.00022496
H        2.43980092      12.08421525       3.80647284      -0.00259151      -0.01125401       0.00702757
H        2.09374062      11.94176620       2.08550864       0.00318035      -0.00520550       0.00539348
H        0.37025734      12.47607867       4.23574409      -0.00106907      -0.00204716      -0.00021073
O       11.69277020       4.07793122       7.11530942       0.00537295      -0.00288409       0.00694275
C       11.47203463       2.89144852       7.84605114      -0.00024532      -0.00438976       0.00263843
H       10.48899335       2.45449798       7.63123795      -0.00220880       0.00064985      -0.00000979
H       11.53359654       3.05755429       8.92755336      -0.00091714      -0.00845159       0.00363639
H       12.24315486       2.17031992       7.57158968      -0.00329226      -0.00652884       0.00135937
H       11.02980848       4.72243190       7.43761659       0.00105383      -0.00336917      -0.00056720
O        2.97487086       0.91262675       7.59043071      -0.00493637       0.00358178      -0.00259250
C        3.17005773       0.07132259       8.72621851      -0.00189365       0.00221116      -0.00400652
H        2.22886480      -0.12950601       9.24296954      -0.00066459       0.00109666      -0.00216249
H        3.84047910       0.59685836       9.40588747      -0.00051004       0.00159563      -0.00483385
H        3.63264845      -0.87435771       8.43552727      -0.00206514       0.00276005      -0.00631952
H        2.25663157       0.54073808       7.04678699      -0.00472723       0.00321393      -0.00222090
O        0.08466515       4.57181628       3.85810101       0.00237857      -0.00467378      -0.00244719
C        0.51961673       5.26542319       5.02892641       0.00219597      -0.00812660      -0.00015017
H        1.48787045       5.74310368       4.86627901       0.00786045      -0.01778418       0.00567996
H        0.58453777       4.58527240       5.87723191      -0.01063849      -0.00779811       0.00098088
H       -0.22845179       6.02339455       5.26839130       0.00816107      -0.00035033      -0.00612480
H        0.39566700       3.64445818       3.89667343       0.00251482      -0.00465836      -0.00502568
O        3.66166655       4.40336227       4.97821508       0.00360650       0.00051543       0.00153673
C        4.86738341       3.77401574       4.56960452       0.00193068      -0.00129886      -0.00029916
H        4.81905704       2.68270443       4.65184289      -0.00039592      -0.00146401      -0.00274043
H        5.73199462       4.12734141       5.14119695       0.00310141      -0.00453751       0.00002784
H        5.02646250       4.02515665       3.52037820       0.00178297       0.00070015       0.00012913
H        3.45117182       4.09853908       5.87678602       0.00433220       0.00141766       0.00231176
O       12.31035857      10.69932729       0.48401622      -0.00130412       0.00125608      -0.00353075
C       13.56337602       9.99504163       0.29177787       0.00200263       0.00860147      -0.00648877
H       13.49405287       8.99637481       0.72470520       0.01278158       0.01168168       0.00223610
H       14.35951872      10.54107661       0.78384649       0.00222699       0.01814300      -0.01699556
H       13.80284829       9.92909972      -0.76825636      -0.00496365       0.00149347      -0.00754252
H       11.60008841      10.12379262       0.05104274       0.00048222      -0.00285488      -0.00165538
O        2.53295301       8.89055280       9.90922565      -0.00073373       0.00053370      -0.00572959
C        3.75782205       8.59235021      10.54764919      -0.00597560       0.00114433       0.00514811
H        4.24430509       7.71619080      10.09758460      -0.00841643      -0.00703490       0.01852168
H        3.63315965       8.41867162      11.62146134      -0.01331928       0.01394447       0.00636095
H        4.42265876       9.44870013      10.41802199      -0.00050038      -0.00432196      -0.00073171
H        1.98899237       8.08250196       9.95390450      -0.00308368       0.00251409      -0.00496526
O        9.86217873       5.82428772       8.14466668      -0.00519139       0.00178191      -0.02513629
C       10.40072421       7.11719857       7.91243899       0.00038107       0.00118087      -0.01173850
H        9.78712912       7.90332198       8.36353951      -0.00370318       0.00056297      -0.01562284
H       10.49581339       7.32182083       6.84092610       0.01541233       0.00695533      -0.00917894
H       11.39578085       7.14171007       8.35844605      -0.00513551      -0.00268365       0.00084697
H        9.06509805       5.71116740       7.59338931       0.00024319       0.00670934      -0.03619559
O        7.89820103       5.58931148       6.00573670       0.00146428      -0.00153100      -0.00391996
C        7.08331033       6.61583454       5.44272505      -0.00153519      -0.00021592       0.00226887
H        6.77007094       6.35479074       4.43058576      -0.00333674       0.00329450       0.00187173
H        7.61329292       7.57502699       5.40559965      -0.00300980       0.00057462       0.00510444
H        6.19527949       6.74388973       6.05981430      -0.00011623      -0.00443152       0.00525400
H        8.39302669       5.21368065       5.25269135       0.00047028       0.00151268      -0.00598110
O        0.73037177       1.90514719       3.84166784       0.00241908      -0.00534448      -0.00765669
C        2.15308324       1.74952379       3.68212710       0.00361452      -0.00221581      -0.00031740
H        2.39526345       0.85944605       3.10092538       0.00956038      -0.00759211       0.01022805
H        2.64503334       1.66552408       4.65093115       0.00006729       0.01045423       0.00245765
H        2.53011409       2.63923064       3.18216074       0.00219324      -0.00632322      -0.00864559
H        0.49113833       1.36320665       4.61904717       0.00034185      -0.00349542      -0.00697514
O       13.09727303      -0.22033816       9.24748763      -0.00015205       0.00659563      -0.00022954
C       11.68816135      -0.31363299       9.29644689       0.00039536      -0.00310905       0.00170029
H       11.28912051      -0.91079570       8.46854699       0.00355501      -0.00228454      -0.00085858
H       11.20633881       0.67170737       9.26814545      -0.00613992      -0.00619146       0.00612733
H       11.41043356      -0.79011464      10.23578561       0.00447024      -0.00883618      -0.00038207
H       13.36014857      -0.15961146       8.31568792      -0.00145537       0.00620178       0.00002247
O        6.01953530       9.64032377       3.95994085       0.00659215      -0.00125526       0.00527084
C        7.21583112       9.57391931       3.22241441       0.00364155      -0.00158603       0.00018969
H        8.04861009      10.06246113       3.75834492       0.00425148       0.00520778      -0.00677978
H        7.10016751      10.04456305       2.24091441      -0.00246530      -0.00803657      -0.00229830
H        7.48904803       8.52853190       3.06520112       0.00684676      -0.00140452       0.00614090
H        5.64144398      10.57094049       3.82064308       0.00571602      -0.00167529       0.00647999
O        3.35840109       3.52044580       7.65689306      -0.00046629       0.00245854       0.00226174
C        4.72750189       3.75145374       8.00917929       0.00049002      -0.00556129       0.00426985
H        5.39579867       3.12013104       7.42355717      -0.00217132      -0.00577983       0.00130178
H        4.89864291       3.57045414       9.07309058      -0.00082531      -0.01203658       0.00339004
H        4.95867747       4.79308681       7.79164674       0.00554200      -0.00556615       0.01006679
H        3.20551026       2.53978687       7.63023432      -0.00473181       0.00335631       0.00030570
O        7.79572065      10.24897092      10.91379534      -0.02358708       0.02239943      -0.00746182
C        8.69385413      11.32062746      10.66746333      -0.00446767       0.00869949      -0.00252307
H        8.15465206      12.23197657      10.39148454       0.01097706       0.01622340      -0.00681402
H        9.39812219      11.07180140       9.86738305      -0.00236611      -0.00264636       0.00306588
H        9.26054837      11.51989428      11.57657864      -0.00963083      -0.00034801       0.00145438
H        7.54819867       9.85127466      10.04236102      -0.01265040       0.01301911      -0.01192994
O       10.73429392      10.83621075       5.91556248       0.00841820       0.00080460      -0.00374603
C       11.78378980      10.22936596       6.70988846       0.00282934      -0.00192806      -0.00045609
H       11.95129036       9.20078255       6.38893396       0.00487635       0.00031209      -0.00129243
H       11.51413401      10.25156252       7.76455195       0.00592038       0.00042466      -0.00300717
H       12.67606440      10.82962274       6.55222493       0.00553557       0.00061567      -0.00314963
H        9.87631110      10.54204350       6.24150906       0.00108123      -0.00168863       0.00038785
O       13.63182880       6.37877798       1.89535453      -0.00267194       0.00182512       0.00341904
C       13.03101024       5.93875005       0.68566258       0.00219455       0.00170210       0.00082877
H       11.94039005       6.04000988       0.72399426       0.00172901      -0.00763797      -0.00020010
H       13.26894575       4.89337387       0.46971054       0.01159815       0.00447822      -0.00321931
H       13.40941320       6.55153803      -0.13278152      -0.00161016       0.00825162       0.00378573
H       13.58649423       5.64994088       2.55730264      -0.00014409      -0.00027074       0.00115141
O       10.97850810       3.35518548      12.60092967       0.00002298       0.00137371      -0.00067364
C       10.11653033       3.94817356      11.63181695      -0.00112372       0.00281490       0.00137170
H        9.07908286       3.96523248      11.98744391      -0.00114900      -0.00106464       0.00062153
H       10.16193443       3.41553380      10.68079569       0.00106249       0.00705107      -0.00119486
H       10.45166897       4.97018604      11.46713857      -0.00331865       0.00449026       0.00605286
H       10.86074087       2.38792982      12.55949390      -0.00013998       0.00104892      -0.00188296
O       10.71383683       8.99755340      12.91316913       0.00447863      -0.00412630      -0.00024575
C       10.96117897       8.58177220      11.56882818       0.00541480      -0.00333367       0.00040269
H       11.87506745       9.05954585      11.21707406       0.00753066      -0.00472970       0.00105176
H       10.13341395       8.87304406      10.91756995       0.00746378      -0.00075866      -0.00089459
H       11.09811574       7.49856256      11.51700628       0.00358053      -0.00320837      -0.00091812
H        9.73158229       8.92473789      13.08210838       0.00071065       0.00663875      -0.00707754
O       11.00289407      -0.27706268       4.41728220      -0.00090481      -0.00110835      -0.00153571
C       10.71499321       0.86497248       5.25336822      -0.00574419      -0.00092247      -0.00295016
H       10.78552862       0.56381663       6.29419898      -0.01622778      -0.00237597      -0.00254822
H        9.71490136       1.23608069       5.03063524      -0.00280485       0.00132982      -0.01139825
H       11.45480164       1.64049521       5.07376861      -0.00222079      -0.00231253       0.00504852
H       10.97402798      -1.05190526       5.00765356       0.00432120       0.00012952      -0.00114501
O        9.27192103       5.23043838       3.69177963       0.00212044      -0.00122374       0.00031835
C       10.53241164       5.71930604       4.14026129       0.00391006      -0.00539555       0.00080876
H       10.32931817       6.58055842       4.77872450       0.00671566      -0.00423904       0.00018883
H       11.16214786       6.03488742       3.30430748       0.00519671      -0.00816077       0.00075635
H       11.07736568       4.97758285       4.72906201       0.00098996      -0.00690022       0.00146329
H        9.44581164       4.61112992       2.96041168       0.00062431      -0.00185291       0.00061228
