190
Lattice="12.959972521878393 0.0 0.0 0.0 12.959972521878393 0.0 0.0 0.0 12.959972521878393" Properties=species:S:1:pos:R:3:forces:R:3 energy=-120789.5 stress="-0.0013543106615543365 -0.0006237234047148377 0.0007249811023939401 -0.0006237234047148377 -0.0020799976773560047 -0.00037408382922876626 0.0007249811023939401 -0.00037408382922876626 -0.0007741087465547025" pbc="T T T"
N       12.60587807      11.29945848       2.90406312       0.01402792      -0.00785244       0.02967880
H       13.32165649      11.73940406       3.47797281       0.00604171      -0.01540619       0.04590535
H       12.21046011      10.46851057       3.41333490       0.00816536      -0.01378852       0.01611748
H       11.81542912      11.95967565       2.61058553       0.01553780      -0.01110625       0.02604927
H       13.05308227      10.96012685       2.05897439       0.02967530       0.00221375       0.03358144
O        8.09365536       0.19143640       2.57132676       0.00428975       0.01491532      -0.01117676
O       10.59740476      -0.29819375       1.91331719      -0.00431335      -0.02381229       0.01919755
O        9.85937409       2.10635394       2.72030592       0.02777731      -0.01628864      -0.00029808
O        9.08761757       1.23309888       0.40577570       0.04016376      -0.00737599       0.00128376
Mn       9.40144816       0.81116813       1.89606199       0.01682124      -0.00911357       0.00526978
O        8.25446593      10.40032447       9.77903261      -0.00258154       0.02335531      -0.00996479
C        9.30273421      11.37810877       9.93264250       0.00425065       0.01490325      -0.00214285
C        9.16462979      12.11039104      11.24978286       0.00623860       0.00720990       0.00211644
C       10.67471834      10.75069830       9.78055751       0.00039780       0.00715482      -0.00272090
H        9.14192260      12.06109638       9.09634621       0.01004975       0.02114955       0.00232255
H        9.88537597      12.92424256      11.32621276       0.00937280       0.00361763       0.00704531
H        8.16843261      12.53596144      11.37286519       0.00803363       0.01071739       0.00315819
H        9.34838098      11.43482586      12.09223704       0.00250145       0.00174896      -0.00173921
H       11.44717106      11.52020062       9.83206801       0.00467097       0.00218229       0.00495175
H       10.75813576      10.24211525       8.82329461       0.00019835       0.01358095      -0.00606543
H       10.86035713      10.03335103      10.58524872      -0.00609094       0.00066926      -0.00725725
H        8.23613847       9.87267984      10.58475117      -0.00689530       0.01760915      -0.01391482
O       12.62621616       7.42526460       6.42752577      -0.02038514       0.01970500      -0.01934016
C       11.88229335       8.01200718       7.52007959      -0.00911897       0.00961898      -0.00568745
C       10.40239943       7.92625660       7.21568455      -0.01225477      -0.00014994       0.01572061
C       12.21797231       7.37299294       8.85293838       0.01627031       0.00691411      -0.01407593
H       12.21005790       9.05502551       7.51825557      -0.01694192       0.01180178      -0.00609036
H        9.79795611       8.41328834       7.98275843      -0.00368870      -0.00223108       0.02358268
H       10.19178225       8.41195125       6.26391225      -0.02770443      -0.00222290       0.01835114
H       10.09337851       6.87893539       7.15744729      -0.00725898      -0.00172868       0.02083679
H       11.72521353       7.92575507       9.65501294       0.03082415       0.00508826      -0.00418730
H       13.29179606       7.37575075       9.04269146       0.01967804       0.00832978      -0.03476358
H       11.84455385       6.34966557       8.90283395       0.01875313       0.00642237      -0.00999871
H       12.44559129       6.47735670       6.43716341      -0.01816165       0.01924002      -0.02476105
O        5.84471565      12.01070798       1.39326915      -0.00662173      -0.00102544       0.00863636
C        6.24074892      10.79858593       0.76920293      -0.00390818       0.00584161      -0.00299516
C        7.30528096      10.07598777       1.58425406      -0.00192815       0.00130674      -0.01030499
C        4.98146316       9.97472855       0.59181787      -0.00178170       0.00419086      -0.00974236
H        6.65848741      11.01378545      -0.22763090      -0.00511241       0.01630343      -0.00115258
H        7.57488401       9.12398295       1.11839597       0.00217219       0.00751154      -0.02028564
H        8.20842650      10.68360508       1.67318176      -0.00419399       0.00345533      -0.00288070
H        6.93478378       9.87651594       2.59173276      -0.00239550      -0.01108001      -0.01310918
H        5.19407929       9.03992684       0.07228099       0.00087307       0.00944537      -0.01809142
H        4.24289356      10.53221440       0.01595310      -0.00386669       0.00669825      -0.00448842
H        4.54803383       9.73862093       1.56731048      -0.00035855      -0.00578739      -0.01173846
H        6.63848755      12.46283200       1.73229754      -0.00635222       0.00214204       0.00361078
O        2.54705816      10.82767225       4.45290955      -0.03880131      -0.00010708      -0.00977349
C        2.57069809       9.64515526       5.28450539      -0.02718632      -0.00389791      -0.01470910
C        2.09038836       8.43828325       4.50275564      -0.00553596      -0.00657976      -0.02294821
C        3.94596667       9.40937525       5.87761564      -0.02789515       0.01321457      -0.00721806
H        1.86164588       9.86954188       6.08640568      -0.03535816      -0.01789127      -0.01833114
H        1.97973764       7.58006042       5.16473955       0.00036430      -0.00979336      -0.02631056
H        1.12066888       8.63928203       4.04757332      -0.00411718      -0.01712310      -0.03020989
H        2.81154919       8.17387156       3.72770501       0.00394575       0.00483024      -0.01779730
H        3.92287125       8.54654186       6.54565585      -0.02006206       0.01050229      -0.01071465
H        4.30299651      10.27457883       6.43450319      -0.04394039       0.01587678      -0.00128479
H        4.66711828       9.17931126       5.08857800      -0.01972096       0.02648278      -0.00344737
H        3.36104638      10.84058125       3.93652704      -0.03139609       0.01968163       0.00247458
O        6.67327344       0.07682149       8.45539787      -0.00316745      -0.02023780       0.01476648
C        6.13686695       1.23598879       9.11852448       0.00082285      -0.01571159       0.00928035
C        5.22676724       0.79914578      10.25259807       0.00239542      -0.00672060       0.01380765
C        7.22949455       2.17912179       9.59100176       0.00320983      -0.01423168       0.00104100
H        5.54415507       1.73916689       8.34854522       0.00006464      -0.01882121       0.00799659
H        4.85442013       1.66584190      10.80312474       0.00559924      -0.00262439       0.00936755
H        4.38867433       0.20938099       9.87816252       0.00026719      -0.00676471       0.01884749
H        5.78024076       0.19278227      10.97495438       0.00228408      -0.00387789       0.01609075
H        6.78012228       3.06217981      10.05117638       0.00544756      -0.01005101      -0.00491978
H        7.85787139       2.50470985       8.76147316       0.00248969      -0.02135433      -0.00209397
H        7.85473809       1.70685863      10.35116385       0.00371206      -0.00981887       0.00318179
H        6.94039209      -0.57224642       9.11898874      -0.00369780      -0.01953728       0.01583913
O       11.49830428       9.08098045       4.03181714      -0.00343436      -0.00232515       0.01605362
C       10.58667096       8.36925892       3.15173474      -0.00028241      -0.00306830       0.01421407
C       11.02016210       8.60687413       1.71493218      -0.00402986       0.00888517       0.01552510
C       10.54680485       6.90340895       3.52398349       0.01104536      -0.00539303       0.00487359
H        9.59711092       8.81633970       3.30087859      -0.00378859      -0.01183867       0.01729028
H       10.38477188       8.04423755       1.02921641      -0.00278531       0.01068458       0.01302006
H       10.93403810       9.66140626       1.44317506      -0.00880520       0.01057602       0.02396822
H       12.04949667       8.27307213       1.56463509      -0.00286397       0.01444589       0.01204221
H        9.94685798       6.33848978       2.80970051       0.01143257      -0.00440458       0.00392877
H       10.12273172       6.75620172       4.51786929       0.01646721      -0.01453270       0.00580066
H       11.55430082       6.48373221       3.51707121       0.01367502       0.00166598      -0.00273623
H       11.86427064       8.47538380       4.69993629      -0.00988090      -0.00019595       0.02257746
O       11.02613526       3.85444886       0.78326258       0.00905514       0.01267096       0.00779116
C       12.38667990       3.90068216       1.21688834       0.01363856       0.00541613      -0.00532445
C       12.89283739       5.28814921       0.87916653       0.01887298       0.00108385      -0.01336223
C       12.51231939       3.57816109       2.69647229       0.02532308       0.00730628      -0.00592709
H       12.96816347       3.15914382       0.64980842       0.00397927       0.00099969      -0.00901440
H       13.93284493       5.41292238       1.18370724       0.02444150      -0.00882608      -0.02932268
H       12.81572594       5.47526038      -0.19363175       0.00436288       0.00103999      -0.01220366
H       12.28026612       6.02469392       1.39760263       0.03391157       0.00755387      -0.00474273
H       13.52483073       3.78010851       3.05512004       0.02913851       0.00482355      -0.01536650
H       12.28649834       2.53015123       2.89285048       0.02388079       0.00866748      -0.00193889
H       11.82281817       4.18144391       3.28685738       0.03259538       0.01056354      -0.00118271
H       10.54774929       3.21554777       1.33493689       0.01582968       0.00399214       0.00334353
O       10.82550404       2.99579224       5.34565060      -0.00365448       0.00685096      -0.01066190
C        9.93006472       2.43832883       6.31779394       0.00015658       0.00197899      -0.01062033
C        8.55596147       2.22410800       5.70681114      -0.00058305      -0.00311033      -0.00728199
C       10.51786887       1.16557900       6.90862706       0.00468570       0.00272596      -0.01362792
H        9.84402176       3.19437034       7.10154074      -0.00091885       0.00039083      -0.00937837
H        7.83352714       1.92804149       6.46864049       0.00313359      -0.00663681      -0.00521496
H        8.21331427       3.14731648       5.23982675      -0.00624931      -0.00478864      -0.00621095
H        8.58609549       1.43647822       4.95329398       0.00039038      -0.00292192      -0.00722136
H        9.88948462       0.79650291       7.72167103       0.01017082       0.00301998      -0.00950683
H       11.51891944       1.35288746       7.29455022       0.00722580       0.00342596      -0.02072758
H       10.56128465       0.37615479       6.15905515      -0.00016609       0.00225373      -0.01340707
H       10.55625658       2.65409914       4.48147591       0.00222021       0.00047088      -0.01009312
O        8.35439614      12.10195567       6.36098469      -0.00498950      -0.00494680       0.00798178
C        7.68054259      11.44945751       5.29179813      -0.00356036       0.00295711       0.00254893
C        7.56695660       9.97329606       5.61186603      -0.01096574       0.00160199      -0.00635028
C        6.33817600      12.09389762       5.00232630      -0.00095516       0.00786328       0.00206152
H        8.32136398      11.57355977       4.41208242      -0.00008243       0.00554752       0.00564110
H        7.12411963       9.40514216       4.79042218      -0.00987159       0.00834108      -0.01151010
H        8.55943581       9.57495399       5.81286270      -0.01371589      -0.00378235      -0.00437225
H        6.96040165       9.82085194       6.50624204      -0.01573089      -0.00039093      -0.01000938
H        5.83512246      11.58528647       4.17688033       0.00252715       0.01593512      -0.00490924
H        6.47584788      13.13526332       4.71418416       0.00186130       0.01029126       0.01275639
H        5.69788679      12.05444051       5.88657951      -0.00514348       0.00080458      -0.00125182
H        7.69822033      12.47464682       6.96898688      -0.00608971      -0.01636140       0.01365392
O        2.25037475       2.76302267       9.97188347       0.00645635      -0.00134414       0.00309923
C        2.52370275       4.08412820      10.44772620       0.00152701      -0.00061011       0.00365436
C        2.91840773       4.07507136      11.90913890       0.00423062       0.00011925       0.00275064
C        3.56820274       4.74813568       9.57367350      -0.00269175       0.00466332       0.00283775
H        1.57454531       4.61463936      10.33770672      -0.00088573      -0.00469062       0.00587083
H        3.03246482       5.09535803      12.28125358      -0.00167074       0.00034852       0.00351735
H        2.17233566       3.56331066      12.51355944       0.00881635      -0.00496522       0.00383307
H        3.87313656       3.56366165      12.05538615       0.00792100       0.00641594       0.00014240
H        3.73387966       5.78576755       9.87232880      -0.00807453       0.00537214       0.00294610
H        3.26514407       4.72308530       8.52702465      -0.00308960       0.00294633       0.00309403
H        4.51813562       4.21617888       9.67352895      -0.00004771       0.00957604       0.00262282
H        3.01728841       2.21819278      10.17343309       0.00646386       0.00030475       0.00699216
O        3.11787578       2.59483246       1.75103615       0.00171798       0.01001143       0.00969362
C        4.03507189       1.84054241       2.55855216      -0.00165261       0.00069831       0.00424975
C        5.05981052       2.76469173       3.19540104       0.00333661      -0.00856328       0.00893945
C        3.28516259       1.02039443       3.58940873      -0.00508308      -0.00149837      -0.00013471
H        4.53952554       1.17380274       1.85772682      -0.00507137       0.00253698       0.00016743
H        5.82553235       2.20684827       3.73680723       0.00526583      -0.01587428      -0.00166018
H        5.55417873       3.36036533       2.42770914       0.00022036      -0.00171018       0.01239073
H        4.56377304       3.43124543       3.91100305       0.00868138      -0.01560960       0.01887503
H        3.96934074       0.43714801       4.20562016      -0.00710358      -0.00952082      -0.00567886
H        2.59306976       0.33315463       3.10127349      -0.01079790       0.00696717      -0.00375232
H        2.71115451       1.67330286       4.25525668       0.00046419      -0.00277528       0.00575797
H        2.49852932       3.03067235       2.34562547       0.00119848       0.00538410       0.01246229
O        4.77591389       6.42390011       3.86428723       0.00196329      -0.01460606       0.00089175
C        5.50289192       6.83152820       2.70114654      -0.00229408      -0.00450081       0.00195342
C        6.93213610       6.32053025       2.75263683       0.00049645       0.00316498      -0.00338743
C        4.76685807       6.40737833       1.44145049      -0.00196472      -0.00232178       0.00117511
H        5.51547071       7.92332364       2.75785424      -0.00826256      -0.00477558       0.00755422
H        7.50327766       6.66089441       1.88724122      -0.00280797       0.01236942      -0.00176597
H        7.43191576       6.67786435       3.65301978      -0.00003770      -0.00045916      -0.00175419
H        6.95570309       5.22759708       2.75735692       0.00631402       0.00334290      -0.01095633
H        5.29493193       6.74176226       0.54462846      -0.00631355       0.00652719       0.00202396
H        3.76530205       6.83888485       1.41790414      -0.00501117      -0.00943717       0.00575322
H        4.66828988       5.31900774       1.39640240       0.00506584      -0.00267193      -0.00465388
H        4.71185195       5.46304552       3.83117219       0.00869903      -0.01485124      -0.00344858
O       10.78260729       4.47815549      10.13423474       0.00558734      -0.00605047       0.02193666
C       11.42937603       3.27838663       9.66634977      -0.00270450      -0.00495908       0.00874585
C       12.37269720       3.66816296       8.54489924      -0.00786707       0.00258091       0.00778687
C       12.11814224       2.58808161      10.82476907       0.00245163      -0.01927382      -0.00277567
H       10.65857574       2.61055914       9.26033019      -0.00858700       0.00240439       0.00752899
H       12.95547965       2.80896396       8.21726391      -0.01169680       0.00416666      -0.00192179
H       11.82423463       4.05628978       7.68525107      -0.01178579       0.01228833       0.01485397
H       13.07258265       4.42720312       8.89165218      -0.00413391      -0.00204138       0.01001936
H       12.64203442       1.69201630      10.49489583      -0.00972063      -0.02245283      -0.01322170
H       11.39302130       2.32106764      11.59690566       0.00794904      -0.01869568       0.00228548
H       12.85619639       3.25673771      11.26937869       0.01435734      -0.03109923      -0.00601653
H       10.60333405       4.34949372      11.07243567      -0.00903510      -0.02034733       0.01702205
O        6.97791393       4.66990560      12.16987261      -0.00702375       0.00865009      -0.00738049
C        7.86655898       5.47008143      11.38545557      -0.00382000       0.00845903      -0.00399160
C        7.09177475       6.48936267      10.56456800      -0.00074774       0.00999546      -0.00461853
C        8.93229388       6.13961510      12.23561789      -0.00503409       0.00610301      -0.00090832
H        8.34957606       4.75713338      10.71374404      -0.00299162       0.00856051      -0.00351855
H        7.75978982       7.05292526       9.90768670       0.00128020       0.00962568      -0.00270511
H        6.32776659       5.99909247       9.96012886      -0.00014094       0.01163486      -0.00653158
H        6.58996339       7.20639135      11.22218779      -0.00119095       0.00971468      -0.00486769
H        9.66209935       6.64164809      11.59550843       0.00025983       0.00071502       0.00111434
H        9.45763704       5.41750367      12.86242822      -0.01048490       0.00577480       0.00298005
H        8.47544690       6.89853887      12.87915471      -0.00450076       0.00967930      -0.00506945
H        6.62348950       5.21894691      12.87608647      -0.00797222       0.00816900      -0.00748749
O        8.18816912       4.98852758       7.35895308       0.00183100       0.00311837       0.00021285
C        7.12339570       5.45887416       6.52505450      -0.00032580      -0.00448334      -0.00144027
C        5.80737751       4.80449739       6.89334795       0.00416499      -0.01302749      -0.00139326
C        7.02396237       6.96748004       6.56511658      -0.00950142      -0.00499904      -0.00332992
H        7.41591775       5.14799516       5.51938958       0.00262311      -0.00357977      -0.00071990
H        5.00619855       5.17172755       6.24905379       0.00205047      -0.01970831      -0.00230417
H        5.86666585       3.71886765       6.81476612       0.01216315      -0.01258101      -0.00001010
H        5.54621189       5.06430157       7.91901619       0.00163431      -0.01379804      -0.00192298
H        6.23589570       7.31346096       5.89678845      -0.01063620      -0.01031275      -0.00474705
H        7.96508280       7.42064229       6.26567313      -0.01175328      -0.00021997      -0.00298302
H        6.78957029       7.31362844       7.57583332      -0.01233602      -0.00530869      -0.00402898
H        8.01606345       5.28861531       8.25791837      -0.00440790      -0.00149459       0.00037964
