197
Lattice="18.872512401709248 0.0 0.0 0.0 18.872512401709248 0.0 0.0 0.0 18.872512401709248" Properties=species:S:1:pos:R:3:forces:R:3 energy=-1908536.625 stress="-0.0005755256279371679 -0.0001197495439555496 6.622970613534562e-05 -0.0001197495439555496 -0.0003433551755733788 -8.311976489494555e-05 6.622970613534562e-05 -8.311976489494555e-05 -0.0005177720449864864" pbc="T T T"
N       17.18420689      19.57214265      -0.28001053      -0.00766882      -0.00051904      -0.00118852
H       17.74227102      19.94826082      -1.03814583      -0.00908478       0.00211908       0.00295755
H       18.04814126      18.32205763       0.59169871      -0.00191084      -0.00185218      -0.00701122
H       16.95201155      20.35612686       0.31875374      -0.00724490      -0.00369478      -0.00050881
H       16.31203835      19.25402129      -0.68514572      -0.00567759       0.00371615      -0.00344715
O       18.43843599      15.69756762       2.09335280       0.03146410      -0.00746679       0.02726984
O       18.62493973      17.64632129       1.04834585      -0.00419569      -0.00132382      -0.00452024
C       16.40954271      16.72759720       1.32691421      -0.00306773      -0.00474205      -0.00088552
C       17.90564883      16.62464670       1.53700342      -0.01240146       0.02004641      -0.00986117
H       16.03359968      17.70662423       1.62541822      -0.00279581       0.00092514       0.00821707
H       15.89969346      15.95541506       1.89512775       0.01087189      -0.01540131       0.00464837
H       16.17369604      16.59916082       0.26754256       0.01022374      -0.01159359      -0.00941194
Cl      15.42131635      18.71046560       6.73406386      -0.01470202       0.00370365      -0.00488101
Cl      15.40884264      16.07080295       5.54341055       0.01019844       0.00483814      -0.00852051
Cl      17.60024038      16.87244992       7.27065627      -0.00453243       0.01810677       0.00404838
Cl      17.32218887      18.06042124       4.64507781       0.00073096       0.01949100       0.00419000
C       16.44144023      17.42695410       6.04280294      -0.00200342       0.01116256      -0.00095760
Cl       5.85868392      12.55801237       4.10971092       0.02398270       0.00423983       0.00610596
Cl       4.47639196      11.49468243       1.78350404       0.00508708       0.02651165       0.00751269
Cl       4.90063557       9.82721219       4.10767618      -0.01101214       0.01655972       0.00244522
Cl       7.14125104      10.58024499       2.42988551      -0.00524986      -0.00918700      -0.00019230
C        5.58793840      11.11733211       3.11458738       0.00326431       0.00976059       0.00397616
Cl       9.18254944       5.48722247      11.50114627       0.01510566       0.00726817      -0.00545609
Cl      11.00102824       6.53001302      13.50157310       0.00841811      -0.00471860       0.00643755
Cl      10.18945229       3.74616208      13.59566844       0.02080014      -0.00931054      -0.02221785
Cl       8.27991661       5.82601574      14.22324491       0.01150063      -0.02413646      -0.00282088
C        9.66630287       5.39998820      13.20607531       0.01396741      -0.00765554      -0.00597821
Cl       7.65762736      16.65270184      -0.86744426      -0.01172464      -0.00971341      -0.00081667
Cl       7.59732758      17.34635733       1.94841737       0.00439864       0.00256246      -0.00415990
Cl       8.03047884      14.59343217       1.14476034       0.00947082       0.00079975       0.00558917
Cl       5.42634448      15.81765398       0.78642698       0.00251448      -0.01075738       0.01850650
C        7.16926854      16.09955081       0.75551988       0.00091210      -0.00406470       0.00440969
Cl       0.49085832       5.94210478      17.59463297       0.00253709       0.01090224       0.00787693
Cl      -1.18977206       4.32980527      19.31112907      -0.00132748       0.01012260       0.00535244
Cl       0.08213026       6.71474887      20.35537401       0.00771477       0.00364095       0.01132426
Cl       1.68044634       4.37587666      19.73432202      -0.00022778       0.00040123       0.00222587
C        0.27447046       5.34404372      19.24542050       0.00226781       0.00646338       0.00653810
Cl      12.60217890      11.05450596      11.03106704       0.00811237      -0.00051693      -0.02595822
Cl      10.07665598      12.37492403      10.48572868       0.00183545      -0.00222981       0.00368918
Cl      10.58627745      11.24951660      13.10398481       0.03010293      -0.00384230      -0.00263515
Cl      10.17372758       9.49291554      10.82685720       0.00685370      -0.00170690       0.00206092
C       10.85984138      11.04072029      11.36557997       0.01185807      -0.00182426      -0.00578128
Cl       5.03033675       2.63881979      17.55427956      -0.00036712      -0.00419801       0.00064510
Cl       5.25775658       3.89977900      14.94713433      -0.00039576       0.00446187       0.00565121
Cl       4.25762591       5.41108604      17.19193194       0.00449234      -0.00210711       0.01128694
Cl       2.64301274       3.28350881      16.05494223      -0.00030088       0.00647399       0.00426279
C        4.29062361       3.80600794      16.43690912       0.00107679       0.00121918       0.00538417
Cl       4.68953907      16.91522950       9.14087134      -0.00469916       0.01067352       0.00224368
Cl       5.64967245      14.22630836       8.67764909      -0.00173283       0.01350796      -0.00703013
Cl       2.80626865      14.71691255       8.98849615      -0.00210696       0.00962056      -0.00447260
Cl       4.57810128      14.94710252      11.27533974      -0.00133015       0.00300390      -0.00487226
C        4.43126074      15.19755938       9.51759592      -0.00247994       0.00938681      -0.00347160
Cl      11.29442632      13.13700321      18.32443527      -0.01379970      -0.00070062       0.01554704
Cl       8.86076967      12.72546772      16.80141274       0.00273168      -0.00523418      -0.00991012
Cl       9.59288282      10.87251887      18.91820374      -0.00821534      -0.01286224      -0.01443991
Cl      11.10154661      10.92477825      16.45711462       0.01579279       0.00925070       0.00098059
C       10.20686724      11.91681651      17.62258717      -0.00070435      -0.00234665      -0.00177822
Cl       9.10349129       6.17800872      -1.35279641      -0.01322579       0.00517133       0.00126928
Cl       7.65044238       4.79066697       0.72923676      -0.01698378       0.01605654       0.00524309
Cl       6.83677025       7.46081622      -0.07272921      -0.01063824       0.01442498      -0.00393751
Cl       9.30468750       7.09036152       1.37991194      -0.01195565       0.01445076      -0.00034901
C        8.22225469       6.36951171       0.16525802      -0.01288721       0.01265880       0.00040321
Cl       2.46450310       6.30780675      13.86157090      -0.00297633       0.04230915       0.00207618
Cl       0.84981573       7.12621892      11.59766857      -0.00675347      -0.01031753      -0.01438743
Cl      -0.28963939       7.12276772      14.26336300      -0.01795107      -0.00910963      -0.01779905
Cl       0.31515252       4.60879754      12.93675569       0.03061402      -0.00883937       0.00236012
C        0.83661661       6.29160537      13.16469132       0.00123597       0.00173210      -0.00738111
Cl      10.96964645      19.73964705       2.14029544      -0.00118318      -0.01242977       0.00220422
Cl      11.38744436      17.00974954       1.25755891       0.01459585      -0.01191828       0.00730255
Cl      13.23595591      18.22575113       3.13276527       0.01091406       0.00420301      -0.00022140
Cl      13.17535846      19.11576532       0.36555934      -0.00170773      -0.00278330      -0.00162834
C       12.18762457      18.51591408       1.73027486       0.00589585      -0.00573453       0.00236881
Cl       4.45912647      15.86168447       5.16044633       0.00018108       0.01304042       0.00010809
Cl       2.86841410      17.29468139       3.19693326      -0.00701418       0.01689112       0.01026973
Cl       1.56452247      15.82983102       5.32630725       0.00036448      -0.00902274      -0.00309697
Cl       2.91640640      14.40574764       3.19499372       0.01431498       0.01726633      -0.01272044
C        2.94277809      15.85145871       4.21404773       0.00181055       0.01021990      -0.00087002
Cl      12.10311984       3.11739836       7.09735690       0.00445449       0.00524677      -0.00596696
Cl      11.30513888       3.41297671       9.86688146       0.00791109      -0.00425729      -0.00481239
Cl      14.10809680       3.51432781       9.15496532       0.00566894       0.00224105      -0.00824368
Cl      12.67040255       0.99936672       9.00622137       0.01000531       0.00137752      -0.01409961
C       12.54486265       2.76281139       8.78164620       0.00703815       0.00111324      -0.00822985
Cl       0.84387475       0.63674103      13.64914040       0.00165564      -0.00410023      -0.00791985
Cl       3.49045992      -0.12078173      14.57509862      -0.00271299       0.00467341       0.01103130
Cl       3.18649271       2.03618521      12.66347380       0.00617911      -0.00688478       0.00066873
Cl       2.69743530      -0.68678711      11.84803219       0.01553025      -0.00545299       0.00723198
C        2.55281720       0.46341539      13.18252456       0.00458272      -0.00283388       0.00334068
Cl       2.02253882       8.81884660       7.15555322       0.01001999      -0.00386018      -0.01517206
Cl       1.47879309       7.01810172       4.95418074      -0.00635575      -0.00446874      -0.00983581
Cl       1.14604689       9.87588625       4.59920389      -0.01687830      -0.00619420      -0.00603804
Cl      -0.70818314       8.40028245       6.26796984       0.00340772      -0.01065036       0.01158074
C        0.98326282       8.53029416       5.74524158      -0.00263547      -0.00629942      -0.00477146
Cl       5.18075649       6.72086565       5.97698144      -0.02372926      -0.00631270       0.01144132
Cl       4.84477009       5.08180322       3.60882964      -0.00756228       0.00094709       0.00448480
Cl       7.10517156       4.62746369       5.37482055      -0.02341074      -0.00906387       0.02143681
Cl       7.00521592       7.00490729       3.74756718      -0.00452378      -0.00393486       0.02751386
C        6.03299769       5.86231001       4.67561286      -0.01458851      -0.00501230       0.01622415
Cl      19.27473432      12.44247255       2.15281101      -0.00275487       0.01192735       0.02139984
Cl      16.70555518      12.84519708       0.87338762       0.00812292       0.00729194      -0.00231797
Cl      16.83466524      12.15260396       3.68721258      -0.01604626      -0.00272875      -0.00371420
Cl      17.52818644      10.19075061       1.66525668       0.01000233       0.00717741      -0.00461249
C       17.59330307      11.91160288       2.09713886      -0.00000437       0.00527850       0.00247686
Cl       7.51360031       9.28757585      13.17036846      -0.01365885      -0.01185703      -0.01001039
Cl       6.14302661      11.77525890      13.73795140       0.01406210      -0.00118047       0.01082388
Cl       6.30834200       9.70039504      15.76745421       0.00873795      -0.01119465      -0.00008827
Cl       4.62937808       9.31666759      13.43033415      -0.01203015       0.01548910       0.01081613
C        6.14833472      10.01530897      14.02842631      -0.00100374      -0.00222766       0.00284723
Cl      15.89733379       5.81249105      11.50485520       0.00304353       0.00313032      -0.01486970
Cl      16.09417335       8.67969484      11.14952117      -0.02692521       0.00482824      -0.01324882
Cl      14.54386902       7.60191188      13.34110534      -0.00451913      -0.01276452      -0.00560176
Cl      13.58651923       7.32273269      10.61560197      -0.01617503      -0.01890995      -0.00086558
C       15.02573633       7.35329992      11.65038014      -0.01124713      -0.00566304      -0.00867739
Cl       9.64741438      -0.05858247      13.78074210      -0.00322783      -0.01005050      -0.01134276
Cl       7.41871993      -1.30192235      12.39731556      -0.00964332      -0.00519550      -0.00531328
Cl       8.70828905       1.03859873      11.26862572      -0.00778344      -0.00760117      -0.00846702
Cl       7.08158401       1.28499149      13.66261973      -0.00064075      -0.00441548      -0.00383833
C        8.21116934       0.23932434      12.77543241      -0.00534509      -0.00672470      -0.00703265
Cl       1.61355244      15.29668573      14.33494558      -0.00177222       0.01497757       0.00046933
Cl       0.08749997      15.68496931      11.90521000      -0.00787345       0.00231844       0.00282872
Cl      -1.04488443      14.15329458      14.08943959       0.00203216       0.00477284       0.00843060
Cl       1.15535144      13.05913927      12.55094954       0.00219494       0.00849670       0.00707047
C        0.45422778      14.54599573      13.22134478      -0.00075539       0.00778715       0.00484066
Cl       9.80227115       9.59440874       4.74045459       0.00838643      -0.00111434       0.01327121
Cl      11.44927640       9.35372927       7.11051554       0.00372601      -0.01287563       0.01610160
Cl      10.67354341       6.97478638       5.63622555       0.00370014      -0.00377959       0.00254332
Cl       8.69026517       8.45105559       7.16141932       0.00273556      -0.00934532       0.00580421
C       10.15362538       8.59116056       6.16228803       0.00477298      -0.00614307       0.00973904
Cl       5.21775002       1.22380841       4.71381176       0.00003678       0.00876287       0.01212668
Cl       3.14699758       0.22132966       6.47630250      -0.00184654      -0.00000381       0.00441304
Cl       2.46934412       2.06536416       4.33718559      -0.00169438      -0.00085305       0.00349963
Cl       3.96250212       2.98858158       6.64928564      -0.01332487       0.00255886       0.00883693
C        3.70158523       1.62327782       5.54999791      -0.00438555       0.00283035       0.00735094
Cl      16.42030469       2.51885664      13.19031904       0.00938331      -0.01492932      -0.01829654
Cl      16.03794452       0.20219091      14.89323083      -0.00515640       0.00575649       0.00363375
Cl      15.43465528       0.02288258      12.07301818      -0.02123308      -0.01471432       0.00881797
Cl      13.74065882       1.61701217      13.78997728       0.00395963       0.01735319       0.00348868
C       15.40400533       1.09952557      13.47496866      -0.00344625      -0.00157116      -0.00062938
Cl      12.64714254      12.87712755       4.98617159      -0.00101468      -0.01239172      -0.01263177
Cl      11.60260171      15.53370503       5.50701293       0.00004707      -0.01538986      -0.00246562
Cl      10.69860515      13.27887802       7.09481392      -0.01367551      -0.02311431      -0.02344543
Cl       9.88755029      13.51648573       4.32409721       0.00629729      -0.00444582      -0.02728158
C       11.20476547      13.80203274       5.47756459      -0.00155579      -0.01300407      -0.01648398
Cl       6.70798420       5.45472173       9.03801277      -0.00625849       0.00278992       0.00406221
Cl       3.88221052       5.04766314       9.54334127      -0.00332704      -0.00207107       0.01539560
Cl       5.57225723       6.12510458      11.62995335       0.00434874      -0.00104856       0.00887895
Cl       5.85940753       3.35833515      10.83652404       0.00475514      -0.00000095       0.00525022
C        5.51015136       4.99561210      10.26615004       0.00019884      -0.00005181       0.00829476
Cl      12.78829880      17.14123960      14.34715546      -0.00866370      -0.01059288      -0.00428906
Cl      13.64283037      15.74631364      16.73521515      -0.00220197       0.00912837       0.00507605
Cl      12.05492715      14.36643356      14.73179362       0.00978755      -0.01250687       0.01192614
Cl      10.84970502      16.42243000      16.38040875      -0.00561720      -0.01150104      -0.00168104
C       12.32549935      15.91597456      15.54093577      -0.00154523      -0.00641290       0.00309601
Cl      14.50311267      14.81212566      11.74359966       0.01386280      -0.01333012      -0.00957948
Cl      14.67250499      16.65697643       9.50762252       0.00518471       0.00297642       0.00455002
Cl      12.08166301      15.83415247      10.51641784       0.00912583      -0.00113584       0.01084362
Cl      13.76267131      13.95333346       9.07516413      -0.00225709       0.00874290      -0.01259971
C       13.75101649      15.30838190      10.21461838       0.00646495      -0.00055593      -0.00146962
Cl      13.57668170      10.46041966       1.44083414       0.04737531      -0.00227594      -0.00108692
Cl      13.95637264       9.11530634       3.98053889       0.02781633      -0.01524319      -0.00504375
Cl      14.99742888       7.92192239       1.54277955       0.01640308      -0.01852593      -0.00665498
Cl      12.16333315       7.99614521       1.99319386       0.01445064       0.01463708      -0.00933036
C       13.67811034       8.88329292       2.24379190       0.02606345      -0.00567647      -0.00611774
Cl      15.28769275       3.04941559      16.80119091      -0.02172890       0.00126851       0.01208156
Cl      15.34158834       5.94195450      16.64793150      -0.00360781       0.00089723       0.02289779
Cl      14.01782281       4.63074637      18.87066537      -0.02089132       0.00130244       0.01187092
Cl      12.85739899       4.51246870      16.21481459      -0.01027507       0.01865738       0.00655264
C       14.36785661       4.54283585      17.13465003      -0.01481545       0.00591733       0.01367182
Cl      14.57756877      12.26009524      16.83329050       0.01217946      -0.00164595      -0.00199530
Cl      14.33302156       9.41905165      16.32252518       0.00849026      -0.00690022       0.02677482
Cl      16.79213473      10.79222046      15.67318950       0.00037569      -0.01184854      -0.01105405
Cl      14.40424447      11.30439541      14.10880628      -0.01545881      -0.02709328       0.00889611
C       15.03029555      10.94815538      15.73016917       0.00096075      -0.01211743       0.00554222
Cl      18.24451263       4.27485900       9.03566674      -0.03065154       0.00878352      -0.02964541
Cl      18.90625072       2.17827467       7.14096338      -0.00874644      -0.00917885      -0.00198489
Cl      17.26970230       1.58088349       9.45838350       0.01125765      -0.00624660       0.01311624
Cl      20.08344409       2.16496062       9.79076179       0.00846899       0.01714344      -0.00941312
C       18.63003791       2.54547693       8.85034934      -0.00030297       0.00004160      -0.00273088
Cl      15.12275674       5.90928041       6.23848480       0.00772791      -0.01710245       0.03577462
Cl      16.74021930       5.29478241       3.91265366      -0.00768489       0.02269819       0.01348865
Cl      13.88380049       4.77555768       3.87538976      -0.00645506       0.01681899       0.00332296
Cl      15.64096003       3.14699612       5.51394270      -0.00564896       0.00248188      -0.01280639
C       15.35409887       4.77847264       4.88723924      -0.00794613       0.00887799       0.00537138
Cl       2.39246360      10.40631997      18.21291498      -0.00211978      -0.00016534      -0.00678131
Cl       1.21723867      10.17818588      15.57739260       0.01858801      -0.00355858      -0.01642883
Cl       3.38697463      12.03901172      16.02802547      -0.00081611       0.01504093       0.00534523
Cl       0.77853852      12.57152698      17.17168156      -0.01449829      -0.01278514      -0.01209691
C        1.94372795      11.30752979      16.74967723       0.00026467      -0.00082833      -0.00785794
Cl       3.79973120      11.19358608       9.84551119      -0.00765765       0.00148153      -0.00064078
Cl       6.68217573      10.86284660       9.91692225      -0.00771993       0.00425711       0.00213242
Cl       5.28610453      10.81573703       7.38084368      -0.00450294       0.01044260       0.00052071
Cl       4.98015590       8.62225867       9.24200130      -0.00413035       0.00427657      -0.00684149
C        5.18828580      10.38202218       9.09519983      -0.00597777       0.00506896      -0.00095894
Cl      18.69256075      10.70851506       9.84236211       0.00385058       0.00496387      -0.01455629
Cl      18.77240614      12.13589460       7.32035714      -0.00157601      -0.00038029      -0.01722398
Cl      17.60331925      13.38880985       9.65395400       0.00090963       0.00295016      -0.01746997
Cl      16.24165802      11.17683350       8.36247763       0.00188184      -0.00093964      -0.01106352
C       17.82709322      11.85964289       8.79163291       0.00175428       0.00175050      -0.01500365
