199
Lattice="17.705570535682984 0.0 0.0 0.0 17.705570535682984 0.0 0.0 0.0 17.705570535682984" Properties=species:S:1:pos:R:3:forces:R:3 energy=-1483774.875 stress="-0.0015258097555488348 -1.578798401169479e-05 -0.00034551529097370803 -1.578798401169479e-05 -0.0013351811794564128 5.85425896133529e-05 -0.00034551529097370803 5.85425896133529e-05 -0.0012207175604999065" pbc="T T T"
N       16.62236250      15.50216003       1.78878887      -0.00927199       0.00547656       0.00818986
H       16.76340321      16.24270512       1.11172192       0.02477843      -0.00534037       0.00427513
H       17.42315082      14.88107225       1.72750147      -0.02200620      -0.01335210       0.03502502
H       16.35346862      15.98767160       3.20947042      -0.02233283       0.01101595       0.00069533
H       15.82149949      14.96151642       1.47724062      -0.01335539       0.02007902      -0.00605521
O       17.03699403      14.53680581       4.78060087      -0.00332201       0.03027523      -0.00359392
O       15.85106877      15.68944302       6.18873900      -0.00681424      -0.00260738       0.00415170
O       16.04177670      16.39653374       4.14572322      -0.02972552       0.00604022       0.00175810
N       16.32871283      15.47324347       5.09973941       0.00182962      -0.00310510      -0.01340353
Cl       9.60718070       6.35739313      11.24549318       0.00447172      -0.00373012       0.01527214
Cl      11.18497600       3.90054616      11.20530152       0.00537844      -0.00291479       0.00852361
Cl      12.42267343       6.41877751      11.98252246       0.00668195      -0.00264102       0.00473742
C       10.93522179       5.45826633      11.99386402       0.00745349      -0.00316714       0.00956821
H       10.66189603       5.27289560      13.02609649       0.01156722      -0.00397854       0.01032728
Cl       5.04900024      13.08941799       0.09918270       0.00231588       0.00262729      -0.00701627
Cl       7.49168828      12.37712053       1.53498913      -0.00417888      -0.00193855       0.00034337
Cl       6.82410982      15.18563495       1.10536869       0.00844863      -0.00116390      -0.01168400
C        6.17627147      13.55725028       1.37503536       0.00142782       0.00250091      -0.00657113
H        5.64022731      13.56574970       2.31739793      -0.00060868       0.00858820      -0.00801948
Cl       9.22658246      11.40006229      11.90024182       0.00221810       0.00010592       0.00532655
Cl       8.09770592       9.22319768      10.32713256      -0.00602847      -0.00544795       0.02023289
Cl      10.98793935       9.63712971      10.38754154      -0.00643158      -0.00202505      -0.00116214
C        9.47872873       9.76350804      11.30000839       0.00023745      -0.00097185       0.00875966
H        9.55499761       9.09698075      12.14945313       0.00661613       0.00164050       0.01005185
Cl       3.80243085       5.89295236      16.51579595       0.00143690      -0.00067720       0.00428021
Cl       2.58566888       3.23830813      16.49946996      -0.00373985       0.00157793       0.00085214
Cl       5.41289927       3.53828674      17.13667896       0.00340846      -0.00681110      -0.02894659
C        3.80672197       4.28162033      17.24350221       0.00612028      -0.00517841      -0.00643954
H        3.55799853       4.38921527      18.29355973       0.01866709      -0.01064468      -0.00321421
Cl       4.89569853      13.75216865       5.08039400       0.00615662       0.00975600       0.01484327
Cl       4.60493779      11.19826662       3.69128304      -0.01061533       0.02005711       0.00441641
Cl       6.88351044      11.66125004       5.44233438      -0.00255933      -0.00057571      -0.00033736
C        5.18202359      11.99955026       5.15866517      -0.00199188       0.00879829       0.00677780
H        4.60779665      11.61421743       5.99303286      -0.00192834       0.00697172       0.00593913
Cl       9.85646588       9.86683900      15.34026735       0.00893515       0.00151587       0.00120254
Cl       8.19412011      12.27242199      15.37034506       0.01664409       0.00585032       0.01340428
Cl       7.01528602       9.67800952      16.02147676       0.00496006       0.00481567      -0.01600085
C        8.46760504      10.68367402      16.09569027       0.00772996      -0.00107300       0.00085248
H        8.71066884      10.83421894      17.13979464       0.00265665      -0.01106361       0.00319278
Cl       0.09779640       6.35021081      16.94859834      -0.00709832       0.00979223      -0.00248210
Cl      -0.72840079       4.20766938      15.15315238      -0.01626033       0.00319925       0.01127351
Cl      -0.23850664       6.88462018      14.10057645      -0.00592136      -0.00567877      -0.00494458
C        0.23612807       5.69139031      15.30956608      -0.00995182      -0.00009025       0.00173377
H        1.27537833       5.42895056      15.14421334      -0.01105687      -0.00493551       0.00328283
Cl      10.64219989      18.57473883      -0.01316115       0.00762387       0.00191253       0.00395718
Cl      12.22579589      16.12940479       0.18842544       0.00374934      -0.00027121       0.00245416
Cl      10.22986065      16.75410082       2.23003138       0.00934074       0.00345547       0.00548741
C       10.65438335      16.89601766       0.51955390       0.00584304       0.00216844       0.00467421
H        9.91174833      16.35656342      -0.05440079       0.00415042       0.00291744       0.00643106
Cl       2.28153310      16.63690048       1.11789310      -0.00564281       0.00263104      -0.00982610
Cl       2.11005496      14.34646810       2.89781383       0.00873170      -0.00173117      -0.01394600
Cl       3.56793921      16.72618849       3.74712230       0.00599024      -0.00000983      -0.01605067
C        2.20031853      16.10872403       2.82021114       0.00362626      -0.00175100      -0.01086639
H        1.29140036      16.51898500       3.25048584       0.00483954      -0.00532970      -0.00594148
Cl      13.62041202       5.62683418       8.42578887       0.00969416      -0.02678660       0.01349631
Cl      12.33638991       3.06915472       7.83344808      -0.01563853      -0.00638175      -0.01605390
Cl      10.74606817       5.49668500       7.96595240       0.00795209       0.00720197       0.01954937
C       12.32696477       4.80900692       7.54952663      -0.00012596      -0.00255662       0.00667644
H       12.48362234       4.97436191       6.49099910      -0.00084698       0.00956028       0.00878680
Cl       5.45288842       0.34823199      14.38681258       0.00329729      -0.01479079       0.00380003
Cl       5.13152889       0.80400019      11.52371165      -0.00234165      -0.01620609       0.00516355
Cl       7.42916107      -0.68664282      12.49078083      -0.00807333      -0.02733323       0.00071564
C        5.73054033      -0.30820999      12.74935170      -0.00552514      -0.01802543       0.00490486
H        5.15889573      -1.22491473      12.67712749      -0.01041412      -0.01495516       0.00711154
Cl       0.95767630      11.58471132       4.80541564      -0.01474970       0.00657251      -0.00404048
Cl       1.79081264       9.10411084       3.49527134      -0.00176816       0.01315314      -0.00588936
Cl       2.26658271       9.49187155       6.36055316      -0.01088238       0.00910457      -0.00474834
C        1.19937202       9.84096339       4.99347320      -0.00904159       0.00770418      -0.00628104
H        0.23415768       9.39930421       5.20943463      -0.00778654       0.00339997      -0.00986829
Cl       4.54842196       6.97968284       4.73183865      -0.01420026       0.00161180      -0.00060529
Cl       4.25170229       6.36506542       7.55586075       0.00785446       0.00132819       0.00113109
Cl       4.80187972       4.21177304       5.62750068       0.00343283       0.00324082      -0.00067711
C        5.05466642       5.93489275       6.04541294      -0.00075035       0.00430368      -0.00382994
H        6.12148169       6.05096171       6.18742184      -0.00045088       0.00861568      -0.01117456
Cl      17.47287238      12.36213705      -0.00691689      -0.00311741       0.00775668       0.00115395
Cl      15.79953475      12.05301212       2.36445914       0.00266048       0.00186335       0.00369012
Cl      14.65464824      13.14058133      -0.10021468      -0.00492160       0.00007972       0.00706110
C       15.84553742      12.01685213       0.59705122      -0.00076192       0.00299385       0.00408102
H       15.56947601      11.02089745       0.27137949       0.00132822       0.00261116       0.00411937
Cl       4.79619168       6.74042491      12.40988935      -0.00085360      -0.00462410       0.00464404
Cl       4.31629333       4.06168640      13.47348083      -0.00736936      -0.00466894       0.00134522
Cl       2.39323447       5.25627720      11.65522126       0.00085256      -0.00129446      -0.00434643
C        4.10481999       5.15078482      12.09045818      -0.00116498      -0.00391662       0.00198996
H        4.63450396       4.71706833      11.25282824       0.00130911      -0.00361256       0.00367478
Cl       5.97270166      15.91392795       8.84315592      -0.00556207      -0.00168446      -0.02552560
Cl       8.12266591      17.10300007       7.27115481       0.00854725       0.01520299       0.00845148
Cl       5.34060413      17.73741536       6.65846184       0.01493080       0.02108301      -0.01328564
C        6.50652080      17.33340197       7.94779511       0.00190390       0.00712195      -0.00604524
H        6.53650423      18.17556618       8.62855463      -0.00655730      -0.00109175       0.00403772
Cl      14.30741550      10.16474876       9.61755055       0.00527614       0.00058441       0.00324315
Cl      15.88875103       8.26528202      11.15773470       0.00545979      -0.01425499      -0.01486059
Cl      17.18071881      10.49841106       9.78036130       0.00151977       0.01677732       0.03289522
C       15.73220673       9.94194465      10.63335666      -0.00207433      -0.00679874       0.01099863
H       15.61633272      10.55579114      11.51938968      -0.01329172      -0.02167840       0.01951748
Cl       7.26116558       8.42484869       6.99679205       0.00681534       0.00352702       0.00252566
Cl       8.62760854       6.48076062       5.31758934       0.00867186       0.00509545       0.00305642
Cl       9.51498032       9.25014961       5.32703499       0.00710172       0.00548109       0.00424573
C        8.81076984       7.94873991       6.28984029       0.00715824       0.00504598       0.00341848
H        9.49401859       7.73072765       7.10216486       0.00665107       0.00490594       0.00361246
Cl       0.46233372       2.95502448       4.49267334       0.00880703       0.00233907       0.00179786
Cl       2.13026679       2.15060808       2.24323741       0.00468520       0.00025518       0.00047946
Cl       1.84369937       4.98245759       2.88998283      -0.01507011       0.00185707      -0.01849262
C        1.89942870       3.32677850       3.54120165       0.00139547       0.00731529      -0.00708274
H        2.75893766       3.27849023       4.19804756       0.00450313       0.01850026      -0.01064739
Cl      14.62928096       3.32476788      11.44996589       0.00747460      -0.00818798       0.00308885
Cl      17.25330517       2.32542183      10.65329013       0.00139570      -0.01849848      -0.00032532
Cl      16.69986488       5.17830468      10.56673695       0.00963661      -0.01794541      -0.01088870
C       16.36307968       3.64488461      11.40173044       0.00775075      -0.01309033      -0.00312499
H       16.71127504       3.75372638      12.42156503       0.01120539      -0.00971194      -0.00484419
Cl       9.55717237      13.81539240       4.27437819       0.01115733      -0.02387264      -0.00189397
Cl      12.30855239      13.79196616       3.29175214       0.01128885      -0.00959647       0.00149421
Cl      10.59834536      11.47170502       2.87899218       0.01019671      -0.00226891      -0.03612830
C       10.64791695      13.24274512       3.01753891       0.01159427      -0.00466063      -0.00941562
H       10.31225127      13.65788538       2.07491973       0.01298816       0.01002374      -0.00319046
Cl       7.86558914       5.07002393      14.22149167      -0.00415835      -0.01126966       0.00046910
Cl       7.53329254       3.46713744      11.80940842      -0.00322316      -0.00574185      -0.00280181
Cl       9.13488248       2.44948391      14.02241153      -0.00797388      -0.01189102      -0.00249264
C        7.73622929       3.42919714      13.56831559      -0.00585948      -0.00922954      -0.00269498
H        6.85115578       2.97244553      13.99327643      -0.00701982      -0.00879838      -0.00515406
Cl       9.83167246      16.08583093      14.95166884      -0.00037900      -0.02742386       0.00128853
Cl      10.59718182      15.92265760      12.15531169       0.01144753       0.03338801       0.00145084
Cl      12.05859559      17.69717587      13.94511800      -0.00459733       0.00226828       0.04320749
C       11.17830823      16.17044023      13.80350566       0.00275422       0.00151286       0.00854956
H       11.86618506      15.36713167      14.03640997       0.00540648       0.00038725      -0.00501275
Cl      13.77040622      11.96682822      12.92365599      -0.00296678       0.02222435       0.00454569
Cl      12.40410170      13.15226096      10.63258876       0.00244406       0.03748366      -0.00292924
Cl      14.22328212      14.76951540      12.25647223      -0.01581865      -0.00905395      -0.02983308
C       13.86548757      13.15574811      11.60441834       0.00498962      -0.00008091      -0.01299674
H       14.69560505      12.87410775      10.96679272       0.00957289       0.00548460      -0.01078674
Cl      13.02368477       3.20701018       2.29877585       0.00161998       0.01137096       0.00690311
Cl      13.41356218       6.01258714       1.58255406       0.02581849      -0.00308269      -0.03300505
Cl      15.68768086       4.17318534       1.56983780       0.01186463      -0.01743411       0.00790009
C       13.94933634       4.34273112       1.30689505       0.01478994      -0.01062984      -0.00538387
H       13.74822489       4.11167204       0.26775084       0.01833716      -0.02567105      -0.00257048
Cl      11.75441370       3.99530143      16.16882261      -0.00067731       0.00499532      -0.00129797
Cl      10.37880089       6.55221638      16.44663607      -0.00330004       0.00419357      -0.01014106
Cl       9.17384539       4.11508996      17.53415217       0.00257704       0.00814597       0.00344454
C       10.67457034       4.97874608      17.18649468       0.00040416       0.00825453      -0.00369754
H       11.17942694       5.14319172      18.13142825       0.00272477       0.01322096      -0.00607601
Cl      13.71943245       9.21160241      17.26074677       0.00502102       0.00176714       0.00747390
Cl      13.61364617       8.23072098      14.51938336      -0.00508821      -0.00155954       0.00924194
Cl      15.78484296      10.00210041      15.35030836      -0.00711066       0.00571221      -0.00305849
C       14.66852848       8.71415764      15.84137421      -0.00064570       0.00312814       0.00335013
H       15.26853811       7.85851691      16.12983117       0.00333677       0.00562274       0.00140975
Cl      17.53880483       0.39940032       7.47467653       0.00625616      -0.00442833      -0.01836451
Cl      14.89888391       0.55397286       8.68305227       0.00559971      -0.01495293      -0.01814693
Cl      15.77026504       2.61922181       6.81274314       0.00686229       0.00262427       0.00450580
C       15.86259550       0.90530965       7.24649056       0.00664894      -0.00133358      -0.01390160
H       15.45284814       0.32704812       6.42848504       0.00643879       0.00732365      -0.01968679
Cl      17.45522898       6.62129496       5.91511071      -0.00631592       0.00574465       0.00439680
Cl      14.96469439       5.42182383       4.97670148      -0.01092568       0.01649377       0.00271516
Cl      16.16894956       7.62093024       3.48864736       0.00839392      -0.00087339      -0.00561783
C       16.47437537       6.20164959       4.50057420      -0.00417921       0.00353113       0.00385746
H       17.03959749       5.49302406       3.90862893      -0.00665285      -0.00341873       0.01022021
Cl       2.63585604      11.99558701      15.52748076      -0.00262581       0.00112242      -0.00372829
Cl       3.35307684      13.07294102      12.91235161       0.00229861       0.00007314      -0.00202960
Cl       0.55781178      13.05307483      13.76930074      -0.00008294      -0.00953238      -0.01192315
C        2.24422440      13.19823249      14.28533800      -0.00281019      -0.00247222      -0.00648419
H        2.37290085      14.18022446      14.72404832      -0.00819087      -0.00152186      -0.00752783
Cl       6.83412743      12.50121496       9.18249942      -0.01359808      -0.00156370       0.00732175
Cl       9.11873398      14.26509843       9.60245114      -0.01791768       0.00016852       0.01996422
Cl       9.36348300      11.96628508       7.83832109      -0.00732529       0.00194740       0.01924904
C        8.28058110      13.21802967       8.45696967      -0.01094289       0.00028138       0.01492474
H        7.96209102      13.82803386       7.61916061      -0.00788328       0.00051491       0.01417962
Cl       1.92561835       1.61745773      13.25835088      -0.02308847      -0.00638902       0.01407471
Cl      -0.30413860      -0.19577762      13.80265739       0.01253018       0.02103918       0.01504596
Cl       2.06226890      -1.17332695      12.40390042      -0.00239579      -0.01226011       0.00206819
C        1.44974230      -0.03597796      13.62792645       0.00034534      -0.01116948       0.00149523
H        1.91178890      -0.30413601      14.57057465      -0.02858358      -0.01552145       0.01217234
Cl       1.92017263       3.64131590       8.15791349       0.00122610      -0.00080532       0.00562058
Cl       4.65415312       3.06352520       9.04169660       0.00070997      -0.00171078       0.00469606
Cl       2.57337321       1.06363654       9.35741918       0.00243007      -0.00380090      -0.00202656
C        3.14544742       2.40183654       8.35930530       0.00179569      -0.00051520       0.00236657
H        3.40123435       2.00391284       7.38559392       0.00215091       0.00266480       0.00141984
Cl      12.17716132      17.53771794       6.34935809      -0.00261316      -0.02445036      -0.02258468
Cl      11.96408433      16.58994702       9.10448679      -0.01731539       0.02693099      -0.00785792
Cl      11.66209611      14.72415828       6.89491561      -0.00328356      -0.01467833       0.02660868
C       12.47280066      16.18410589       7.45803619      -0.00783172      -0.00394104       0.00277704
H       13.54020592      15.99821759       7.47106939      -0.00779042      -0.00154889       0.01224741
Cl       0.53073961      13.40169869       8.42926678      -0.01623219       0.01391000      -0.01701546
Cl       2.36293929      15.63610863       8.04725376       0.01126280      -0.00700286       0.00544256
Cl       3.40499310      12.93394025       8.37944747      -0.02107725      -0.01817559       0.00849265
C        2.06913495      13.92269626       7.74187858      -0.00447351      -0.00265653      -0.00186259
H        2.02945537      13.77134655       6.67001392       0.00441033      -0.00042054      -0.00233883
Cl      14.85642097      12.72130253       6.87408432       0.01271081      -0.00698131      -0.01414490
Cl      15.00315316      10.06258781       5.67328449      -0.01719680      -0.01174110      -0.00666660
Cl      12.49420628      10.99071038       6.83200032       0.00021330       0.01131743       0.01188752
C       13.97904319      11.47245875       5.99487905      -0.00363742      -0.00351459      -0.00242142
H       13.68585366      11.88678899       5.03804621      -0.00830042      -0.00416604      -0.00079125
Cl       2.49833531       8.52066127       9.82611588       0.00939578       0.00734937      -0.01086406
Cl       2.25483625       9.50676281      12.55696091       0.00012060      -0.00049295      -0.00928608
Cl       4.57420811      10.24035059      10.93058449       0.01191062      -0.00767620       0.00580189
C        2.84037881       9.85981594      10.92854337       0.01040113       0.00151649      -0.00461490
H        2.31181679      10.73325449      10.56579932       0.01803847       0.00574178      -0.00497163
Cl       5.64278567       7.65774235       1.42599813       0.00758064       0.02493374       0.00049262
Cl       8.52831804       7.54247618       1.80783713       0.00588030      -0.00343361       0.00102386
Cl       6.87606572       5.22546122       2.47895957      -0.01553026       0.00996633      -0.00933146
C        7.07530024       6.62008434       1.40116304      -0.00232775       0.01207533      -0.00366300
H        7.19578985       6.23483326       0.39546575      -0.00512252       0.01529605      -0.00500214
