191
Lattice="14.01911532376835 0.0 0.0 0.0 14.01911532376835 0.0 0.0 0.0 14.01911532376835" Properties=species:S:1:pos:R:3:forces:R:3 energy=-399694.4375 stress="-0.0007547648274339736 -6.0966900491621345e-05 -1.9752822481677867e-05 -6.0966900491621345e-05 -0.00028771089273504913 0.00011689166422002017 -1.9752822481677867e-05 0.00011689166422002017 -0.0018240136560052633" pbc="T T T"
Ba       9.77128172      12.27795831      -2.51944310       0.00743104      -0.01010568      -0.00256387
O       10.10746438      11.50111384       9.24636627       0.00412548       0.00126818      -0.00732929
O       10.97589074      12.77254819       7.13275905       0.00553250      -0.00329614      -0.01085049
O        8.41635576      12.64304675       7.61323337       0.00661063      -0.00238228      -0.01236470
O        9.69865762      10.51144189       6.84503630       0.00740951      -0.00399101      -0.00640845
Mn       9.79656871      11.86006387       7.65863898       0.00643785      -0.00139685      -0.00863045
O        7.67287065      13.75028233       2.90850914      -0.00619604      -0.00840783      -0.01341045
O        7.55060243      11.13976441       2.87003800      -0.00426114      -0.00842094       0.00204718
O        6.59193255      12.45176889       4.91181995      -0.00828278       0.00300740      -0.00769365
O        9.16544967      12.34852188       4.51884058      -0.00776505       0.00279699      -0.00297427
Mn       7.74075018      12.43098133       3.81003852      -0.00654384      -0.00243559      -0.00574377
C        4.76805649       9.90163319       3.90588445      -0.01088233       0.00703640       0.00619186
C        4.31231888       8.59879391       3.74872861      -0.00913665       0.00532417       0.00866538
C        3.86872763      10.91695404       4.20033357      -0.01339037       0.00612777       0.00035858
C        2.96867765       8.30236545       3.91877288      -0.00889357       0.00509080       0.00515575
C        2.52137137      10.62082568       4.37807416      -0.01298538       0.00551847      -0.00323887
C        2.07278158       9.31089858       4.25511944      -0.01136069       0.00416738      -0.00127399
H        5.81825781      10.13476273       3.77502745      -0.01118511       0.00762644       0.00860887
H        5.00761865       7.81219440       3.48998687      -0.00709660       0.00608981       0.01271282
H        4.24081398      11.92690963       4.32027961      -0.01480173       0.00719106      -0.00170729
H        2.62416691       7.28494034       3.78819912      -0.00761644       0.00383259       0.00665065
H        1.82389720      11.40866571       4.63993878      -0.01503652       0.00516831      -0.00812691
H        1.02969241       9.07401715       4.42000918      -0.01173645       0.00395662      -0.00485682
C       12.30471185       3.09712262       4.64812761      -0.00260463      -0.00420319       0.00752506
C       12.95368977       2.32349273       3.69158866      -0.00539833       0.00200731       0.00507740
C       11.13047676       2.63228478       5.23371258      -0.00267936      -0.00541898       0.00941445
C       12.42754195       1.08874720       3.32291969      -0.00500051       0.00213419      -0.00141160
C       10.60729258       1.39729062       4.86743453      -0.00235713      -0.00561769       0.00275525
C       11.25497211       0.62522815       3.90893408      -0.00503850       0.00084189      -0.00010814
H       12.71382118       4.05768464       4.93925317      -0.00307890      -0.00460547       0.01202055
H       13.87127328       2.67845145       3.23915276      -0.00566475       0.00328800       0.00398816
H       10.62162048       3.23573761       5.97618674      -0.00052504      -0.01022983       0.01192524
H       12.94300731       0.48303115       2.58578601      -0.00689982       0.00662427      -0.00412720
H        9.70042338       1.02233665       5.32491066      -0.00170615      -0.00685822       0.00366866
H       10.83595394      -0.33719185       3.64365577      -0.00500612       0.00146711      -0.00505068
C        7.98435576      12.36314628       0.04284423       0.00294003      -0.00462519      -0.00555406
C        8.79865961      11.24073122       0.20386794       0.00623657      -0.00049782       0.00364631
C        8.54048578      13.64123363       0.09000357       0.00130345      -0.00202757      -0.01207206
C       10.17232469      11.39486084       0.40202042       0.00394663       0.00267692       0.00613401
C        9.91282263      13.80030287       0.29574241      -0.00103152       0.00126256      -0.00973666
C       10.72602821      12.67714699       0.45268465       0.00182079       0.00521654       0.00012430
H        6.91499395      12.24098648      -0.06754061       0.00447643      -0.00725914      -0.00747262
H        8.35461539      10.25428525       0.22347736       0.00772314      -0.00184192       0.00964091
H        7.90110867      14.51280715       0.03673953      -0.00145811      -0.00469562      -0.01876519
H       10.79556732      10.52679612       0.57889918       0.00610011       0.00604440       0.01278738
H       10.33058779      14.79393945       0.40233672      -0.00240427       0.00312713      -0.01460279
H       11.78158117      12.79627253       0.66445497       0.00004520       0.00839474       0.00324178
C        9.46652256       3.60589704       2.18834951      -0.01239468      -0.01381800      -0.00137620
C        8.30048364       2.84785438       2.13950176       0.00983047      -0.00116177       0.00281937
C        9.40990750       4.98304366       2.01556847       0.00586402      -0.00257283      -0.00324131
C        7.08080452       3.47381219       1.90424109      -0.00980704      -0.01188911       0.00252372
C        8.18864465       5.60728034       1.79924174      -0.01446330      -0.01386453      -0.00422467
C        7.02337020       4.85370220       1.73769005       0.00822873      -0.00077088       0.00075719
H       10.41618816       3.12378537       2.38578456       0.00051992      -0.00639001      -0.00076521
H        8.33195278       1.77946591       2.32113849      -0.00183163      -0.00823596       0.00339896
H       10.31910978       5.57042647       2.06633984      -0.00508772      -0.00858475      -0.00688723
H        6.17089120       2.88599170       1.87877481       0.00077657      -0.00632881       0.00546217
H        8.14226615       6.68489048       1.69924613      -0.00221589      -0.00656419      -0.00616395
H        6.06893947       5.34385988       1.59169022      -0.00476681      -0.00820436       0.00041501
C       13.23603410       5.98311410       7.88595148       0.00386284       0.00118689       0.00748501
C       13.44693124       7.35674934       7.81701502       0.00576968       0.00081931       0.00558051
C       11.94283838       5.47579924       7.84773396       0.00401762       0.00266869       0.00877278
C       12.36348192       8.22392509       7.71616425       0.00613395       0.00130072       0.00467320
C       10.86151351       6.34194032       7.74268313       0.00459333       0.00323428       0.00861980
C       11.07080957       7.71407708       7.68010759       0.00613818       0.00307976       0.00667300
H       14.07502047       5.30380759       7.95737567       0.00359318       0.00036342       0.00761886
H       14.45662668       7.75185171       7.83546570       0.00594068      -0.00039498       0.00422868
H       11.77883610       4.40581898       7.89164646       0.00249082       0.00273603       0.00995467
H       12.51752376       9.29502548       7.66019527       0.00754900       0.00081059       0.00013691
H        9.85573864       5.94732838       7.69296016       0.00421828       0.00468376       0.00931052
H       10.23189686       8.38972043       7.58166901       0.00624456       0.00312901       0.00618879
C        2.95924889       7.65743334      -0.07965592       0.00120568       0.00387513      -0.00082519
C        4.25147822       7.20259708       0.16298290      -0.00005184       0.00227246       0.00024208
C        2.64817988       8.99888351       0.11832979       0.00304803       0.00495620       0.00147971
C        5.22791811       8.09066057       0.59968898       0.00061253      -0.00105353       0.00309528
C        3.62529452       9.88312416       0.56178400       0.00380387       0.00168136       0.00416686
C        4.91681661       9.43057842       0.80037992       0.00260940      -0.00011316       0.00536373
H        2.20005365       6.96400521      -0.42070698       0.00052423       0.00638056      -0.00295248
H        4.49234614       6.15924200       0.00152982      -0.00155877       0.00166939      -0.00130532
H        1.64102034       9.35404652      -0.06452762       0.00405805       0.00632082       0.00081501
H        6.23383962       7.73662262       0.79105850      -0.00040887      -0.00264923       0.00433937
H        3.37674437      10.92198921       0.73669110       0.00521032       0.00199056       0.00592783
H        5.67346069      10.11361876       1.16819219       0.00309537      -0.00270060       0.00797561
C        7.54272754      10.25487515      10.71727702      -0.00313057       0.00758197      -0.00698991
C        6.73905971       9.35616379      11.41211058      -0.00008085       0.00682662      -0.00454709
C        7.03352265      11.50317071      10.35029960      -0.00091262       0.00530476      -0.00736810
C        5.42255813       9.68808747      11.69909647      -0.00199705       0.00942212      -0.00248012
C        5.73329550      11.85520430      10.69989801      -0.00308150       0.00698555      -0.00710237
C        4.92412106      10.94042967      11.35892470      -0.00012223       0.00605597      -0.00484119
H        8.52534814       9.94054613      10.36819195      -0.00288115       0.00567711      -0.00859312
H        7.12064777       8.37722247      11.67886291      -0.00099077       0.00847939      -0.00385126
H        7.59301452      12.16123609       9.68547479      -0.00148261       0.00643387      -0.00675947
H        4.77690876       8.96751419      12.17887768       0.00060235       0.00934909       0.00077398
H        5.33985230      12.81912435      10.40370065      -0.00253560       0.00512691      -0.00831373
H        3.89499439      11.18653736      11.58913965      -0.00151539       0.00748246      -0.00488230
C        5.36154084      10.56794519       7.51508121      -0.00160368      -0.00193313      -0.00672786
C        5.93427245       9.43332845       8.07431167       0.00000872      -0.00436238      -0.00784449
C        3.97779115      10.66395503       7.42612237      -0.00018421      -0.00123586      -0.00075654
C        5.13297789       8.40572842       8.55656090      -0.00077634      -0.00170141      -0.00620659
C        3.17519456       9.62100632       7.87013497      -0.00124834       0.00199083       0.00168949
C        3.75156960       8.49600451       8.44809017       0.00040641      -0.00108627      -0.00006639
H        5.99117999      11.35937622       7.12428963      -0.00110267      -0.00384760      -0.00864203
H        7.01160211       9.34524986       8.11915427      -0.00064985      -0.00470119      -0.01148216
H        3.53017948      11.54055128       6.97720192      -0.00130881       0.00033124       0.00041424
H        5.58562505       7.52094917       8.98713533       0.00010945      -0.00336675      -0.00743061
H        2.10168714       9.67015591       7.74179430      -0.00086501       0.00301719       0.00686503
H        3.12626690       7.68439410       8.79984262      -0.00019924       0.00111834       0.00173661
C       11.16666888       4.39830864      12.73196357      -0.00024730       0.00298509      -0.00185543
C        9.78213809       4.50621145      12.72070934       0.00009803       0.00450963      -0.00314058
C       11.95546494       5.54250655      12.66926645       0.00058702       0.00298564      -0.00304449
C        9.18388009       5.75807915      12.64270080       0.00102198       0.00375413      -0.00539519
C       11.35711744       6.79540395      12.59665652       0.00154576       0.00241122      -0.00540071
C        9.97012748       6.90197598      12.58342270       0.00169616       0.00397497      -0.00666002
H       11.63338775       3.42295584      12.79856003      -0.00068680       0.00328445       0.00006849
H        9.16660227       3.61805509      12.78548424      -0.00045497       0.00457910      -0.00190533
H       13.03524828       5.45751897      12.68211838       0.00042951       0.00136495      -0.00185078
H        8.10355126       5.83738412      12.65155706       0.00107527       0.00485648      -0.00636839
H       11.96889299       7.68823848      12.55500611       0.00206086       0.00247793      -0.00620214
H        9.50429030       7.87972412      12.53841840       0.00227654       0.00362230      -0.00841643
C       10.59470628       9.66134377       3.29931329      -0.00593711       0.00246466       0.00591666
C       11.65166158      10.49226765       3.65455790      -0.00891095       0.00537051      -0.00192334
C       10.82277300       8.56751931       2.47109970      -0.00860675       0.00106765       0.00574413
C       12.92746519      10.23449827       3.16639230      -0.00928965       0.01030521      -0.00883976
C       12.10273879       8.30017731       1.99325296      -0.00896443       0.00602423      -0.00129532
C       13.15724391       9.13876565       2.33801495      -0.01185186       0.00876926      -0.00876918
H        9.59693767       9.88463068       3.65566609      -0.00554699      -0.00110804       0.01109969
H       11.46572211      11.33253088       4.31160555      -0.00684351       0.00594462      -0.00156191
H        9.99887327       7.92067391       2.19653128      -0.00679213      -0.00197390       0.01259941
H       13.75362843      10.87842816       3.44120532      -0.01082024       0.01230218      -0.01374327
H       12.27658556       7.43997501       1.35723608      -0.01070988       0.00456259      -0.00050801
H       14.16111871       8.92957982       1.98746851      -0.01211114       0.01219401      -0.01378506
C        9.07927966       3.88756410       9.44047258       0.00189862      -0.00807500      -0.00409886
C        9.59966213       2.60898216       9.26504395       0.00685452      -0.00274817      -0.00325903
C        7.81867587       4.19434885       8.94388105      -0.00011381      -0.01123060      -0.00288676
C        8.86210829       1.64365156       8.59074088       0.01120050      -0.00883152      -0.00307188
C        7.07412208       3.22459957       8.28100163       0.00376788      -0.01791308      -0.00203742
C        7.59450197       1.94794488       8.10133599       0.00890164      -0.01255594      -0.00119779
H        9.66242574       4.64402879       9.94757529      -0.00167433      -0.00363429      -0.00451954
H       10.59148431       2.37730850       9.63753828       0.00872262       0.00088750      -0.00488491
H        7.42049129       5.19587892       9.05715287      -0.00315579      -0.01443616      -0.00440853
H        9.27344563       0.66060012       8.39988654       0.01613631      -0.00512306      -0.00286017
H        6.09778439       3.47821549       7.88718446       0.00199632      -0.02076066      -0.00039596
H        7.03520807       1.19332122       7.56161857       0.01240216      -0.01702355      -0.00107852
C        3.07343034       3.14140435      11.18468951      -0.00146025       0.00144880      -0.00320219
C        2.58039560       4.42791973      10.98938876      -0.00056353      -0.00036173      -0.00233788
C        4.43250382       2.94242889      11.39951646      -0.00188208      -0.00128038      -0.00231422
C        3.44968696       5.51303322      11.00638167       0.00007901       0.00094990      -0.00117809
C        5.30209218       4.02762637      11.41855331      -0.00115269       0.00015028      -0.00124216
C        4.80976412       5.31195603      11.21836438      -0.00025884      -0.00163215      -0.00038172
H        2.39815886       2.29489557      11.16854224      -0.00189442       0.00064852      -0.00409491
H        1.52148052       4.58295703      10.82157930      -0.00034334       0.00149998      -0.00301997
H        4.81757292       1.94126403      11.54832299      -0.00251653      -0.00040863      -0.00271511
H        3.07091557       6.51793626      10.86843136       0.00069113       0.00021790      -0.00054206
H        6.36098714       3.86986714      11.57960164      -0.00142510      -0.00176961      -0.00042855
H        5.48211154       6.16151096      11.23519887       0.00010266      -0.00080484       0.00052467
C        2.86670957       3.12808720       4.93365566       0.00346609      -0.00505362       0.00183672
C        2.12841204       4.26042540       4.60666559       0.00317987      -0.00296309       0.00658081
C        3.39665150       2.98775442       6.21148794       0.00515927      -0.00587691       0.00264967
C        1.92374179       5.25406513       5.55595549       0.00506004      -0.00632435       0.00648874
C        3.20163256       3.98747595       7.15896400       0.00695291      -0.00942328       0.00237407
C        2.47203273       5.12185513       6.82593846       0.00670744      -0.00721756       0.00758481
H        3.02473580       2.35263750       4.19496319       0.00215379      -0.00286321       0.00132994
H        1.71154337       4.36827778       3.61269422       0.00186490      -0.00200940       0.00633846
H        3.96637249       2.10313426       6.46673148       0.00545250      -0.00748432      -0.00095382
H        1.33471237       6.12938744       5.31404414       0.00488341      -0.00473700       0.01006889
H        3.61529337       3.88691088       8.15511997       0.00817619      -0.01025433       0.00288010
H        2.32892713       5.90683280       7.55676219       0.00788946      -0.00954816       0.00795858
C       13.80517295      10.61327279      11.24309217       0.00758411       0.01492620       0.01181262
C       14.58313943      10.55825531      10.09463484      -0.01769782       0.01079277       0.00477222
C       12.93083503      11.67966117      11.43760103       0.01105895       0.02907663       0.02057028
C       14.45915585      11.54779744       9.12396009      -0.01729368      -0.00156689      -0.00036132
C       12.80735956      12.66588564      10.46018796       0.00852843       0.01781486       0.01671135
C       13.55681579      12.58886691       9.29267991      -0.01523791       0.01420365       0.00814816
H       13.89112483       9.83912222      11.99555057       0.01078475       0.02380878       0.01750375
H       15.29527889       9.75367825       9.96094056      -0.01997184       0.00114861      -0.00348118
H       12.40828030      11.74168368      12.39167482       0.02531859       0.03354695       0.02481952
H       15.07424030      11.51483551       8.23438182      -0.03306130      -0.00759374      -0.00515008
H       12.16079214      13.53415994      10.58807236       0.01444995       0.02632578       0.02664589
H       13.44048020      13.33866827       8.52222602      -0.01746194       0.00653882       0.00563821
C        6.25262571       7.08638929       5.74772257       0.00888728      -0.01242375      -0.00462194
C        7.41266870       7.83230314       5.56238394       0.00868523      -0.01079667      -0.00473229
C        6.28038748       5.70458910       5.61463516       0.01376164      -0.01314329      -0.00246397
C        8.60535709       7.18630430       5.26631011       0.00924873      -0.00764818      -0.00153204
C        7.47523936       5.05903608       5.31542972       0.01400764      -0.01007462       0.00018485
C        8.63753729       5.80049230       5.15081228       0.01352701      -0.00824472       0.00012562
H        5.32545280       7.58642620       5.98617216       0.00840399      -0.01452577      -0.00632218
H        7.38824957       8.91182373       5.65006658       0.00545405      -0.01022470      -0.00650235
H        5.36682700       5.13558661       5.73995540       0.01414724      -0.01479375      -0.00200199
H        9.51132404       7.76347417       5.13499490       0.00878535      -0.00632027      -0.00103306
H        7.49913988       3.98254624       5.20465858       0.01750492      -0.01058334       0.00177091
H        9.56762229       5.30002934       4.91721491       0.01438308      -0.00621205       0.00208681
