198
Lattice="12.510608742200507 0.0 0.0 0.0 12.510608742200507 0.0 0.0 0.0 12.510608742200507" Properties=species:S:1:pos:R:3:forces:R:3 energy=-760023.625 stress="0.002708578249439597 -8.093363794614561e-05 0.00020351116836536676 -8.093363794614561e-05 0.0009208847768604755 0.00025290627672802657 0.00020351116836536676 0.00025290627672802657 0.0015415871748700738" pbc="T T T"
Ba      11.19455766      12.84535564       1.02248524       0.00552651       0.00124592       0.00020754
O        9.87083927       2.66088853       0.96004960       0.00033505       0.00769383      -0.00036752
O       10.54484841       4.00555641       3.60280017       0.01296741      -0.00162470       0.00335610
O        9.95638126       1.29431043       3.28775389       0.00654973      -0.00676012      -0.01201892
O        7.73249823       3.00829975       3.18056821       0.01074028      -0.00362831       0.00222138
W        9.44900389       2.91899265       2.70442485       0.00397450      -0.00576967      -0.00627112
N        5.82028916       5.07283773       4.34338474       0.01085451      -0.01169571      -0.01477922
H        4.81423777       4.99029169       4.22119714       0.01214966       0.00087301      -0.00456709
H        5.99624326       4.80243350       5.30762913       0.01474594      -0.00208831      -0.00822747
H        6.28000034       4.34705269       3.78918372      -0.00252454      -0.02685024      -0.00440334
N        0.47884690       1.85987750       2.87462534       0.00462848       0.00641501      -0.00523314
H        0.97801491       1.24900800       3.51593432      -0.00954033      -0.00481030      -0.00184391
H       -0.19477591       2.38625365       3.42826023      -0.00486046      -0.00342615      -0.01903872
H        1.15099041       2.54687040       2.54581921       0.01820534       0.00997047       0.01993290
N        9.85253402       0.10407724       8.04759664       0.01195353      -0.01084143       0.00701901
H        9.26630839       0.13727496       8.87250221       0.00900571      -0.01207048       0.00315450
H        9.23999152       0.17719695       7.22270870       0.01521909      -0.01510975       0.00558562
H       10.41932936       0.94566249       8.06996674       0.00616364      -0.00444051       0.00917456
N        9.12229864      10.87838399       0.23097773      -0.00846371       0.00547287       0.00540841
H        8.39201208      11.25706256      -0.36662428      -0.00357279      -0.01967276      -0.00568178
H        8.64546326      10.47311534       1.03541554      -0.01114310      -0.00522238       0.00119191
H        9.50973198      10.08415189      -0.27305539       0.02389317       0.00963807       0.01827890
N        5.91200662       3.05386891      10.65718837      -0.02094036       0.00677629       0.01685716
H        6.55379925       3.78001501      10.33929141      -0.01159111       0.00768504      -0.02306809
H        6.17874144       2.21189321      10.16027370      -0.01733528      -0.00538987      -0.01496702
H        6.10234868       2.88538418      11.63956120      -0.00650330       0.01159890      -0.02883543
N        8.35795618       9.78809220       8.89492584       0.00505681      -0.01206139      -0.00965542
H        9.07948632      10.40989509       8.54014950       0.01258399      -0.01147305       0.01079766
H        8.14612579      10.11083313       9.83381617       0.01431451      -0.04837222       0.00449294
H        7.51947966      10.01036431       8.35141589       0.00559298       0.01672830       0.00187589
N        9.99473225       7.17049365       7.73213538       0.01724207       0.01696388      -0.01029746
H        9.57704014       6.71948445       6.91507458       0.01000289       0.02338940      -0.00975598
H        9.32142276       7.84194777       8.09751034       0.01668096       0.01992366      -0.00861645
H       10.14576940       6.46973585       8.45210322       0.00757381       0.01420116      -0.01475681
N       11.04369129       8.12034196       1.91295668      -0.00631496      -0.00214575      -0.01394670
H       12.05632711       8.01310829       1.85717904      -0.00562549      -0.04352065      -0.01456479
H       10.87394743       9.12116563       1.96379705       0.02969133      -0.02016978       0.01332509
H       10.67389493       7.83025449       1.01229450      -0.00771893       0.02486528      -0.03944011
N       10.25658913       4.62206365       9.92187609      -0.00896768       0.00530815       0.01581831
H        9.29324963       4.56211813       9.59836160      -0.00747599       0.00463009       0.01072902
H       10.26469282       4.26290399      10.87115656      -0.01158982      -0.01061183       0.00818141
H       10.81703167       3.98501322       9.35904358      -0.00666267       0.01212916       0.00722954
N       10.12760317       7.92389458      11.10770792      -0.00559291       0.00017542      -0.02361417
H       10.21109221       6.94317528      10.84353082       0.00096121      -0.00096893      -0.01225589
H       11.08086277       8.27063665      11.14677487      -0.00315255       0.00710741      -0.03199756
H        9.70060620       8.38265857      10.30488471      -0.00826745      -0.01026746      -0.02394286
N       11.94476915       0.53163536       5.73733411       0.00112708      -0.00645345      -0.00251091
H       12.68736600       0.06467303       5.21926593      -0.00880492      -0.01131412      -0.00453249
H       11.30401812       0.93211739       5.05180205       0.00120473       0.00424099      -0.00371000
H       11.41682088      -0.18369053       6.22638415      -0.00990384       0.00185874      -0.00465975
N        8.81416207       5.12585784       1.72037013       0.01745787       0.01155818       0.01501837
H        8.58203037       5.04155182       0.73873071       0.00345317       0.00095191      -0.00656834
H        9.57925439       5.78609373       1.81423769      -0.00799701       0.00389715       0.00255678
H        8.01240379       5.51342955       2.20431082       0.00001949       0.00044203       0.00184608
N        1.21413372       8.05602393      10.09625003       0.01322496       0.00191059       0.00870802
H        1.11289799       8.28605273      11.07965734       0.01200346      -0.01196279      -0.01796264
H        0.78430356       7.14663983       9.96994973       0.00599091      -0.00828686      -0.01404833
H        0.64362981       8.71766844       9.56822732       0.00025812       0.00314730      -0.00598409
N        4.19572050       7.48407746       8.17404690      -0.00456695       0.00351009       0.00127020
H        5.09722295       7.84327004       8.46509872      -0.01741326       0.00921143       0.00855176
H        4.25221416       6.46811319       8.14142853       0.00131853       0.00007665       0.00366476
H        3.52941097       7.70211063       8.90997845      -0.01842485      -0.00385559      -0.00459324
N        0.29221522       2.27297842      12.01209732      -0.00428227       0.01657981       0.01665682
H        1.18763066       2.07014333      11.56076358      -0.00485608       0.01279667       0.00996684
H        0.47804914       2.89813523      12.79080988      -0.01586960       0.02430509      -0.01128297
H       -0.26159395       2.80316757      11.34916385      -0.01370902       0.00394671      -0.00903593
N        2.44815436      -0.13345693       7.77424699      -0.00116422       0.00326695       0.00600290
H        1.54617023      -0.38103228       7.37851887      -0.00967865      -0.01300701       0.02921217
H        3.14171138      -0.59220801       7.18962175      -0.01226589      -0.01075831       0.00837597
H        2.53741183       0.86057944       7.57646311      -0.01131929      -0.00248477      -0.02272075
N       10.47003770      10.94007750       3.24874912       0.02032503      -0.01969491       0.02158320
H       11.01515252      10.41563244       3.92279683      -0.00720599       0.00934470       0.04700807
H        9.58076404      10.45378304       3.14118149       0.01774637      -0.01829069       0.00934619
H       10.26222623      11.85141012       3.65852568       0.00011420      -0.00327630      -0.00572775
N        1.84946354       8.14535799       2.11477349      -0.01596281       0.00117829       0.01895034
H        2.77909631       7.75194743       1.96040184      -0.02005047       0.00026614       0.00774118
H        1.69672985       8.14393546       3.11859489       0.00434198       0.02554911       0.01682089
H        1.92522270       9.12142811       1.84622999      -0.01609949      -0.00149127      -0.00629077
N       12.22784459       7.79008151       5.08787847       0.00319386       0.01325056      -0.01983922
H       11.67987155       7.80992719       4.22999677       0.00450759       0.01605347      -0.01600998
H       11.56471409       7.78926431       5.86167274       0.00256898       0.01239881      -0.01580974
H       12.64686121       6.86521593       5.10218013       0.00242908       0.01303193      -0.02024145
N        2.66171985       5.60044939       5.51212305      -0.00138142       0.00455727      -0.00688598
H        1.69761198       5.37725545       5.76557112       0.00129194      -0.00026300      -0.00240655
H        2.74381762       6.61022929       5.55168851      -0.00595044       0.00271780      -0.01490355
H        3.22624159       5.25962463       6.28542688       0.00298053       0.01223208      -0.00255094
N        3.24274203       3.61838247       1.14259394       0.00138841      -0.00705370      -0.00717182
H        3.35753057       3.81247682       0.15439744       0.00686682      -0.02982792       0.00850727
H        4.04115380       4.02801639       1.61399282       0.01076299       0.00795378      -0.00081191
H        2.41491977       4.12799161       1.46856225       0.00450094       0.00110052      -0.00570566
N       11.85897543       9.85832072       8.08685340      -0.00594249       0.00417905       0.00572193
H       12.42777818       9.77012661       7.25119181      -0.01690272       0.02572947      -0.00719079
H       11.31257481      10.71363521       7.98620606      -0.02444619      -0.01063142       0.02176872
H       11.20582810       9.07615576       8.02667920       0.01473962      -0.01401049       0.00600778
N        2.05133751      11.66155753       4.18318960      -0.01360169       0.00595242       0.00368169
H        2.94102346      11.95937211       3.79124078      -0.00430944       0.02114337       0.02166124
H        1.54793766      11.23583392       3.41079960       0.01073771       0.00583391      -0.00475184
H        2.28896805      10.90092027       4.82354263      -0.01407641       0.00918201       0.00663550
N        2.23941425       2.59454739       6.02940762      -0.01195164       0.00931858      -0.00050503
H        1.44960712       3.23711204       6.03119690      -0.01257461       0.00493156      -0.02133650
H        1.86607201       1.70676619       5.70603549      -0.00014865       0.00697234      -0.01590431
H        2.85410914       2.92674395       5.29207644       0.01061619       0.01168532       0.02083808
N        8.08322439       3.42626912       6.23976221      -0.00417216      -0.00720567      -0.00752399
H        8.77303045       4.16918775       6.15947961      -0.01082605      -0.01685000       0.02478181
H        7.87479095       3.16646006       5.27292142       0.00499085       0.00690352      -0.00982326
H        8.56790079       2.62801288       6.63767583      -0.00216480      -0.03036278      -0.01513088
N        7.82827640       8.99153437       2.55236267      -0.00349717      -0.00070834       0.00387629
H        7.26423152       8.78561265       1.73087497      -0.00529844       0.00069105       0.00709894
H        7.23289311       8.81584930       3.36036874       0.00118826      -0.01062884       0.00674508
H        8.56349564       8.29009114       2.56389695       0.00346962       0.00617621      -0.00389112
N        2.92747446       1.24106882      10.63059381      -0.00001156       0.00546171       0.01296311
H        2.88700359       0.65444948       9.79886457      -0.01021656       0.02015918       0.00436790
H        3.44172785       0.73079586      11.33958120       0.00072792      -0.01110662       0.00139365
H        3.50357912       2.04357416      10.39578484       0.00499101       0.00454877       0.02381133
N        8.19024700      12.65463234       5.51950372      -0.00036003      -0.00312902      -0.00372690
H        8.18428207      11.66270411       5.31427611      -0.00994644      -0.00796950      -0.01913644
H        8.54772687      13.13630261       4.69458017       0.01312143      -0.00254083       0.00659919
H        7.22149242      12.92812757       5.66038721       0.00356127       0.00068967      -0.01218582
N        2.45278797       9.29902096       6.34182443      -0.01302920       0.00835052       0.00628380
H        3.04767729       8.58186735       6.76380932      -0.01423225       0.00628479       0.00839788
H        1.65844798       8.82473869       5.91093999      -0.00757058       0.01102855      -0.00048409
H        2.07465658       9.79181833       7.14439744      -0.01914659       0.00462372       0.00706903
N        5.67477650      10.87573378       7.49808107      -0.00967595      -0.00993297       0.00860657
H        5.38043173      10.36854147       6.67054223      -0.00559217      -0.03277810       0.01851379
H        5.65951169      11.86048174       7.23407161      -0.02066831      -0.01593116      -0.01521184
H        4.95231783      10.73186165       8.19739260      -0.00553980      -0.00083673       0.00803809
N       12.06460390       4.65765870       6.12455767      -0.00322387      -0.02748090       0.01119635
H       11.84552134       3.89870806       6.76256616      -0.00340024      -0.01458535       0.01845563
H       11.54537795       4.46649129       5.26241714      -0.00539132      -0.02968955       0.01466952
H       11.64411592       5.48590108       6.53424032      -0.00108548      -0.01580566       0.00462441
N        1.66641471      -0.44049284       0.96812121      -0.00790736       0.01138251      -0.00674570
H        1.62097100      -0.06026688       0.02766266      -0.01071302      -0.00379056      -0.01304558
H        2.45582442      -1.09521742       0.96174601      -0.00981213       0.00805295       0.00034211
H        1.96140969       0.34027385       1.54727355      -0.01236758       0.01661282      -0.02153063
N        4.88843203       7.01269513       1.45318703      -0.00694972       0.00773868       0.00867928
H        5.60597109       7.35472932       0.81226799       0.00074810       0.00070904       0.01892278
H        4.53354466       6.14351875       1.07242733      -0.01296168       0.00704077      -0.00269197
H        5.34732455       6.78464111       2.32953912      -0.02740086      -0.00115656       0.01214206
N        4.31162074      10.33472458       0.98804015      -0.00462770      -0.01621722       0.00550079
H        4.63505661      10.63207374       1.91197312      -0.01492469      -0.00881500       0.00671420
H        5.05091407      10.57954110       0.33709991      -0.00357916       0.00272796       0.01089016
H        4.30425175       9.31762967       1.02286649       0.01946019      -0.01437395       0.00321842
N        5.01361987       1.51335660       2.98343596       0.01203036       0.02159929      -0.00111420
H        4.40939254       2.00600010       2.33328936      -0.00483837      -0.00890525      -0.01016566
H        5.06035013       0.54627374       2.68332034       0.02056733       0.00457825       0.02066335
H        5.95227273       1.90845778       2.90734905      -0.00066977       0.02273173      -0.02055810
N        5.49776832      11.07098386       3.89191499       0.00270312      -0.00665632      -0.01941052
H        6.46868819      11.23685335       3.64639446      -0.00092124       0.00390883      -0.01450621
H        5.48182567      10.14654369       4.32000307       0.00037550      -0.01154716      -0.03801553
H        5.28166238      11.75318884       4.61258935      -0.00260718      -0.01887786      -0.00061209
N        5.29809032       1.41457447       6.07740464       0.00519218       0.00812000       0.00624090
H        5.90442453       2.17100129       6.38520947       0.02631946      -0.00331215      -0.00487044
H        4.38778900       1.60736824       6.48177805       0.01689274       0.02638444       0.02293806
H        5.17046822       1.54754471       5.06659626      -0.00666581       0.00915150       0.00928801
N        7.17321862       5.25182517       8.70110958       0.00184087      -0.02791448       0.00229472
H        7.28849118       4.64412865       7.88693083      -0.00152705      -0.00699758      -0.00655289
H        7.65214840       6.11734043       8.46961638       0.00610714      -0.02912191       0.03461216
H        6.18303888       5.46645761       8.75042273      -0.00790390      -0.01501905      -0.00706435
N        6.90016849       8.28874478      11.84278631       0.00336473       0.00987568       0.00642726
H        6.72931321       9.27118192      11.64296699       0.01035699       0.00201364      -0.00646682
H        6.48530375       7.77351962      11.07363692       0.00491756      -0.00207372       0.00666662
H        7.90576669       8.15075106      11.76411428       0.00296505      -0.00065397       0.01410435
N        3.38396277      10.37579564      10.18810685       0.00762621       0.00553342       0.00285424
H        3.16732343      10.63000528      11.14770191       0.01178696       0.01019192       0.00816875
H        2.94413999       9.46836847      10.04815699       0.00165173       0.00739209       0.00980013
H        2.89317106      11.02599043       9.57651479       0.01322512       0.00575656       0.00661021
N       12.44872474       2.19120756       8.37832525      -0.01124910       0.00984895       0.00153852
H       12.36260800       1.69697487       7.48182127       0.01561229       0.01497580      -0.00150907
H       12.57503102       1.46701399       9.07774848      -0.00403104       0.00954863      -0.00161393
H       13.33665716       2.68176988       8.33289761      -0.02118799       0.03404783       0.01914080
N        8.99700560       6.23265965       4.90781292      -0.01206446      -0.00400700      -0.00278282
H        8.02177609       6.07501986       4.67112029      -0.01053657       0.00116194      -0.02076146
H        9.54268632       5.51082694       4.42759700      -0.00819785       0.00550562       0.00521303
H        9.26676096       7.11656307       4.49246697      -0.00664065       0.00431394      -0.00050324
N        5.92246452       8.10073990       5.22955374       0.00245900       0.00521746       0.00271499
H        6.60103422       8.06702341       5.98394623       0.01996168       0.01640067      -0.01634024
H        5.90990730       7.16031623       4.82781889       0.01215107       0.00878322      -0.00477982
H        5.02288385       8.21215490       5.68825411       0.00895482      -0.01666250       0.02417570
N        9.28661073       1.37284497      -1.48098654       0.01226389       0.00238168       0.00083151
H        9.58088918       1.99427661      -2.22689962      -0.00850894       0.01994239      -0.00812706
H        9.28681836       1.94622517      -0.62590307       0.02473786       0.00664659       0.00321412
H        8.31701765       1.14954314      -1.67552455       0.02835955      -0.01499056       0.02131270
N       11.96648522      11.89958245      10.78357048      -0.00172846      -0.01179427       0.00248784
H       11.15483591      12.44213043      10.49131938       0.00972572      -0.00552420      -0.00091380
H       12.04281843      11.12881806      10.12378670       0.00117578      -0.01151340       0.00838207
H       12.78016019      12.48446905      10.62346140       0.01195658      -0.01365004       0.00176974
N        0.83804181       5.01106394       2.51215492      -0.00428113       0.00173363       0.00589664
H       -0.13541804       4.79192719       2.72643104       0.01030664       0.00285662       0.01202450
H        0.87057260       5.95491988       2.13749804      -0.00836378       0.01935473       0.01043041
H        1.32368996       5.04890517       3.40499503       0.01435828       0.00371856      -0.00476440
N        3.67909044       4.31127284       8.62959772       0.01050194       0.00313073      -0.01984835
H        4.29964562       3.87343411       9.30872612       0.00187521      -0.00098017      -0.01533060
H        3.33044529       3.59170843       8.00012992       0.01491087       0.01164287      -0.02505283
H        2.88070862       4.66503489       9.14438963       0.00092288      -0.00203111      -0.02016117
N        6.22388174      11.58504564      10.78497607       0.00374424      -0.00151613       0.00903231
H        5.96632017      12.44573454      11.25592486      -0.00044356       0.00145842      -0.00538328
H        5.34413662      11.13354639      10.51037765       0.00598639      -0.01156979       0.01737229
H        6.66849695      11.84646413       9.91032046      -0.00456578      -0.00927600      -0.00091131
