195
Lattice="13.24087772639453 0.0 0.0 0.0 13.24087772639453 0.0 0.0 0.0 13.24087772639453" Properties=species:S:1:pos:R:3:forces:R:3 energy=-351204.6875 stress="0.0013170073507353663 0.00021088428911753 0.00015138879098230973 0.00021088428911753 0.0016405419446527958 -0.0004767014179378748 0.00015138879098230973 -0.0004767014179378748 0.0009967159712687135" pbc="T T T"
Ba      12.60302460      10.93532058      -0.22982656      -0.00231797       0.00551508      -0.00106430
Cl       5.85443925      13.11223137       6.72550460      -0.01270955      -0.01467825      -0.01116100
Cl      12.11809386      13.74719223       0.46311062       0.00918666       0.00443839       0.00444955
O        0.42445356       8.42699170       8.68445496       0.00656296       0.00564563      -0.00317610
C        1.07914318       9.66310778       8.86662452       0.00534648       0.00622386      -0.00163360
H        2.10320826       9.66151725       8.47679433       0.00500017       0.00908434      -0.00239898
H        1.13006573       9.95439663       9.92777218       0.00559126       0.00511795      -0.00108767
H        0.51167626      10.42234750       8.32802725       0.00401714       0.00625902      -0.00047678
H        0.91825462       7.75041992       9.18442882       0.00629614       0.00517601      -0.00386522
O        6.83965518       1.14090271       3.98241680      -0.00342932      -0.00086457       0.00573769
C        7.50561922       2.21007453       4.63226533      -0.00427538      -0.00161800       0.00722228
H        8.11346051       2.71715053       3.88439248      -0.00162354      -0.00285801       0.00840026
H        8.17841841       1.85390336       5.41873865      -0.00646961      -0.00052987       0.00996384
H        6.80380338       2.93311131       5.06055865      -0.00419647      -0.00000313       0.00527596
H        6.41685089       0.62435700       4.68811696      -0.00981063       0.00131614       0.00406281
O       10.80039886      11.24174841      11.07012946       0.00417174       0.00206181       0.00360292
C        9.45179502      11.37223258      11.55358806       0.00329523      -0.00270931       0.00223357
H        8.79699382      11.73719621      10.76230829       0.00477464      -0.00956133      -0.00211740
H        9.41576764      12.07888829      12.38856696      -0.00286078       0.00084212      -0.00058168
H        9.08971910      10.39919903      11.88738194       0.00735363      -0.00296107       0.00672267
H       10.85814709      11.70628939      10.19820602       0.00441580       0.00344594       0.00383265
O       12.10297029      10.39677649       2.30286324       0.00289668       0.00689074      -0.00027263
C       11.98828214       9.11708238       2.93501859      -0.00282516       0.00811922       0.00129347
H       10.94462280       8.80557072       3.00876597      -0.00394464       0.01141252      -0.00044563
H       12.42632063       9.14146306       3.93331565      -0.00590250       0.00608576       0.00276864
H       12.53355799       8.39853931       2.32581584      -0.00360061       0.00610709       0.00314856
H       11.75995799      11.10305843       2.90248658       0.00199459       0.00810250      -0.00186318
O        3.83094337       3.27062469      -0.16787680       0.00424784       0.00145466      -0.00429940
C        4.60560345       3.87639518       0.89225179      -0.00165284       0.00488658      -0.00097884
H        4.97094729       4.86214911       0.59997418       0.00069755       0.00399876      -0.00106852
H        5.44290407       3.24284067       1.18134129      -0.00404713       0.00486265       0.00584911
H        3.94241831       3.98335624       1.74504082      -0.00840779       0.00765544      -0.00638299
H        4.41297207       3.10780263      -0.91701210       0.00796193       0.00101667      -0.00182074
O        8.87502414       4.59087127       1.70677130      -0.00378871      -0.00088958      -0.01494914
C        9.26374359       3.21919077       1.51008745       0.00075645      -0.00072267      -0.00067669
H        8.38500677       2.57021685       1.47401279       0.00323409      -0.00308940      -0.01797942
H        9.93870816       2.87178168       2.29534102      -0.01441032       0.00207581       0.01359040
H        9.77701475       3.17412950       0.55080439       0.02123405      -0.00266846       0.00963625
H        8.32775579       4.64306334       2.49788339      -0.01906310       0.00084196      -0.02112886
O       11.88584132       8.34930064      13.01034324      -0.00441280       0.00566730      -0.00441015
C       12.44788308       7.76547120      11.82862961      -0.00606033       0.00228757      -0.00394551
H       11.69364241       7.25661450      11.23067316      -0.00517598      -0.00730385       0.00325634
H       13.23785135       7.05892604      12.08476327       0.00078030       0.00959367      -0.00442781
H       12.88929424       8.55653949      11.21876597      -0.01556502       0.00186777      -0.01144816
H       11.51732790       7.61404173      13.55132587      -0.00293619       0.00733033      -0.00165947
O        2.23164922       7.45838267       0.51703558      -0.03373297      -0.01877970       0.01303717
C        2.85190525       7.24460689       1.78423276      -0.01125506      -0.00780497       0.00431478
H        2.64033976       8.11008234       2.41181798       0.00452235      -0.00013143      -0.00166921
H        3.93635019       7.13595873       1.68878801      -0.01298583      -0.01799243      -0.01031911
H        2.45397998       6.35688990       2.27789451      -0.00702716      -0.00061399       0.02207299
H        2.06031569       6.60075540       0.08329164       0.00380237      -0.02076977       0.00618745
O        6.22219393       2.50278911       8.34695692      -0.00188950      -0.01501573      -0.00533521
C        6.32867526       1.93324842       9.64107979       0.00129829      -0.00794543      -0.00243858
H        7.09220457       1.15121284       9.67437497       0.00459275      -0.00492203       0.00208895
H        5.37894980       1.49557604       9.97296793       0.00330994      -0.01007514       0.00115071
H        6.61345252       2.73131562      10.32868374      -0.00156888      -0.00264904      -0.00718808
H        6.09032476       1.76392441       7.71778402      -0.00846118      -0.01734431      -0.00195508
O        1.84864900       9.92814635      -0.34440518      -0.00119851       0.00285941       0.00854470
C        3.16225786      10.50372365      -0.24704404       0.00026384       0.00188565       0.00276093
H        3.92082126       9.72244113      -0.30951264       0.01010498       0.01190105      -0.00364478
H        3.27642813      11.05312770       0.68862304       0.01231786       0.00202557       0.00121304
H        3.30552042      11.20093888      -1.07156321      -0.01013039       0.00131284       0.00040385
H        1.92871085       8.98576004      -0.05771650      -0.01282853      -0.00102189      -0.00616152
O        7.87429566       7.04876749       8.42692593       0.00110108      -0.00655606       0.00155771
C        7.07232481       6.41475280       7.44741591      -0.00131536      -0.00496154       0.00354403
H        7.37046741       5.37439055       7.28781498      -0.00618166      -0.00652647       0.00378887
H        7.13303222       6.93373291       6.47837745      -0.00091703      -0.00632653       0.00239730
H        6.03421596       6.41118683       7.78568225      -0.00116581      -0.00031864       0.00488251
H        8.75293862       6.62428143       8.38809303       0.00340280      -0.00464496      -0.00383614
O        1.82782444       5.04258237      12.44625612       0.00332546      -0.01023483      -0.00584954
C        0.69902679       4.16763902      12.25858088      -0.00479771      -0.00178485       0.00117433
H        0.64740533       3.42338776      13.05499178      -0.00871291       0.00216578       0.00505370
H        0.76752126       3.65932743      11.29471498      -0.01129425      -0.00714540       0.00337031
H       -0.20291853       4.77477633      12.26987805      -0.00049029       0.00492096       0.00098612
H        2.60534005       4.46395675      12.59679741      -0.00085787      -0.01499665      -0.00591097
O        4.19507688       8.03885579       6.60002467       0.03630394       0.00661393      -0.00216959
C        3.54315218       9.10397087       5.89811792      -0.00268881       0.00465063      -0.00420407
H        3.85284786       9.13407390       4.84939574       0.00318427       0.00741988      -0.00297132
H        3.73282162      10.06919414       6.36889200       0.00633838       0.00279850       0.00054500
H        2.47550393       8.89487544       5.94798316       0.00506169       0.00843697      -0.00313895
H        5.13668812       8.23226960       6.66738476      -0.02793884      -0.00829518      -0.00911999
O        6.72165605       8.89101737      13.06876281       0.00559226       0.00547522      -0.00780857
C        6.24146741       7.77256040      12.33210809       0.01012072      -0.00092602       0.00878200
H        5.23266639       7.47906253      12.64807891       0.00928494      -0.00101611       0.00715072
H        6.90681165       6.90759436      12.41532910       0.00942034      -0.00093094       0.01345095
H        6.20250389       8.07092031      11.28559832       0.00994364      -0.00855742       0.00368348
H        6.88669079       8.61260336      13.97386741       0.01305048       0.00859158       0.00604817
O       11.04698756      12.36112494       3.80211613       0.00577769       0.00330305       0.00009912
C        9.77058814      12.63354535       3.17376129       0.00150812       0.00375472       0.00850921
H        9.93297192      13.06337492       2.18476671      -0.00725096       0.00949661       0.00906166
H        9.17835205      13.31320613       3.78207563       0.00586253       0.00013199       0.01684493
H        9.26221778      11.67434927       3.08730228       0.00093016       0.00420243       0.00739033
H       11.53065798      13.19562216       3.87505090       0.00546046       0.00176686       0.00009774
O        1.13125227      12.43320831       5.17165372       0.00595497       0.00170294      -0.00344998
C        1.70006012      11.71291833       4.08350502       0.00592678       0.00285045      -0.00435022
H        1.32251022      10.68570926       4.05839803       0.00950783       0.00162670      -0.00069451
H        2.79051716      11.69122991       4.15271370       0.00563020       0.01019289      -0.00147031
H        1.42680292      12.20664215       3.14911714       0.00365756      -0.00190027      -0.00691479
H        1.77925928      12.42573616       5.91568162       0.00351721      -0.00900827      -0.00112395
O        3.28343300       0.50779801       1.18602056      -0.00226757       0.02199754      -0.02695131
C        4.39799242       0.60971243       2.06706789      -0.00065657      -0.00983717      -0.00536799
H        4.48006964      -0.33611019       2.59996603      -0.00515649      -0.00333396      -0.00762892
H        4.27899208       1.40642880       2.80732198      -0.00283838      -0.00387901      -0.01065624
H        5.33860542       0.77607378       1.53441624      -0.00030237      -0.00873216      -0.00762293
H        3.22839535       1.33353366       0.68991191       0.00513753      -0.01479128       0.00678116
O       10.87924036       2.30909377       4.46298578      -0.00451533       0.00463969       0.00121903
C       10.73229971       3.40916632       5.34069163       0.00260036       0.00317734       0.00442101
H       11.52012756       4.15493205       5.19045047       0.00383455       0.00164154       0.00238524
H       10.74281696       3.11176786       6.39529431       0.00698144       0.00014131       0.00353634
H        9.77147820       3.88538227       5.14201339       0.00257069       0.00613908       0.01051129
H       11.82136878       2.03933800       4.49533874      -0.00590510       0.00018319      -0.00148886
O        2.94548190      -0.89892099       7.12606535      -0.00823408      -0.01010251       0.00592458
C        2.62674569      -0.30433132       8.37469754      -0.00069001      -0.00747392       0.00673823
H        2.67478422       0.78651491       8.32477093       0.00331833      -0.00761002       0.00753280
H        3.30688740      -0.65189767       9.15679942      -0.00115103      -0.00868955       0.00709361
H        1.61125416      -0.60020615       8.63467928      -0.00107831      -0.00188138       0.00901283
H        3.87456527      -0.64727789       6.91198617      -0.01016790      -0.00757536      -0.00190448
O        3.55381589       5.87905931       5.04783568       0.00600037      -0.00328052      -0.00297024
C        2.43799582       5.25476346       5.67755407       0.00620158      -0.00045010      -0.00168873
H        1.49744501       5.70007889       5.33419807       0.00582746       0.00685982       0.00795002
H        2.50178784       5.35064188       6.76177624       0.01149933      -0.01113224      -0.00089309
H        2.43508049       4.19615580       5.41884877      -0.00160616       0.00138783      -0.01101732
H        3.85464640       6.59829587       5.63715739       0.00129737       0.00376553      -0.00583427
O        2.01817059       6.70032298      10.14725845       0.00297329      -0.00150236      -0.00478315
C        3.37029148       7.15872475      10.09679855       0.00034523       0.00731485      -0.00105409
H        4.07063308       6.33519134      10.24990666       0.00566755       0.01154783      -0.00098245
H        3.54624478       7.94617249      10.83673645      -0.00630516       0.00747263       0.00071409
H        3.54515083       7.55456467       9.09796563      -0.00092947       0.01007183      -0.00005066
H        1.92091605       6.14418006      10.93880238       0.00234842       0.00067355      -0.00410025
O       10.19008453       5.54250896       8.29044547       0.00102234       0.00447413       0.00079086
C       11.35486701       6.00467063       7.61795098       0.00289422       0.00354849       0.00337189
H       12.10997018       5.21521923       7.54618064       0.00123066       0.00205469       0.00150801
H       11.79996307       6.87423642       8.10754215       0.00519076       0.00088671       0.00602707
H       11.06122191       6.28583971       6.60650348       0.00395758       0.00733744       0.00386807
H       10.44775796       5.29782871       9.20584645      -0.00294289       0.00490191       0.00206065
O        5.69845927       5.20462861       3.45597681       0.01382390       0.00994390      -0.00871581
C        6.30478577       6.48217685       3.42425229       0.01192418       0.01147473      -0.00431187
H        5.78047571       7.20163888       4.05989697       0.00337400       0.01239824      -0.01204659
H        6.30855430       6.87738180       2.40001527       0.02108091       0.00797581      -0.00550252
H        7.34194483       6.43703179       3.77085478       0.00871056       0.01579236       0.00693798
H        4.92603907       5.26742502       4.04875723       0.01669682       0.00418582      -0.00388192
O        0.19190562       1.55935625       4.45251788      -0.00906155      -0.01281238      -0.00983030
C        0.93556453       2.09316525       3.36137833       0.00114076      -0.00588122       0.00097787
H        0.79354276       1.51271612       2.44689691       0.01228473      -0.00299951      -0.00277457
H        2.00249601       2.13742124       3.59767385      -0.00146496      -0.00511439       0.01255561
H        0.57673940       3.10942679       3.18871994       0.00245433      -0.00531259       0.00070325
H        0.58711885       0.69991282       4.73787347      -0.00145727      -0.00841399      -0.00432146
O       10.69770279      -0.83598400       8.70250646      -0.00160700      -0.00821732       0.00230905
C       11.32979253       0.20266005       7.96568499      -0.00932711      -0.00417961       0.00050367
H       10.99431029       1.19312340       8.28680000      -0.01628664      -0.00668147       0.00049394
H       11.14430249       0.09613633       6.89350517      -0.00973874      -0.00533342       0.00052252
H       12.40341026       0.13180224       8.13786969      -0.00862470       0.00326269      -0.00079855
H        9.74090995      -0.90925686       8.45957738      -0.00260067      -0.00895571       0.00609611
O        8.32004543       9.38252977       4.02372411       0.00275797      -0.00441229      -0.00029279
C        7.16822254      10.02848255       4.53142965       0.00066721      -0.00525455      -0.00346395
H        6.35827189       9.87707539       3.81583633       0.00476842       0.00167450      -0.00882286
H        7.31083926      11.10563746       4.66681237       0.00228016      -0.00661698       0.00529933
H        6.85635516       9.61172982       5.49863536      -0.00646928      -0.01160732      -0.00758311
H        9.06362257       9.61080574       4.61056723       0.00167540      -0.00101793      -0.00101078
O        4.29013082       4.42574003       8.63915562       0.00642979      -0.00311410       0.01507890
C        3.11881959       3.70043793       8.93846181       0.00300080      -0.00475599      -0.00033191
H        3.24942297       3.03187815       9.80284636      -0.00580923      -0.01200098      -0.00417832
H        2.77772846       3.09097083       8.09289560       0.00988301       0.00244418      -0.00802478
H        2.33607141       4.41932137       9.18103024       0.00198692      -0.00536835      -0.00181701
H        4.99232121       3.78313018       8.41557124       0.00406820      -0.00167384       0.00401306
O        8.13058801      11.89145645       8.41921732      -0.00634965       0.00090724      -0.00485633
C        7.96705775      10.48282632       8.22562558      -0.00346152       0.00040242      -0.00061622
H        8.62848185      10.11609633       7.43845601      -0.01889130       0.00177195      -0.01441205
H        6.93310184      10.25999390       7.95693542      -0.00869355      -0.00551850       0.02355520
H        8.20023499       9.96825284       9.15657820       0.02020156       0.00196980      -0.00574383
H        7.48083889      12.34750061       7.84468748      -0.00540026      -0.00456029      -0.01119809
O       10.40756260      10.33682014       5.59347785       0.00177565       0.00443375      -0.00121137
C       11.34296059       9.82222255       6.53818662      -0.00417709       0.00191970       0.00429659
H       11.48836477      10.51597134       7.36799289      -0.01291977      -0.00058013       0.00805998
H       12.31176885       9.60334570       6.07867553       0.00013933       0.00683106       0.01078042
H       10.93328729       8.89433614       6.93029823      -0.00497469      -0.00050709      -0.00277118
H       10.75570950      11.14688347       5.18550273       0.00680147       0.00108266      -0.00160063
O       11.09639069       6.13007817       1.10017890      -0.00575280       0.00468697       0.00290302
C       12.04965670       5.36507578       1.83071628      -0.00074804       0.00780999      -0.00007448
H       12.09353216       4.33289628       1.47213404      -0.00649479       0.00444102       0.00821051
H       11.81655069       5.35298886       2.89985976       0.01121458       0.01659420       0.00289208
H       13.02747614       5.82663818       1.68650116      -0.00144151       0.00500557      -0.01463466
H       10.21924157       5.73881070       1.27898731      -0.00445347       0.00154650       0.00282741
O       11.02084637       2.44803265      11.53282322      -0.00126982      -0.00399500      -0.00373429
C        9.86467336       1.76616341      11.06116880      -0.00333574      -0.00327544       0.00009303
H        9.16260230       1.55344169      11.87420017      -0.00546053       0.00413959       0.00043100
H       10.12914059       0.82917563      10.56622789      -0.00656807      -0.00745293       0.00608791
H        9.37534016       2.41769895      10.33680686      -0.00075027      -0.00658718      -0.00470577
H       11.44672459       1.88681734      12.21322584       0.00140940      -0.00384578      -0.00542100
O       10.67790359       5.03101818      10.89622761      -0.00310951       0.00211555      -0.00085913
C        9.41143277       5.39512501      11.44303244      -0.00292137       0.00512473      -0.00113403
H        9.18175591       4.80754995      12.33259799      -0.00227853       0.00935525       0.00194025
H        8.61169994       5.26666044      10.70626089      -0.00384739       0.00279246      -0.00009713
H        9.44555588       6.44759240      11.72867444      -0.00172666       0.00659901      -0.00577386
H       10.87729970       4.10803377      11.16063006      -0.00494420       0.00160332      -0.00166264
