198
Lattice="13.25741359889409 0.0 0.0 0.0 13.25741359889409 0.0 0.0 0.0 13.25741359889409" Properties=species:S:1:pos:R:3:forces:R:3 energy=-370341.40625 stress="-0.0017851584125310183 -0.000619754777289927 -0.00011350020940881222 -0.000619754777289927 -0.002077583922073245 -0.0006763436831533909 -0.00011350020940881222 -0.0006763436831533909 -0.0021292883902788162" pbc="T T T"
Ba      12.16686283      13.15038014       0.39623537       0.01499359       0.02250640       0.01550488
O        9.28406886       9.92335712       0.75917668       0.02157128       0.03336209      -0.01435637
O       11.52221319       9.30627440      -0.55757536       0.01041985       0.00163889      -0.01440966
O       11.66719435      11.06850141       1.44663521       0.03358287       0.00335047      -0.01259208
O       10.55251312      11.80717167      -0.78374732       0.04297701       0.01691264      -0.01240396
Cr      10.69010902      10.44057420       0.20289489       0.02680624       0.01418185      -0.01173693
O        1.75502302       5.89812898       3.55030233       0.00590527      -0.00543189       0.00775754
N        2.07082886       8.07655394       4.16710070      -0.00184409      -0.00128370       0.00094675
C        0.69375912       8.29588857       4.55103355      -0.00307924      -0.00273064      -0.00478703
C        3.01071907       9.12485438       4.47785617      -0.00580697       0.00437343      -0.00695595
C        2.47131557       6.87238293       3.71020003       0.00392473       0.00011075       0.00532860
H        0.32720034       9.22913522       4.11967946      -0.00455140      -0.00668982      -0.01182249
H        0.60775131       8.35300542       5.63915784      -0.00699370       0.00391462      -0.00538981
H        0.09479872       7.46796392       4.18780927       0.00050692      -0.00669542      -0.00109474
H        2.77325550      10.04116034       3.92989936      -0.00517091      -0.00229469      -0.01846558
H        4.02255867       8.81546142       4.22404386      -0.00389940       0.00403401       0.00229693
H        2.98576663       9.34653826       5.54624436      -0.01176612       0.01644849      -0.00945419
H        3.55208006       6.85712203       3.48000977       0.00268143       0.00242173       0.00553173
O        9.50489962       4.75614315       0.12335073       0.02687830      -0.02959608       0.00914800
N       10.77367701       5.73778388       1.75056518      -0.00083444       0.00210881       0.01193696
C       11.02722532       6.95034287       0.99149957      -0.01390384       0.00034761       0.00468934
C       11.45022744       5.59561894       3.01616668      -0.00199254       0.01719430       0.01428919
C       10.04137958       4.74838282       1.22288588       0.01949060      -0.01326913       0.01359892
H       11.98201763       6.87310309       0.47087015      -0.01588315       0.00544108       0.00038984
H       11.06008774       7.79498380       1.67808899      -0.01787380       0.00332744       0.00070718
H       10.22459306       7.11256401       0.28077340      -0.01825136      -0.00994724       0.00717214
H       12.53512139       5.64848901       2.88084441      -0.00206992       0.01989075       0.01524482
H       11.18810973       4.63994204       3.46829026       0.00144801       0.02027026       0.02260367
H       11.14880334       6.39475637       3.69860709      -0.00751077       0.02195165       0.00555301
H        9.95000099       3.88285543       1.90599258       0.02884461      -0.00961387       0.01904297
O       14.20948564       2.95097731       5.99552470       0.04346561      -0.01280600       0.00522685
N       13.29046595       2.10531843       4.07961359       0.00945258       0.00209826       0.01489709
C       13.21669558       0.74810549       4.58214292       0.00882069      -0.00028934       0.00740139
C       12.80826878       2.36332576       2.74608597       0.00829958       0.01000842       0.01753999
C       13.77995922       3.10769770       4.86821857       0.02659416      -0.00488405       0.01156747
H       13.82813654       0.06983970       3.97695965       0.00589298       0.00143480       0.00250660
H       12.18587699       0.39307184       4.59950472       0.00799435       0.00239728       0.00765567
H       13.59258197       0.74869948       5.60133978       0.01202489      -0.00657377       0.00616652
H       13.43259955       1.84422376       2.00528780       0.01531726       0.02672568       0.01115009
H       12.88366319       3.42270787       2.50997419      -0.00517244       0.01381493       0.02971010
H       11.76616742       2.04847642       2.62679098       0.01220331      -0.00153052       0.01385616
H       13.75218367       4.08841146       4.36836570       0.02504365      -0.00259751       0.01728839
O       10.35023760       0.05636557       5.84731374      -0.00881279      -0.00398202      -0.00231899
N        8.72363224       1.45509214       5.07294166      -0.00417704      -0.00070363       0.00048060
C        9.63634096       2.45585622       4.56834964      -0.00097986      -0.00198479       0.00422478
C        7.32452223       1.64471927       4.78936440      -0.00195412      -0.00052515      -0.00085379
C        9.17437799       0.33909550       5.68218515       0.00268221      -0.00526857      -0.00192699
H        9.37168403       3.43392770       4.97610002      -0.00257243      -0.00216118       0.00371212
H        9.58761310       2.48624053       3.47617885       0.00112580      -0.00189577       0.00421089
H       10.64223759       2.21743583       4.90065193      -0.00248840      -0.00192674       0.00644116
H        6.98062672       2.60677774       5.18196019      -0.00257989      -0.00242469       0.00196312
H        6.73529413       0.84841464       5.23677239      -0.00305617      -0.00236143      -0.00501114
H        7.14209798       1.62092442       3.71209357       0.00030793       0.00319403      -0.00111523
H        8.35628649      -0.31506915       6.02951627      -0.00524729      -0.00579017      -0.00657950
O        4.77768596       0.52799594       3.55410886      -0.00485453      -0.00747168      -0.00701287
N        3.37229703       1.92034019       2.42297208      -0.00156081      -0.00717337      -0.00941419
C        2.67975316       0.81539163       1.79762231       0.00095441      -0.00724310      -0.01189544
C        2.93845788       3.27688223       2.15016003       0.00116776      -0.00660101      -0.01081846
C        4.36738222       1.64948658       3.28274810      -0.00411868      -0.00862461      -0.00617269
H        2.42259165       1.08750518       0.77620625      -0.00894388      -0.00095449      -0.00772312
H        1.79167470       0.54317529       2.37770363       0.00735246      -0.01953422      -0.00700241
H        3.33974367      -0.04771922       1.77881898       0.00634064      -0.00285539      -0.02495186
H        2.99363928       3.48469626       1.08038722      -0.00134560      -0.00964845      -0.01136336
H        3.57463551       3.97456051       2.69016965       0.00527780      -0.00736968      -0.01483828
H        1.92181500       3.45507670       2.49290270       0.00315687      -0.00198861      -0.00795273
H        4.79253212       2.56369556       3.73132547      -0.00830548      -0.00813878      -0.00243340
O        6.46671235       7.11515490       1.27816490      -0.00369212       0.00406930       0.00583267
N        6.55149978       6.01856357       3.27494707       0.00510227       0.00533150       0.00464551
C        6.88319072       4.75585991       2.65445586       0.00429373       0.00562218       0.00448746
C        6.29843548       6.04399337       4.69685717       0.00960432       0.00664445       0.00547157
C        6.38948470       7.11307306       2.49326680      -0.00014225       0.00422177       0.00287986
H        6.00558732       4.10628601       2.56810402       0.00405288       0.00579789       0.00470915
H        7.63645222       4.24085320       3.25121214       0.00404783       0.00533719       0.00439715
H        7.27791422       4.95305803       1.66125527       0.00399913       0.00506543       0.00449449
H        5.41324857       5.44786808       4.94689916       0.01019630       0.00747477       0.00871719
H        6.13510418       7.06959443       5.02662227       0.01132796       0.00688407       0.00522329
H        7.15315268       5.64082894       5.24639440       0.01117721       0.00640659       0.00229307
H        6.17397427       8.02143139       3.08382471      -0.00150716       0.00376913       0.00503924
O        9.68548317       4.09792787      10.20751546      -0.00420904       0.00358403       0.00031605
N       11.41503048       2.63135769      10.41332327      -0.00377723       0.00328483       0.01143315
C       10.73192396       1.84145466      11.40293849      -0.00910159       0.00595739       0.00950652
C       12.71043594       2.19783650       9.94903649      -0.00304721       0.00140822       0.01649233
C       10.81889943       3.74677399       9.92977725       0.00112760       0.00182015       0.00467064
H       11.07694194       2.10188873      12.41588800      -0.02463539       0.01679924       0.01205930
H       10.85297723       0.77139846      11.20045259       0.00108633       0.00554033       0.01903003
H        9.67472189       2.08247541      11.38040565      -0.01093626      -0.00249542      -0.00494549
H       13.42747017       2.15547817      10.77551720      -0.00479661       0.00286389       0.01820374
H       13.09572625       2.90262266       9.21680132       0.00005955      -0.00087813       0.01614851
H       12.63941531       1.21053323       9.48059100      -0.00254176       0.00013095       0.01900218
H       11.47881090       4.29359239       9.24435315       0.00137311       0.00021106       0.00715220
O        3.96721690       1.60635195      12.43738896      -0.01341474       0.01353240      -0.00956398
N        5.94314846       2.76386720      12.49210681      -0.00803286       0.00841568      -0.00317060
C        5.35336963       4.07526182      12.30554606      -0.00281084       0.01009360      -0.00544694
C        7.38835699       2.70348698      12.55424156      -0.00827420       0.00428005       0.00342683
C        5.19010146       1.65728878      12.54530265      -0.00680172       0.01067612      -0.00413899
H        5.70807071       4.51135009      11.36901591       0.00074205       0.00839233      -0.00468883
H        5.65207566       4.74184907      13.11689525      -0.00337420       0.00922143      -0.00477007
H        4.27234321       3.97672413      12.27280228      -0.00312829       0.01353054      -0.00841091
H        7.82910189       3.17330750      11.67097303      -0.00280870       0.00776379       0.00810862
H        7.70285299       1.66310827      12.61894727      -0.01144013       0.00309199      -0.00160300
H        7.77805771       3.25043098      13.41081198      -0.01035988      -0.00281939       0.00888798
H        5.80292639       0.75013851      12.69280580      -0.01387471       0.00989982       0.00000148
O       10.05592794      10.35149850       6.88396604       0.00873625      -0.01000106      -0.01069188
N       11.68305931      10.46085395       8.49026240       0.00628373       0.00167392       0.00698808
C       12.49816599       9.43165387       7.89237050       0.00240091      -0.00179269      -0.00362954
C       12.07162475      10.94485674       9.79638505      -0.00867003       0.00014480      -0.00486854
C       10.51697608      10.82315454       7.90893747       0.00341779      -0.01870394      -0.02414560
H       12.56421289       8.56272620       8.55078810       0.00474254       0.00211272       0.00532886
H       13.50832599       9.80726761       7.71198219       0.00474533       0.00238159       0.00461650
H       12.03490835       9.14533736       6.95122338       0.01037326      -0.00388218       0.00324577
H       12.00000938      10.15984957      10.55493968       0.00216375      -0.00183854      -0.00592119
H       11.39583473      11.74099603      10.10232005      -0.02320848      -0.01219149       0.00090196
H       13.09906505      11.32697632       9.77171952      -0.01832554       0.01756325       0.00287463
H       10.00665884      11.61407312       8.48392665      -0.01017043      -0.00409454      -0.01178855
O        0.99756654       6.16759555       0.44056122      -0.00879240      -0.00261933       0.01108705
N        2.30393032       8.04413543       0.63897051      -0.00738638      -0.00141990      -0.00271128
C        1.21177082       8.99006495       0.64454697      -0.00774296      -0.00232996      -0.00528850
C        3.64136461       8.58484525       0.68917223      -0.00767224      -0.00034609      -0.00812171
C        2.08458254       6.71518548       0.51118019      -0.00606811      -0.00142312       0.00593121
H        1.30487919       9.67199963      -0.20687769      -0.00949019      -0.00525531      -0.00759766
H        1.21063512       9.58358703       1.56476721      -0.00853276       0.00088058      -0.00765851
H        0.26631036       8.46698774       0.55547680      -0.00690860      -0.00397800      -0.00307338
H        3.79629686       9.28956715      -0.12917680      -0.01076265      -0.00362617      -0.01153806
H        4.38204328       7.79412474       0.60357464      -0.00708334       0.00016108      -0.00630120
H        3.81289771       9.11183152       1.63469054      -0.00606748       0.00382066      -0.01091388
H        3.03759818       6.15390743       0.48518141      -0.00768596      -0.00215814       0.00753120
O        3.59570435       9.31045231      10.25024673      -0.00141430       0.00326155      -0.00281918
N        5.22980348      10.53919700      11.26896040       0.00677090       0.00119622      -0.00358507
C        4.31538937      11.55045828      11.74659873       0.01095770       0.00463675      -0.00498769
C        6.63440664      10.67827193      11.60398091       0.00684898      -0.00577430       0.00096969
C        4.76910186       9.49470311      10.55471537       0.01210868       0.00244895       0.00000054
H        4.50128150      12.50977868      11.25927870       0.01540811       0.00348303      -0.00536655
H        4.43488949      11.69313617      12.82403029       0.00954666       0.00433887      -0.00489321
H        3.29853685      11.23136356      11.52871069       0.00972676       0.00882494      -0.00631817
H        6.98541336      11.67648488      11.32766502       0.00961797      -0.00329465       0.01285114
H        7.23846535       9.94694544      11.07181964       0.00639196      -0.00013241      -0.00689834
H        6.79687539      10.53042942      12.67254642       0.00478883      -0.01798408      -0.00041896
H        5.57751310       8.80577716      10.25926174       0.00267315      -0.00031888      -0.00064632
O        5.86120115       9.78335464       6.44023442      -0.02227890      -0.01824263      -0.01683307
N        4.13236093      11.17214272       7.00312529      -0.00125473      -0.00375547       0.00338379
C        4.44107829      12.15169366       5.98709561       0.00135947      -0.00442785       0.00045271
C        2.86767358      11.31269661       7.68867531       0.00941184       0.00349349       0.01183356
C        4.87562928      10.04262626       7.11400861       0.00235319      -0.00955206      -0.01690367
H        4.43415299      13.15737610       6.41258304       0.00510067      -0.00512192       0.00358997
H        3.70802566      12.13259321       5.17718895      -0.00488961      -0.00012631       0.00535229
H        5.41911025      11.93222785       5.57124578      -0.00397977      -0.00597091      -0.00455244
H        2.80854396      12.28628234       8.18226170       0.01958041       0.00173947       0.01395051
H        2.76910021      10.53266328       8.44222818       0.00949896       0.00213090       0.01149024
H        2.03560335      11.24940865       6.97657733       0.00308022       0.00995126       0.01885757
H        4.48167713       9.36582769       7.88891052      -0.00426924      -0.01030689      -0.00296539
O        9.22296828       9.02250110      10.54434532      -0.00895360       0.02271020      -0.01712346
N       10.34018151       7.36544642       9.42967077      -0.01382473       0.00176355      -0.01436622
C       11.13554469       6.96224780      10.57972913      -0.01757864       0.01023991      -0.01145782
C       10.41603439       6.59326261       8.20753028      -0.00948627      -0.00220497      -0.01059949
C        9.42814187       8.35116035       9.54312688      -0.00935349      -0.00148696      -0.03544891
H       12.11176264       6.61082716      10.24038050      -0.01180428       0.01993261      -0.00544082
H       10.64403856       6.15984868      11.13237604      -0.01225913       0.00518793      -0.01417696
H       11.26126822       7.81478870      11.24399532      -0.02949814       0.01157114      -0.01095882
H       11.46132455       6.39299598       7.96063053      -0.00759116       0.00357986      -0.00922261
H        9.98009691       7.17382661       7.39416623      -0.01212950      -0.00923584      -0.01371707
H        9.89541721       5.63817735       8.30036987      -0.00228822      -0.00563130      -0.00657839
H        8.86725253       8.50929865       8.60613688      -0.01205647      -0.00022754      -0.02252477
O       10.06734645      13.89617311       1.69563725       0.00707253      -0.01773024       0.02308890
N        8.62349243      12.36403717       2.59481589      -0.00077942      -0.01811681       0.00986437
C        7.59961618      12.52290342       1.57938326       0.00199670      -0.00776208       0.00954117
C        8.41319788      11.31164063       3.57847780      -0.00800284      -0.02396867       0.00244901
C        9.75727088      13.03452475       2.55596476       0.00258344      -0.02561462       0.01674420
H        6.70780973      12.98065801       2.01579790      -0.00168425      -0.01856031       0.01346521
H        7.35873581      11.53565069       1.19009748       0.00800721      -0.00296867      -0.00685353
H        7.99248045      13.13811196       0.77564196       0.00153054       0.00649244       0.02034193
H        7.47969695      11.48900194       4.11534909      -0.01158801      -0.02561893      -0.00348863
H        9.23716631      11.29365645       4.28823052      -0.01328042      -0.02877203       0.00809284
H        8.36215648      10.35520315       3.05730532      -0.00609473      -0.02113456      -0.00307778
H       10.43368745      12.78541688       3.38003404       0.00158337      -0.03572688       0.01315296
O       10.31666223       2.80282052       7.42019656       0.00889105      -0.00736654       0.00447875
N        8.48317839       1.83798835       8.37325169       0.00675724      -0.00148073       0.00427387
C        7.62048787       2.96514331       8.10076620       0.00942218       0.00119779       0.00546454
C        7.92937644       0.73665641       9.12490692       0.00355471      -0.00113159       0.00027843
C        9.78837857       1.88344295       8.02065295       0.00709993      -0.00344092       0.00161391
H        7.37461859       3.49005625       9.02737610       0.00827119      -0.00220954       0.00689158
H        6.70141897       2.62597745       7.61956856       0.00990438       0.00407396       0.00227597
H        8.15222751       3.65311310       7.44908654       0.01175080       0.00234534       0.00942118
H        7.55805086       1.07846492      10.09606674       0.00189744      -0.00281644       0.00021192
H        8.69530687      -0.01771496       9.29626633       0.00115490      -0.00366230      -0.00018215
H        7.10225521       0.26749761       8.58256594       0.00330916       0.00373246      -0.00228846
H       10.33468311       0.97708647       8.32657716       0.00339699      -0.00811309       0.00077015
O        1.82501327       4.48706353      10.00502946      -0.00148523       0.00570548      -0.00158306
N        3.65175848       3.32291270       9.26524691      -0.00498648       0.00297564      -0.00874077
C        4.15323661       4.38829499       8.42840848      -0.00828532       0.00226323      -0.01151894
C        4.37338806       2.07680387       9.28393241      -0.00685492       0.00174983      -0.01317839
C        2.52050308       3.48811082       9.99086062      -0.00167680       0.00164175      -0.00545707
H        4.28184102       4.02967367       7.40421302      -0.02214544       0.00338148      -0.01339063
H        5.11526769       4.75443030       8.80020683      -0.00260821      -0.00331059      -0.02086739
H        3.43140126       5.19986640       8.43920227      -0.00293851       0.00697863      -0.00231380
H        4.46266287       1.67030638       8.27144122      -0.01150363      -0.00006605      -0.01304123
H        3.84587279       1.36362997       9.91316999      -0.00590990       0.00320593      -0.01105693
H        5.37724815       2.20884769       9.69622774      -0.00457162      -0.00069276      -0.01778650
H        2.30073201       2.58921616      10.59175620      -0.00378755       0.00321692      -0.00655931
