197
Lattice="13.20028188447789 0.0 0.0 0.0 13.20028188447789 0.0 0.0 0.0 13.20028188447789" Properties=species:S:1:pos:R:3:forces:R:3 energy=-340790.25 stress="-0.0011227704817429185 0.00037784270534757525 -0.0006002457812428474 0.00037784270534757525 -0.0018520195735618472 -0.0004618998646037653 -0.0006002457812428474 -0.0004618998646037653 -0.0009006432374008" pbc="T T T"
Ba      11.90243771      14.50199945      -0.21765859       0.00514033       0.01496477       0.00389275
S       10.84010560      11.05576183       7.34604050       0.00999784      -0.00029480       0.00694627
O       11.65076835      11.96376892       6.54206376       0.00340497       0.00451732       0.00666094
O       11.49389667      10.57706542       8.55924319       0.01686323      -0.00129580       0.00308812
O       10.21425094       9.98452795       6.55499424       0.01019293       0.00088716       0.00741518
C        9.47060998      12.04612483       7.92970888       0.00848269      -0.00661969       0.01554668
H        8.90622393      12.43673515       7.08519359       0.00152466      -0.01150173       0.01807830
H        8.83228945      11.43531088       8.56466897       0.01623940      -0.00999237       0.02003821
H        9.91303781      12.85798748       8.50065488       0.00671100      -0.00329323       0.01169895
S        7.73037096      11.38408475      12.37545372      -0.02025199       0.02709803      -0.00328556
O        8.18585021      10.51511211      13.46744299      -0.02684775       0.01515794       0.01533902
O        6.90951965      12.50026036      12.81729608       0.00181293      -0.00423777      -0.03646722
O        7.19364594      10.61603378      11.26661878       0.01527941      -0.00202370       0.00069106
C        9.22830119      12.14452321      11.71923822       0.00841588      -0.00591549       0.01470023
H        9.89973843      11.39075988      11.31238316       0.00670333      -0.00881825       0.02570237
H        8.94132310      12.85028816      10.94369730       0.02267080      -0.00412384       0.01055035
H        9.69194793      12.67316297      12.55518832       0.00201093      -0.00598116       0.02000230
O       10.43318820       6.45886291       1.52557608       0.00124680      -0.00789997       0.01743543
C       11.14087450       7.31936554       2.43626129       0.00426316      -0.00680424       0.01442260
C       12.07713087       6.49478039       3.29445894       0.01137564      -0.00594977       0.00634676
C       11.82864381       8.44356975       1.68618216      -0.00350446      -0.00450367       0.01319620
H       10.37108511       7.76895312       3.06842287       0.00725496      -0.01064667       0.02040634
H       12.55188108       7.09942739       4.06756489       0.01100822      -0.00654671       0.00686921
H       11.52642828       5.69898791       3.79219362       0.01723823      -0.01054493       0.00481535
H       12.85171149       6.02161424       2.67924148       0.01086644       0.00046362       0.00120825
H       12.35899155       9.09507009       2.38245084      -0.00128116      -0.00511114       0.01147594
H       11.09042412       9.03522547       1.14759265      -0.00785297      -0.00424047       0.02077111
H       12.56029348       8.05222196       0.97073904      -0.00729639      -0.00005825       0.00809871
H       10.95847822       6.39273196       0.72234140      -0.02029866       0.01748398       0.00200151
O       12.60532498       3.39095906       4.67075175      -0.00066125       0.00255376      -0.00780374
C       12.51414010       2.25280550       3.81531878       0.00483832      -0.00367785       0.00123674
C       12.36755594       0.96947044       4.60516154      -0.00250819       0.00368369       0.01019698
C       11.38840603       2.45394876       2.81030554       0.01369148      -0.01250857      -0.01078162
H       13.47064641       2.24099275       3.29292206       0.00915176      -0.00877234       0.00975132
H       12.38515713       0.09068961       3.95778598       0.00696062      -0.00167581       0.01858564
H       13.17870839       0.85754970       5.32216583      -0.01070604       0.01304740       0.02006222
H       11.43229630       0.93916766       5.16503864      -0.00856037       0.00631059      -0.00014156
H       11.12533665       1.51325111       2.31554920       0.01074380      -0.01932182       0.00518183
H       11.60537382       3.25146762       2.08710312       0.02804451      -0.02847212      -0.02355577
H       10.45974955       2.76344070       3.29236402       0.01300693       0.00566031      -0.02517474
H       11.76019845       3.48542785       5.12489934       0.00157437      -0.00125369      -0.00339213
O        8.65921996       3.66969958       2.47774935       0.00959027       0.00120425      -0.02467098
C        7.46836097       2.88578865       2.45653189       0.00490326       0.00738204      -0.01108748
C        6.39772418       3.56426033       1.62570706       0.00416106       0.00598222      -0.01091513
C        7.85666011       1.53527466       1.90055343      -0.00722578      -0.00017649       0.00080408
H        7.08570812       2.73927846       3.47877858       0.01008251       0.02086952      -0.00750929
H        5.56751993       2.87893657       1.46000986      -0.00025700       0.00926116       0.00062399
H        6.02715992       4.46554978       2.11639410       0.01230668       0.01240753      -0.01794931
H        6.81767939       3.86062373       0.66485324      -0.00100047      -0.00611318      -0.01648906
H        7.00932987       0.85321744       1.85221709      -0.01261760       0.00648487       0.01493150
H        8.62912790       1.08713768       2.52400981      -0.00564389       0.00052339      -0.00027716
H        8.23817742       1.64927989       0.88259209      -0.01543142      -0.01463010      -0.00335320
H        8.43122176       4.58841572       2.72529451       0.01443417       0.00100349      -0.02325128
O        9.08427672       9.96526066       2.81312202       0.01737845      -0.01535064      -0.00232691
C        9.79161334      11.10679090       3.26547289       0.01009132      -0.01361978       0.00540234
C       10.34294207      11.91387591       2.08357440       0.01690489      -0.01029626       0.01235455
C        8.91945863      11.96763873       4.16676793      -0.00100756      -0.01784289      -0.00246805
H       10.62421801      10.73208141       3.86819868       0.00526553      -0.01328555       0.01164764
H       11.03489123      12.66976519       2.46557611       0.01618478      -0.01240591       0.01774279
H       10.86651141      11.26195291       1.38206129       0.02176975      -0.00775737       0.01304393
H        9.52024522      12.40349293       1.55720651       0.02074327      -0.00819975       0.00932523
H        9.49077647      12.80603191       4.57272746      -0.00921998      -0.01260213      -0.00208448
H        8.57171783      11.36027434       5.00020653      -0.00238081      -0.01734698      -0.00228867
H        8.05988042      12.35446203       3.61663571       0.00065215      -0.02559271      -0.00943673
H        8.62890629      10.18915127       1.98393669       0.00545540      -0.00837420       0.00536422
O        4.29095357       1.53852778       3.32497405       0.01006666       0.00219250      -0.00197157
C        3.33596649       2.54790007       3.02207877       0.00858510       0.00333728       0.00789233
C        2.46345207       2.13326595       1.83320513       0.00411311       0.00980559       0.00908905
C        2.54641161       2.92578853       4.26243749       0.01263958      -0.00478943       0.01269114
H        3.92925147       3.40992985       2.71865479       0.00724143       0.00558132       0.01132117
H        1.79986363       2.95140347       1.53603231       0.00193398       0.01072090       0.01739525
H        3.08377640       1.87428109       0.97191616       0.00058509       0.01543567       0.00506163
H        1.86853462       1.25255043       2.08757433       0.00643761       0.00767946       0.00672165
H        1.81517882       3.71142079       4.07026390       0.01227756      -0.00346090       0.01988760
H        3.23068910       3.27549435       5.03581167       0.01526348      -0.01017660       0.01273893
H        2.00779731       2.06173221       4.65678112       0.01365170      -0.00743002       0.00847816
H        3.80122528       0.71950234       3.50171123       0.01113978       0.00013332      -0.00749469
O        7.87973183       6.05357888       3.54644003      -0.01590469      -0.00455320      -0.01008338
C        7.63638969       5.67548945       4.91151584      -0.00643969       0.00333911      -0.00665858
C        8.88693802       5.09401138       5.55110124      -0.00355273       0.00309479      -0.01296529
C        7.06638760       6.85014419       5.68125338       0.00378802       0.00838786      -0.00662816
H        6.87542725       4.89289292       4.83127067      -0.00905147       0.00507581       0.00387724
H        8.67560729       4.76487108       6.57126502       0.00040665       0.00366176      -0.01216003
H        9.23388298       4.23483359       4.97403431      -0.00689471       0.00228558      -0.01378590
H        9.67668358       5.84831157       5.59801300      -0.00230391       0.00195920      -0.01629856
H        6.76710533       6.54841101       6.68733515       0.01274139       0.01201855      -0.00325973
H        6.19035408       7.24021845       5.16260354      -0.00000191       0.00977553       0.00108922
H        7.80632506       7.64928718       5.77027665       0.00651786       0.00666660      -0.01493333
H        8.50385431       6.78962902       3.52621979      -0.02646880       0.00376309      -0.01764002
O       11.51671729       1.70353391      10.51810753      -0.00431091      -0.00224006       0.00431728
C       12.47139402       2.28080550       9.55192879       0.00381565      -0.00397490       0.01259644
C       12.01421473       2.00067056       8.13776240       0.01728901      -0.00982894       0.00902867
C       12.63725220       3.75756481       9.83616993      -0.00172455      -0.00256944       0.00818280
H       13.41400875       1.76081386       9.74533199       0.00265855      -0.00116441       0.02307990
H       12.74926176       2.40042776       7.43807413       0.02112499      -0.00774499       0.01462540
H       11.90983825       0.93238418       7.93860954       0.02286182      -0.01021761       0.01022375
H       11.05963834       2.49415197       7.94183454       0.01746359      -0.01418178       0.00035860
H       13.30092480       4.20280782       9.09456466       0.01094660      -0.00634710       0.01814468
H       13.09042456       3.93591904      10.81555367      -0.01818874       0.00356218       0.01452537
H       11.67592715       4.27332351       9.78391282      -0.00073582      -0.00333936      -0.00974833
H       10.62769278       1.64046245      10.08187817      -0.00316095       0.00348446       0.00069472
O        9.07916072       1.75416128       9.36677349       0.00367272       0.00387943      -0.00520205
C        8.29978910       2.80986379       9.97614598      -0.00527868      -0.00185190      -0.00665675
C        7.10212273       3.14663648       9.11591133      -0.00275296      -0.00720428      -0.01304281
C        7.93476287       2.42368681      11.39191009      -0.01147428      -0.00821915      -0.01012415
H        8.98511658       3.66024988       9.99249785      -0.01028496       0.00199145      -0.00119750
H        6.60787779       4.03821974       9.50399461      -0.01098371      -0.01216087      -0.01272225
H        7.40979902       3.34560743       8.08957069       0.00208376      -0.00127978      -0.00979820
H        6.38577470       2.32104807       9.10639964       0.00382668      -0.01182356      -0.02029592
H        7.43156123       3.23873134      11.90662694      -0.02308427      -0.01383924      -0.01310883
H        8.84349373       2.20395201      11.96162908      -0.01430245      -0.00079798      -0.00344561
H        7.29791053       1.53725345      11.43027410      -0.00355352      -0.01341556      -0.01661896
H        8.48432110       1.07006924       9.03173392       0.00929540      -0.00215796      -0.00083227
O       11.20275495       7.47463062       6.31474385      -0.00180261      -0.00135562       0.00007200
C       11.19562348       6.86990762       7.59710965       0.00297779      -0.00340796      -0.00125003
C       12.40562265       7.29440118       8.42287325       0.00591916      -0.00427455      -0.00582188
C        9.89666626       7.15508951       8.33754008       0.00555110      -0.00389266       0.00406140
H       11.26520180       5.78962757       7.40376863       0.00115770      -0.00293946      -0.00330740
H       12.40601090       6.79632417       9.39666211       0.01026922      -0.00501811      -0.00622718
H       13.32782060       7.03772323       7.89935358       0.00412019      -0.00345605      -0.01003735
H       12.37010263       8.37272108       8.59442608       0.00655080      -0.00427151      -0.00462937
H        9.82629570       6.54976030       9.24200442       0.00991910      -0.00248435       0.00522719
H        9.03706384       6.93192677       7.70812586       0.00330751      -0.00551536       0.00769824
H        9.85024719       8.20709170       8.62195424       0.00596272      -0.00351390       0.00270774
H       10.91400408       8.40900978       6.41414061       0.00116959      -0.00067057       0.00320366
O        1.62881784       6.60833211       0.22214389      -0.01016420      -0.00140911       0.01196935
C        2.64967537       7.02856251       1.14435729      -0.00398635       0.00271218       0.00290060
C        2.12170235       8.08631347       2.09377663       0.00241348       0.00666827       0.00187111
C        3.19668984       5.83757996       1.90414344       0.00235434       0.00604624       0.00342399
H        3.42954516       7.45309385       0.50731382      -0.00875038       0.00035200      -0.00435269
H        2.92645845       8.45263492       2.73140096       0.00716698       0.01129241      -0.00714222
H        1.69361227       8.92413264       1.54616322      -0.00350010       0.00307398       0.00130486
H        1.35292540       7.66991960       2.74626712       0.00885494       0.00892712       0.01054803
H        4.01575125       6.13303477       2.56302317       0.00703673       0.00896618      -0.00398050
H        3.56288274       5.07731573       1.21768446      -0.00202075       0.00389823       0.00355665
H        2.40989861       5.40106639       2.52583908       0.00743470       0.00765020       0.01064306
H        0.90678307       6.25740351       0.75425193      -0.01030537       0.00947939       0.01871908
O        5.84732089      13.00182876       7.96919888       0.00231981       0.01821896       0.00115925
C        5.87316888      12.01519013       9.01820896       0.00111142       0.01364711      -0.00444646
C        4.65208635      12.13089370       9.91233380       0.00198978       0.00961690      -0.00350189
C        6.03333044      10.61187346       8.46587296      -0.00020312       0.01744020      -0.01252848
H        6.75451999      12.26511944       9.60870445       0.00221014       0.01023011      -0.00299928
H        4.74323382      11.43063743      10.74158933       0.00036449       0.00467688      -0.00779460
H        4.56170881      13.13669680      10.32446332       0.00317099       0.00705998       0.00237990
H        3.74174265      11.89761422       9.35181391       0.00205917       0.01389829      -0.00578877
H        6.17063313       9.90939939       9.28630107       0.00389512       0.01348262      -0.01688296
H        6.89084716      10.54035003       7.79657885      -0.00138222       0.02056644      -0.01428057
H        5.13932343      10.32548418       7.91350141      -0.00224239       0.01998204      -0.01188717
H        5.15314708      12.75056359       7.35192134       0.00132859       0.02119432      -0.00021784
O        2.99042900      12.28853426       2.91603363       0.01051852       0.00199455      -0.00832927
C        3.97806189      11.94684778       1.90724512       0.00745684       0.00458196      -0.01267676
C        4.92360295      10.88774664       2.43486157       0.01338312       0.00834501      -0.01513439
C        3.29441208      11.56128360       0.61045316       0.00359043      -0.00010984      -0.00882155
H        4.53006867      12.87476823       1.75515060       0.00353092       0.00643772      -0.01612242
H        5.70942013      10.67151493       1.71062507       0.01109399       0.01015742      -0.01768033
H        5.39480111      11.21870595       3.36143544       0.01607040       0.01134489      -0.01773150
H        4.38407848       9.95826186       2.63595050       0.01707581       0.00750335      -0.01102602
H        4.04216736      11.41569899      -0.16974664      -0.00041586       0.00870150      -0.01318094
H        2.60002643      12.34429154       0.28973864      -0.00678927      -0.00580755      -0.00161087
H        2.73293795      10.63230975       0.72618651       0.01419617      -0.00531250      -0.00775687
H        2.64721022      11.46806923       3.28483464       0.01820373       0.00166023      -0.00362282
O        2.84648647       3.10183845      10.81391318      -0.02901408       0.00666952      -0.00093883
C        3.25513532       4.43127646      11.19550581      -0.01743987       0.00372767      -0.00444815
C        4.55479828       4.38987120      11.97492702      -0.01509428      -0.00431375      -0.00899822
C        3.35894556       5.34420482       9.98681820      -0.01435376      -0.00091308      -0.00703281
H        2.45274739       4.78534678      11.84589286      -0.01256889       0.01115151      -0.00248143
H        4.83627786       5.38195620      12.33522684      -0.00718214      -0.00591826      -0.01106943
H        4.47990804       3.71415609      12.82477916      -0.01656292      -0.00266993      -0.00793317
H        5.36469565       4.03223460      11.33499351      -0.02019236      -0.01064002      -0.01168349
H        3.56621047       6.36721160      10.30499765      -0.00415199      -0.00248173      -0.01020166
H        2.43460758       5.34081925       9.41011468      -0.01699869       0.00887045      -0.00267958
H        4.17749315       5.02444210       9.33520175      -0.02034496      -0.00973013      -0.01051565
H        3.56176464       2.72049383      10.29300323      -0.03221905      -0.00110758       0.00071475
O        1.58133110       8.48093196       6.08638422      -0.00962591      -0.00409368      -0.03051206
C        2.94928693       8.85578931       5.99057427      -0.01041806       0.00040087      -0.00889459
C        3.12093303      10.35948938       6.14823072      -0.01926997       0.00071687      -0.00711402
C        3.81586723       8.06301778       6.95808424      -0.02346021       0.00496757       0.00585967
H        3.23217710       8.57553319       4.97118625       0.00674096      -0.00001341      -0.00366390
H        4.13060625      10.66928899       5.87013323      -0.01912503       0.00580483       0.00065829
H        2.40085370      10.89196032       5.52599191      -0.01696627      -0.00268697      -0.01234663
H        2.94844234      10.65836713       7.18573949      -0.02875036      -0.00026357      -0.00869407
H        4.87141362       8.30238850       6.82357649      -0.02235447       0.00564086       0.01763524
H        3.67980569       6.99353788       6.79502202      -0.01903025       0.00413330       0.00883786
H        3.54978177       8.29042081       7.99285427      -0.03768820       0.00806843       0.00120236
H        1.19983507       8.88139086       6.87584834      -0.02566924      -0.00505004      -0.03837366
O        7.39820472       7.78376407      12.55200926      -0.00976533      -0.00197610       0.00756693
C        8.35227855       7.36407519      11.59182483      -0.00573307      -0.00213695       0.00922090
C        9.66909853       8.11399992      11.72673354      -0.00817531      -0.00062507       0.01508175
C        8.52173470       5.87361572      11.80844372      -0.00557324      -0.00157124       0.00909472
H        7.95845728       7.53362095      10.57665011      -0.00353977      -0.00052927       0.00903946
H       10.44747783       7.66313021      11.10925938      -0.00420185       0.00250688       0.01702645
H        9.55750911       9.14759867      11.40546637      -0.00915013       0.00025263       0.01634930
H        9.97906799       8.10109703      12.76960171      -0.01122002      -0.00026007       0.01614933
H        9.23478203       5.45599901      11.09525528      -0.00154348       0.00011064       0.01291544
H        7.55999909       5.37737248      11.67726407      -0.00420958      -0.00329798       0.00313921
H        8.86924115       5.68265787      12.82545201      -0.01011290      -0.00353949       0.01074430
H        7.50069555       8.73603201      12.68309009      -0.02326979       0.00009845      -0.00862091
