191
Lattice="13.592542775153202 0.0 0.0 0.0 13.592542775153202 0.0 0.0 0.0 13.592542775153202" Properties=species:S:1:pos:R:3:forces:R:3 energy=-520182.34375 stress="-0.00017264083726331592 0.000407312109018676 -0.00028161944646853954 0.000407312109018676 -0.00017682465841062367 8.7222480942728e-05 -0.00028161944646853954 8.7222480942728e-05 -0.0005058317328803241" pbc="T T T"
Ba      10.88996076      13.63103048       1.52307196       0.00082944       0.00356225       0.00137308
B       11.97131064      12.78134013       4.19941539       0.01660815       0.00006090      -0.00138932
F       12.40327382      12.42358381       5.44023904       0.01893725       0.00043897      -0.00530863
F       12.70859915      13.86204485       3.64821139       0.00423390       0.01118651       0.00201466
F       12.09566549      11.71332608       3.26114024       0.02475709       0.00997248      -0.00939214
F       10.61199661      13.16364697       4.17982155       0.01007777      -0.00873328       0.00090056
B        7.83185309      12.79776624       0.73779186       0.00141370       0.00292814      -0.00556339
F        7.11074146      11.66105931       0.96666035      -0.00236970       0.00504565      -0.01260686
F        8.29935757      13.35427682       1.97546327       0.00138716      -0.00466813      -0.00093183
F        9.04763371      12.47968971       0.00984587       0.00212103       0.00356580      -0.00396854
F        7.13818874      13.75767080       0.03910189       0.00665492       0.00950938      -0.00029799
S       -0.30958504       1.29859950      12.10394657      -0.00417968      -0.00878292      -0.01041734
O       -0.86610272       0.48381365      13.26221313      -0.01324791      -0.00427076      -0.00549006
C        1.10470668       0.40638793      11.48240162      -0.00228357      -0.01370123       0.00917280
C        0.57383447       2.67487268      12.84707499      -0.01107243      -0.00567740      -0.01076189
H        0.72506106      -0.48718632      10.98981177       0.00034937      -0.01905084       0.01814401
H        1.81664558       0.14001986      12.26608482      -0.00756556      -0.00319636       0.01583451
H        1.58868122       1.04466134      10.74039622       0.00217509      -0.02274054       0.00444899
H        1.02623800       3.26443037      12.04966316      -0.00423387      -0.01089315      -0.01075624
H        1.32206213       2.28866889      13.53977932      -0.01739003      -0.00042899      -0.00217631
H       -0.15866784       3.29362360      13.36118142      -0.01690295      -0.00035696      -0.02621418
S        4.00598152       1.28009414       3.71708670      -0.00196981      -0.00289094      -0.00455141
O        4.39513221       2.72363004       3.65222517      -0.00081742      -0.00249934      -0.00473779
C        5.37609540       0.34218435       3.02473210      -0.00326264      -0.00197494      -0.00689468
C        2.84166459       0.97546500       2.37324503      -0.00296772      -0.00290292      -0.00260222
H        6.21733898       0.43387657       3.70873619      -0.00378764      -0.00041806      -0.00555864
H        5.63586073       0.75063370       2.04907942      -0.00304104      -0.00195310      -0.00697608
H        5.09938374      -0.70774690       2.93294212      -0.00180910      -0.00261499      -0.00647498
H        2.56813338      -0.07900634       2.37583816       0.00080730      -0.00374413      -0.00359395
H        3.30511734       1.24499676       1.42525045      -0.00491145      -0.00015245      -0.00246249
H        1.95900577       1.57886953       2.57639778      -0.00454514      -0.00586351       0.00010397
S        7.52334039       5.12329664       1.44172878      -0.01071095      -0.00124210      -0.00125681
O        6.10285664       5.50187256       1.14631475      -0.01277590      -0.00218469       0.01035944
C        7.46797716       3.56541560       2.34842357      -0.00376098      -0.00316131      -0.00371817
C        8.02738285       6.16940914       2.80651884       0.00056341      -0.00371742      -0.00386751
H        7.42855550       2.75186177       1.62624605      -0.00125780      -0.00208764      -0.00506449
H        6.57839721       3.57456871       2.98064459      -0.00299671      -0.00754263      -0.00335251
H        8.37692377       3.47221457       2.94118673      -0.00298651       0.00008715      -0.00439308
H        9.04235140       5.90692853       3.09929721       0.00326996      -0.00501890      -0.01402598
H        7.32874281       6.04711162       3.63275682       0.00872388      -0.00504189       0.00215530
H        8.02079231       7.19045235       2.42794477      -0.00148514      -0.00299515      -0.00144708
S       11.60682836       1.93140149       7.60138632       0.00358939       0.00164002       0.00831473
O       11.04000253       2.19164852       6.24970770       0.00157624       0.00029066      -0.00703549
C       11.96074448       3.53483033       8.34494996      -0.00308804       0.00516021      -0.01501337
C       13.32217410       1.41273574       7.36788919      -0.00580937      -0.00436822      -0.00566888
H       11.01630993       4.07624296       8.38636881       0.00857845       0.00632963      -0.01213999
H       12.65755845       4.07683055       7.70376349       0.00855228      -0.00235591      -0.00341710
H       12.37827226       3.41265237       9.34521793       0.00038015       0.00549281       0.00222147
H       13.80085613       1.30033679       8.34094804      -0.00030579       0.00002987       0.00956245
H       13.83743862       2.15842305       6.76081559       0.00080176      -0.00804545       0.00166301
H       13.29199144       0.45866390       6.84581178      -0.00215054      -0.00289068       0.01005109
S       10.35816166       2.56400712      12.61502896      -0.00016958       0.01446696      -0.00811774
O        9.89697981       2.18934502      14.01639830       0.01900649       0.01006152       0.00277716
C        9.77886666       4.21942839      12.29114140      -0.01955962       0.00638449       0.00669038
C        9.31271668       1.66270841      11.46639655      -0.00900596       0.00501883       0.01074210
H       10.19342015       4.84327795      13.08058803      -0.00908875       0.01470096      -0.00736630
H        8.68957960       4.24937749      12.27974709      -0.01752326      -0.00275618       0.02917738
H       10.20730007       4.51229605      11.33035725      -0.04629575       0.00731781      -0.00275289
H        9.73730778       1.78253700      10.46928697      -0.02449794       0.00899022       0.00388321
H        8.29176486       2.04135456      11.51127243      -0.01047719      -0.00458153       0.02364405
H        9.35043734       0.61499199      11.75970876       0.00502492       0.00599268       0.00762258
S       10.37922036       6.32252946       5.55371737       0.00120074      -0.00136566      -0.00331402
O        9.62800868       5.68532265       6.68385933      -0.00208694      -0.00342607      -0.01031363
C       11.21812959       5.00968030       4.65644869       0.00522098      -0.00150430      -0.00138524
C       11.84505202       7.09910726       6.24270186      -0.00085741      -0.00275458       0.00307211
H       10.44898295       4.41799377       4.16413956       0.00866620       0.00320217      -0.00889690
H       11.73303048       4.36534283       5.36788300      -0.00046963      -0.00163909      -0.00156468
H       11.90466914       5.45874655       3.93703733       0.01149047       0.00180295       0.00241813
H       12.48307558       7.42115464       5.41807804       0.00169484       0.00048745       0.00636007
H       12.35640248       6.36071401       6.86140683      -0.00274676      -0.00353754       0.00273181
H       11.50962203       7.94032564       6.84821716      -0.00381050      -0.00421259       0.00411596
S        3.83836299       9.59706283       1.01338793       0.00391138      -0.00584722      -0.00160563
O        2.93903098       8.59551195       0.35957423       0.00048685      -0.00489521      -0.00138932
C        4.81972763       8.72013186       2.24361385       0.00201523      -0.00629812      -0.00073868
C        2.80109356      10.50833245       2.17957206       0.00479895      -0.00323200      -0.00335389
H        5.35065955       7.92844238       1.71581948      -0.00024590      -0.00867712       0.00059123
H        4.17641767       8.29679872       3.01508853       0.00207898      -0.00322275       0.00077665
H        5.53518047       9.42237817       2.67317372       0.00399003      -0.00698400      -0.00265715
H        3.43084541      11.09559550       2.84783121       0.00607370      -0.00273805      -0.00449744
H        2.20666807       9.78916560       2.74460642       0.00397556      -0.00095047      -0.00222250
H        2.15904814      11.16210029       1.59223799       0.00582288      -0.00284021      -0.00418644
S        4.01418713      12.34913528      11.09714539       0.00564358       0.00638884       0.00865269
O        3.74207346      12.83576500      12.49500466       0.01425759       0.00693172       0.00876260
C        4.02980396      10.55343109      11.14574895       0.00520548       0.00602800       0.00844999
C        5.76305461      12.56879047      10.77389160       0.00405914       0.00444449      -0.00101649
H        3.02151357      10.21235498      11.37295468       0.00696349       0.00652821       0.01712976
H        4.71392072      10.24454532      11.93246130       0.01171724       0.00612445       0.00216585
H        4.36784017      10.19702514      10.17294611      -0.00375540       0.00537269       0.00584126
H        6.01747769      11.97225854       9.89924130      -0.00097271       0.00535378      -0.00268045
H        6.31117089      12.22699916      11.65045541       0.00745285       0.00303658      -0.00397068
H        5.94246355      13.62428687      10.57719522       0.00411850       0.00460602      -0.00066758
S        5.22448292       3.58494522      11.56058295      -0.00757408      -0.00249213       0.00120109
O        6.69158893       3.91810670      11.55464906      -0.00595701      -0.00446177       0.00487643
C        4.36483397       5.06408124      12.11401401      -0.00505126      -0.00119120       0.00014618
C        4.94755130       2.61605751      13.05293638      -0.01129854      -0.00279042      -0.00006747
H        4.41097574       5.76862633      11.28828432       0.00094258      -0.00014688       0.00044133
H        4.86375247       5.42903711      13.01093332      -0.00839195      -0.00328962       0.00213015
H        3.32447970       4.80901160      12.31880340      -0.00701939       0.00229484      -0.00557769
H        3.89135706       2.34787515      13.08713153      -0.01094491      -0.00512354      -0.00456869
H        5.23299987       3.21088673      13.92121560      -0.01593875      -0.00336133       0.00123221
H        5.53814379       1.70562434      12.97466640      -0.00947476      -0.00178365       0.00156002
S        4.61030648      11.28711582       6.74510748      -0.00488175       0.00527644       0.00081730
O        5.08292919      10.62878238       8.00307994      -0.01138470       0.00160396       0.00299323
C        4.37916061      13.02050586       7.14946553      -0.01478203       0.00232512       0.00618008
C        2.87204591      10.85109225       6.56880469      -0.00041020      -0.00191382      -0.01172881
H        5.35777348      13.44912989       7.36862481      -0.01783872       0.00504529       0.01428241
H        3.74872593      13.09657073       8.03638305      -0.02157387      -0.00387538       0.00154008
H        3.92856190      13.53213068       6.29896919      -0.01074113       0.00424859       0.00500185
H        2.41327425      11.45689939       5.78816973       0.00103507      -0.00057548      -0.01207089
H        2.37967550      11.02134325       7.52734708      -0.00716754      -0.00698858      -0.01498996
H        2.85199857       9.79900761       6.29474927       0.00475615      -0.00057849      -0.01607198
S       12.06694651       6.45849699      10.30265674      -0.00091100      -0.00442719       0.00778866
O       12.99349363       5.43741141      10.89944838      -0.00416708      -0.00511837       0.00714946
C       13.07619841       7.71720779       9.49976096       0.00077897      -0.00565332       0.00619505
C       11.52616264       7.53077253      11.64000902       0.00318724      -0.00119478       0.00749588
H       13.57006846       7.25115764       8.65271931      -0.00094010      -0.00599757       0.00502481
H       13.81426297       8.08624303      10.21261604       0.00167020      -0.00666796       0.00468610
H       12.40287406       8.50742186       9.16327130       0.00135078      -0.00487450       0.00663754
H       10.99356870       8.37560249      11.20393062       0.00617399       0.00090277       0.00712413
H       12.41843459       7.84121341      12.18444878       0.00343192      -0.00522504       0.00739799
H       10.85401529       6.97300344      12.28710992      -0.00017017       0.00188348       0.00740296
S        9.96791390       9.65795625       1.70507459       0.00781661       0.00207174      -0.00345063
O        9.04054035       8.70453261       1.02651319       0.01230001      -0.00614762      -0.00561935
C       11.21583135      10.10555833       0.47519363       0.00750828       0.00476213      -0.00164127
C       11.05893478       8.66372588       2.73478501       0.00739425       0.00821120       0.00132161
H       10.69708311      10.63907538      -0.31923933       0.00801808       0.00268649      -0.00268960
H       11.65768729       9.19125677       0.08715603       0.01255435       0.00654715      -0.00006858
H       11.99190430      10.71411937       0.94189613       0.00454395       0.00802912       0.00017352
H       11.87053576       9.27510738       3.12349104       0.00074248       0.01488461       0.00631601
H       11.44498781       7.83610372       2.13922828       0.01747304       0.01167201       0.00371045
H       10.45290984       8.28338317       3.55630184       0.00632554       0.00314074      -0.00250396
S        7.86864133       8.53331181      11.22533647       0.00176466      -0.00375283      -0.00174856
O        7.32786305       9.64525151      10.38016573       0.00171816       0.00186646       0.00272405
C        7.60338225       7.01006495      10.30171282      -0.00348473       0.00143719      -0.00772044
C        6.65697534       8.23749077      12.51914729       0.00315928      -0.00553080      -0.00122362
H        8.31906359       7.01076589       9.47942463      -0.00489667       0.00321448      -0.00864171
H        6.57994371       6.98686920       9.92404135      -0.00413197       0.00482551      -0.00608224
H        7.76647727       6.15033615      10.95192255      -0.00412631      -0.00168741      -0.01132603
H        6.92735812       7.34581633      13.08266949       0.00288959      -0.00841656      -0.00547227
H        5.67205916       8.12077190      12.06601199       0.00205290      -0.00212301       0.00035049
H        6.69404990       9.10542814      13.17637369       0.00599133      -0.00830254       0.00193580
S        6.75060025       2.70248322       7.79450692       0.00379515      -0.00715685      -0.00167590
O        6.67821776       1.31858855       8.37096381       0.01070306      -0.00350940      -0.00539505
C        7.49973131       2.53895489       6.15916708       0.00991058       0.00096171      -0.00120610
C        8.15708450       3.48862617       8.58463736      -0.00204450       0.00317481      -0.00027949
H        6.72369478       2.19950884       5.47445124       0.01256537      -0.00463992      -0.00314532
H        8.32308375       1.82736292       6.22235165       0.01304197       0.00692673       0.00042364
H        7.87696444       3.51087488       5.84314009       0.00265440       0.00311039      -0.00006110
H        8.43033879       4.39721949       8.05057848      -0.00877673       0.00579527       0.00422246
H        8.97477759       2.76719197       8.55017754       0.00347158       0.00925130      -0.00071518
H        7.85660371       3.70166573       9.61023649      -0.00478962      -0.00262403       0.00161551
S        3.44418236       5.90748388       8.06167225       0.01288104       0.00232947       0.00874221
O        4.52742275       5.59487831       9.04410210       0.00091851       0.01188934      -0.00820887
C        2.89793486       7.57652049       8.44850520       0.00195748       0.00549835      -0.00384796
C        1.96822791       5.02916236       8.62587212       0.00734794       0.00371733       0.00676233
H        3.74122414       8.22912632       8.22788605       0.00051066       0.00584672      -0.00759063
H        2.61913878       7.62402765       9.50131846       0.00582567       0.00783024      -0.00215253
H        2.06412954       7.84593763       7.80159024       0.00037637       0.00095980      -0.00082601
H        1.14928821       5.25317079       7.94074367       0.00609322      -0.00012330       0.01056740
H        1.69250393       5.30716057       9.64302534       0.01126545       0.00662136       0.00861853
H        2.20257662       3.96734805       8.56741337       0.01004261       0.00416119       0.01036003
S       10.07074308      10.83239857       9.34853683       0.00097731       0.00235105       0.00096130
O       10.40843392       9.42358995       8.94469760       0.00189471       0.00260580       0.00372297
C        8.79581267      11.42790701       8.23312751      -0.00157282      -0.00070582       0.00194985
C       11.41511528      11.84845330       8.69722250      -0.00218308       0.00254861      -0.00323513
H        7.90318852      10.85000644       8.46331793      -0.00026838      -0.00072844       0.00380707
H        9.12329749      11.28047874       7.20401314      -0.00211270      -0.00241904       0.00162503
H        8.61194282      12.48465302       8.43458296      -0.00162109      -0.00033690      -0.00030395
H       11.19346210      12.89901620       8.88741915      -0.00185362       0.00307885      -0.00350236
H       11.52787417      11.67067651       7.62812919      -0.00464994       0.00108034      -0.00371376
H       12.32015569      11.55844954       9.22905356      -0.00013307       0.00354305      -0.00728527
S        5.96947777       7.69237098       5.45734377       0.01341808       0.00550717      -0.00032640
O        4.58381900       8.11802128       5.83585071       0.00150478       0.00420618      -0.00461239
C        6.33360239       6.16502623       6.33857322       0.00375857       0.00261080      -0.00556982
C        7.13277056       8.73066223       6.35829901      -0.00023523       0.00309378       0.01520872
H        5.69779681       5.38679125       5.91838364       0.00534227       0.00524815      -0.01261019
H        6.11433662       6.28559695       7.39977615       0.00035509      -0.00345201      -0.00591567
H        7.38932384       5.92705219       6.19918552       0.00486015       0.00225201      -0.00324975
H        8.13320225       8.31400368       6.24002711       0.00169379       0.00398740       0.02138555
H        6.84141606       8.78203101       7.40691238      -0.00794499      -0.00130048       0.01237255
H        7.08336308       9.72244757       5.91402722       0.00371185       0.00505637       0.01888988
S        1.68244612       6.48358642       3.42298121       0.00131345      -0.00210401      -0.00024286
O        0.20687187       6.75977327       3.42051036       0.00144362       0.00186956       0.00234941
C        2.11172132       5.80342210       1.81457480      -0.00239027      -0.00368971      -0.00062388
C        1.90668736       4.96056227       4.36046283       0.00039599      -0.00296742       0.00050998
H        2.03942960       6.62033815       1.09797495       0.00046735      -0.00398326      -0.00145656
H        1.42276437       4.99007104       1.58270690      -0.00541094      -0.00181289       0.00120476
H        3.14394243       5.45015857       1.85492849      -0.00358972      -0.00666613      -0.00073365
H        2.91696831       4.57386762       4.22685781      -0.00023916      -0.00417761      -0.00169536
H        1.17016217       4.23664194       4.00764625      -0.00062478      -0.00291326       0.00250383
H        1.73491862       5.19901936       5.40849531      -0.00239499      -0.00395066       0.00010423
