196
Lattice="19.240717480532464 0.0 0.0 0.0 19.240717480532464 0.0 0.0 0.0 19.240717480532464" Properties=species:S:1:pos:R:3:forces:R:3 energy=-2535519.25 stress="0.00031461441540159285 -7.798628939781338e-05 -1.5850484032853274e-05 -7.798628939781338e-05 0.00030996763962320983 7.214674042188562e-05 -1.5850484032853274e-05 7.214674042188562e-05 0.00036415967042557895" pbc="T T T"
Ba      18.09590061      18.86889255       1.72072959      -0.00701432      -0.00134172      -0.01462480
I        4.96163241      16.77312124       3.35601322      -0.00632843       0.00060736       0.00943664
O        6.72673695      16.66664465       3.14797219       0.01761806       0.02787647       0.00436418
O        4.30511697      18.18508372       2.45621180      -0.01764756       0.00206339       0.00055629
O        4.11860501      15.28252142       2.84911029       0.02355188      -0.01650560      -0.01382738
O        4.55323887      17.07026151       5.10139381      -0.00942892      -0.00830981       0.00360346
I        9.40681971      16.62363266      13.15836488       0.00809066       0.02149811       0.00132680
O        9.51523695      15.02003055      13.95423584       0.02045991      -0.01598239       0.03284872
O       10.12601403      17.84414922      14.26134012       0.02056658       0.02311504      -0.00661361
O       10.34935709      16.57139218      11.63017056       0.02806783      -0.01019969      -0.02732611
O        7.70592702      17.04022624      12.80300830      -0.00311375      -0.00215358      -0.01174200
Cl       5.36493972      11.62927012       0.90733008      -0.01259696      -0.00772661       0.00036284
Cl       8.15563647      12.38474730       1.00089000      -0.00599074      -0.02955383      -0.00690046
Cl       6.21258748      14.18225378      -0.16902475      -0.00044237      -0.00650513       0.00973351
Cl       6.93008807      11.73117442      -1.54459049      -0.02347841      -0.00027266      -0.00883299
C        6.66507755      12.48834564       0.05612412      -0.01065157      -0.01090681      -0.00076837
Cl       1.78700702       4.67825902      19.92640882      -0.00691503       0.00775440       0.02098498
Cl       1.37086022       2.27333734      18.36513510       0.00191258       0.00870735       0.01546511
Cl      -0.51567918       4.47723512      18.16644956      -0.00358790       0.00225402       0.01610297
Cl      -0.39854987       2.88032604      20.59197208      -0.00666016       0.00110642       0.01176580
C        0.57124987       3.59341890      19.23587512      -0.00153766       0.00560082       0.01524302
Cl      12.31065302      10.24763830      13.10831620       0.00085151      -0.00019994       0.00252748
Cl      10.85733012      10.86355192      10.67418401      -0.01311011       0.00253618       0.01030415
Cl      10.55986700      12.56650421      13.00646442      -0.00148325      -0.00243437       0.01575118
Cl       9.43759509       9.89772394      13.01322364      -0.00014186      -0.00493139       0.01615956
C       10.78917094      10.91543268      12.45992806      -0.00408744      -0.00144324       0.01104793
Cl       3.87538879       3.57815680      16.03194374       0.00554124      -0.01370710      -0.01920451
Cl       3.81300726       5.47838064      13.85289635      -0.01185068      -0.00415170      -0.00922358
Cl       2.61525362       6.16673501      16.40103762       0.01982488      -0.01041204       0.01063392
Cl       1.36115671       4.18357938      14.70105284      -0.00835872       0.00392909       0.01239906
C        2.92106416       4.85812459      15.24039177       0.00038600      -0.00580539      -0.00199616
Cl       7.44987195      13.02941386       7.36951151      -0.01012981       0.00570025      -0.00588411
Cl       5.04210035      14.22303140       6.30569860      -0.00607127       0.00391573      -0.01689398
Cl       4.94046539      11.61473046       7.59357361      -0.01320362       0.00875753      -0.00927025
Cl       6.19680944      11.91425910       4.99343438      -0.00301494      -0.00158671      -0.00589544
C        5.90221593      12.70463500       6.56985438      -0.00812183       0.00401273      -0.00933147
Cl       7.93022171       6.75444471       0.97910238       0.00010607      -0.00850479      -0.00528859
Cl       6.12237609       8.24651108      -0.71821563      -0.00758886      -0.00352132       0.00495994
Cl       5.16005097       7.11350509       1.77380695       0.00066561      -0.01616856       0.00200462
Cl       5.81139318       5.37630421      -0.45659133      -0.00206661      -0.00538021      -0.00675073
C        6.25852139       6.87374845       0.38428087      -0.00147852      -0.00815202      -0.00143247
Cl      13.55420253      19.18009816       3.29616591      -0.01969544      -0.01057109       0.01632228
Cl      12.86152898      17.14113967       1.35793983      -0.01496665       0.01422876      -0.01552770
Cl      15.47443942      17.11093875       2.59522707      -0.00062318       0.00824101      -0.00686056
Cl      14.79430096      19.19227560       0.67320824       0.02312855       0.02222751      -0.01976621
C       14.11919693      18.16469599       1.98937520      -0.01350296       0.00845731       0.00626532
Cl       1.23888881      15.55453610       5.26108812      -0.01577908       0.00219442       0.00058278
Cl      -0.61335378      17.74063249       4.74374112      -0.01601628      -0.00294395      -0.00470615
Cl      -0.79834478      15.28541923       3.20532094       0.00599625       0.00627930      -0.02343889
Cl       1.44445139      17.09618005       2.81515820       0.00587685       0.01394033       0.00873270
C        0.33527696      16.37965615       4.03844948      -0.00579028       0.00655931      -0.00571993
Cl       9.51079514       3.18658455       2.77516861      -0.01313961      -0.01559290      -0.00886476
Cl       8.23810059       2.68061115       5.33481040       0.01232427      -0.00307025       0.00476915
Cl       7.39820225       1.20190619       2.98498831      -0.01711264      -0.00741971       0.01742543
Cl       6.77890393       4.03179969       3.22121469      -0.00387171      -0.00095406       0.01606964
C        7.98353345       2.76480146       3.57587639      -0.00392925      -0.00679836       0.00660539
Cl      15.04876377       5.42602905      10.44441215       0.00776139      -0.00578827      -0.00305969
Cl      12.70281225       5.77942790       8.77932785       0.01087299      -0.00121716      -0.00751057
Cl      14.58765565       7.95846443       9.10276825       0.00837898      -0.00067854       0.00667727
Cl      12.90317247       7.16435823      11.32086823       0.00302702      -0.01095805      -0.00140682
C       13.81179927       6.57913157       9.90807929       0.00756998      -0.00532437      -0.00148290
Cl       2.62289134      12.76732764       3.22259677       0.00507709      -0.00692993       0.01099820
Cl       2.01721267      10.93091529       5.38389777      -0.00513551      -0.02903858      -0.00718617
Cl       2.44874067       9.92007686       2.70272205       0.01556219      -0.00284424      -0.01449588
Cl       0.04651569      11.42331485       3.31853308       0.00733554      -0.01246849      -0.01618911
C        1.78739773      11.27862844       3.65134670       0.00527859      -0.01279381      -0.00571108
Cl       3.75956003       7.05134709       5.56016780       0.00504366      -0.00378245      -0.00877059
Cl       3.01325553       5.00394354       7.47725866       0.01373520      -0.00469744      -0.00325775
Cl       1.23417103       5.64831494       5.27061685       0.00202197      -0.00583185       0.00844410
Cl       1.60875201       7.53812674       7.44075385       0.01706493      -0.00136781       0.00294909
C        2.40243060       6.31129802       6.43088432       0.01054354      -0.00393359       0.00038380
Cl      17.93100906      15.52213450      -0.77676537      -0.00768278       0.01264906      -0.00293126
Cl      18.76131808      12.87516507       0.08344634       0.00845379       0.02146003       0.00072316
Cl      16.62819006      13.17699140      -1.85985018       0.00998852       0.01167712      -0.01570153
Cl      16.18325121      13.91104317       0.90172555      -0.00456558      -0.01825385      -0.01047501
C       17.38227029      13.84487611      -0.41459739       0.00198369       0.00787380      -0.00844046
Cl       2.25071074       9.01106706      14.05748302      -0.01182234       0.01698652      -0.00576937
Cl       3.14916066      11.20414670      12.39680582       0.00588906       0.01822764       0.00932798
Cl       4.25053641       8.55539055      12.00026325      -0.00857376       0.00758928      -0.00023094
Cl       4.93452990      10.05929515      14.37516131      -0.00524643      -0.00104609       0.00401795
C        3.64081413       9.71292376      13.20997876      -0.00474457       0.01044734      -0.00011813
Cl       5.98430581      16.88258008       8.83749320       0.00504762       0.00130567      -0.00160861
Cl       7.85582541      17.08542131       6.63174224       0.00705151      -0.00228956      -0.00223053
Cl       8.75199698      17.49933697       9.36845581       0.00861347      -0.01138748       0.00004220
Cl       7.04834303      19.47111770       8.07152554       0.01632605      -0.00231689       0.00150988
C        7.43332102      17.72255507       8.23170177       0.01034872      -0.00440036      -0.00067703
Cl      17.38951773      10.40114966      14.64612196       0.00062892       0.00191388      -0.00588746
Cl      15.65009003       8.30965359      13.63201561       0.00069153      -0.00138126      -0.00325768
Cl      18.19925803       7.61897556      14.83600851       0.00263402       0.00309104      -0.00711244
Cl      18.11735582       8.93900355      12.25210586      -0.00040711      -0.00144834      -0.00630051
C       17.33638169       8.81297087      13.84039190       0.00016325       0.00161767      -0.00563527
Cl      12.75319057       9.15025316       4.04359433      -0.00025862      -0.00083268       0.00082058
Cl      11.07082768       7.39240631       5.62832288      -0.00684092       0.00453371      -0.00212154
Cl       9.89718469       9.03616521       3.54839348       0.00006205       0.00505641      -0.00720116
Cl      10.89897431      10.26326771       5.97885720      -0.00392500       0.00551993      -0.00632653
C       11.15756201       8.96114012       4.79875047      -0.00315920       0.00313183      -0.00329609
Cl       3.53740999       2.33247944       3.56548782      -0.02271064      -0.00094727       0.00360733
Cl       4.18885605       0.27004199       5.42576461       0.01827598       0.02225816       0.02022949
Cl      -1.98195529       1.47209355       3.54203840      -0.01422784      -0.02536571       0.00463489
Cl       1.83412768       1.85535591       5.81281610      -0.01387620      -0.01162477      -0.00131020
C        3.22903071       1.49928602       4.97021088      -0.00543150       0.00151979       0.00830592
Cl      16.22160165       0.16900826      13.85469425       0.00257980      -0.00401366       0.01417024
Cl      16.42831832       2.52530573      15.53880705       0.00194229       0.00312231       0.00485963
Cl      14.76123159       2.56838808      13.16315076       0.00416255      -0.00548363       0.00479436
Cl      17.65157417       2.51630837      12.90670106       0.00397491      -0.00739257       0.00665092
C       16.25482734       1.94424520      13.86210090       0.00369704      -0.00506398       0.00583385
Cl      10.65110233      16.14873571       4.32511716       0.00607032       0.00205976      -0.00636508
Cl      10.69917582      14.51655439       1.92933528      -0.00039387      -0.00138711      -0.00414091
Cl       9.33450915      13.57383722       4.30563699      -0.00058091       0.00493735      -0.00240141
Cl      12.22782761      13.70918501       4.25737174       0.00033170      -0.00115460      -0.00552580
C       10.72112317      14.48665364       3.71351533       0.00138909       0.00214317      -0.00582042
Cl       9.66558309       6.21737439      12.22569024      -0.00392777       0.00183482      -0.00304112
Cl       8.34978993       3.92111452      13.40111810      -0.00652090      -0.00036025      -0.00935149
Cl       6.85327962       5.76942392      11.73528073      -0.00294930       0.00475226      -0.00771770
Cl       7.75009772       6.58871625      14.36824272      -0.00652745      -0.00204054      -0.00438643
C        8.15652952       5.61444129      12.93713378      -0.00557739       0.00205293      -0.00578725
Cl      12.80877421      18.66863717      16.29489322       0.01645623       0.01055926      -0.00733813
Cl      11.66379971      16.04903685      16.81012859       0.02088958       0.01718968       0.01228476
Cl      14.53194279      16.46011939      17.06132982       0.01638079       0.01762536      -0.02259684
Cl      13.27382990      16.48832366      14.44289239      -0.01190773       0.00414149      -0.00146908
C       13.04508084      16.91211429      16.13947306       0.01530018       0.00963401      -0.00518250
Cl      16.39863448      14.45766685      11.52594793       0.00388360      -0.00659397      -0.01232112
Cl      13.64332934      13.91804595      10.82164518      -0.00880390       0.00738993       0.02535501
Cl      14.63252045      13.19254352      13.44555366       0.02753307       0.00284970       0.01521748
Cl      15.52559119      11.72368121      11.10629122      -0.02004158      -0.00291687      -0.00158808
C       15.04086771      13.32270891      11.72220297       0.00150765      -0.00187670       0.00616559
Cl      18.44577512       8.11241505       1.07323095       0.00108510      -0.00344852       0.00418915
Cl      15.73641211       7.34948339       0.35704084      -0.00215703      -0.00353917       0.01974878
Cl      17.07294902       9.46931617      -1.09388337      -0.01207626      -0.00158671       0.01371092
Cl      16.23224413       9.89680603       1.65246497       0.00405397      -0.00710139       0.02303392
C       16.87464188       8.70444812       0.49162963      -0.00202044      -0.00366317       0.01415549
Cl      11.93832000       5.22390712      15.13149617       0.00718964       0.01584622       0.00174206
Cl      13.61216126       4.88732531      17.47228998       0.00240928      -0.00535385       0.00423953
Cl      11.83192948       2.75036825      16.63725458      -0.00625897       0.00980288      -0.01064847
Cl      10.74206393       5.18340171      17.77162864       0.00173530       0.00698821       0.00054824
C       12.02778604       4.50812510      16.75337678       0.00120440       0.00769316      -0.00087182
Cl      10.73045649      11.22797084      17.37446580       0.00347841      -0.00506508       0.00685069
Cl      12.86553366      10.57981346      19.22434762       0.00157678      -0.02147124       0.00564706
Cl      13.49890308      11.38891739      16.51372548       0.00370210      -0.01035821       0.00905532
Cl      12.28147098       8.80663282      17.00490283      -0.00371585      -0.00946581      -0.00011736
C       12.33782936      10.49993443      17.53074216       0.00153074      -0.01108792       0.00570610
Cl      17.53579839       1.35308685       6.83410566      -0.00946092       0.00727096       0.00244087
Cl      16.08646506       1.71370805       9.32034509       0.00669324       0.00635078       0.00843045
Cl      18.83708923       2.61676663       9.09693358       0.01410764      -0.00964671       0.00036882
Cl      18.24609802      -0.22336866       9.17080956      -0.00438039      -0.00538984      -0.00633556
C       17.66620052       1.35983811       8.60937932       0.00194303       0.00058173       0.00215800
Cl      16.48334124       5.18445895       6.70749536       0.00546798      -0.00092894      -0.00469983
Cl      16.98292815       5.32077578       3.84912474       0.00081703       0.01083234      -0.00459599
Cl      16.36691249       7.73564334       5.33474109      -0.00296517       0.00541031       0.00350702
Cl      14.30704191       5.74444267       4.87896940       0.00157619       0.00380176       0.00036807
C       16.03301847       5.99422605       5.19442932       0.00134861       0.00472477      -0.00094270
Cl       1.00620300      13.32127408      15.72933286       0.00367779      -0.01551132      -0.03018813
Cl       2.96955157      11.81130750      17.23154055      -0.01169041       0.00077403       0.00326532
Cl       2.66270803      14.65233002      17.71226676      -0.03182941       0.00237396      -0.00270653
Cl       3.83614746      13.72196798      15.23055987       0.00652370       0.00784402       0.01445878
C        2.63082921      13.37400515      16.46999597      -0.00976256       0.00004091      -0.00283946
Cl       8.07421045      14.08981466      10.83278531       0.00647074       0.00309718      -0.00186992
Cl       5.18799321      13.93465430      10.96502323       0.00454772       0.00788748      -0.01277030
Cl       6.79433906      13.17822979      13.25706482      -0.00256750       0.00943405      -0.00595725
Cl       6.75985482      11.50001622      10.89346172       0.00343010       0.00601035      -0.00455824
C        6.71420610      13.17974678      11.49118159       0.00356706       0.00699414      -0.00699019
Cl       0.40347179      -2.31440279      15.38617805       0.01309627      -0.01202565      -0.00798506
Cl      -0.85307653      -0.49268204      17.25056294      -0.04258960      -0.01326893       0.01218635
Cl       0.76073183       0.54484023      15.08898519       0.02378263      -0.00301790       0.01026969
Cl       2.04261621      -0.86485716      17.27611692      -0.00407004      -0.01506150       0.02080896
C        0.61364429      -0.78411206      16.22320193       0.00644159      -0.01156520       0.00435778
Cl       4.94754994       0.35109279      11.80183597       0.01211458      -0.00768161      -0.01057535
Cl       3.34908999       0.65252789       9.40023003      -0.02012585      -0.02274475       0.00668049
Cl       4.94406819       2.87661245      10.38120211      -0.00686076      -0.01814812      -0.02098587
Cl       2.57911784       2.03891342      11.83156893       0.00727791      -0.01325715       0.00843602
C        3.96462310       1.46800564      10.86695177      -0.00313254      -0.01409346      -0.00311016
Cl      14.44125165      17.27921098       8.60912816      -0.01116920       0.00262750       0.01892594
Cl      12.21660650      15.57650714       7.85029455      -0.00532323       0.00398380       0.00683969
Cl      14.13661599      16.44804487       5.85546953       0.00889173       0.00379844       0.01396880
Cl      12.26503711      18.34522653       7.00700628       0.00208911       0.00163379       0.00071940
C       13.25929866      16.90903906       7.33662283      -0.00064404       0.00173889       0.00780508
Cl       9.79763780       1.99251804      10.22469969       0.00966835      -0.00257783      -0.01317799
Cl      11.81706291       3.34902519      11.79886192       0.00062606       0.00279284      -0.00776371
Cl      12.52887367       1.01436547      10.23098721       0.00964522      -0.00470597       0.00758922
Cl      10.87344815       0.71085693      12.58930280      -0.00532603       0.00436223      -0.00415409
C       11.24571619       1.75253071      11.22677813       0.00451088      -0.00067529      -0.00378257
Cl       0.77556396      13.70786809      10.88363444       0.02314845       0.00973976      -0.00275946
Cl       1.46009292      13.28843058       8.10090515       0.00522962       0.01827979      -0.01012856
Cl       2.49688825      15.60033162       9.51023609      -0.00957361       0.02981851      -0.01856560
Cl      -0.31508919      15.45967641       8.84335659      -0.01550439      -0.00283936       0.00597925
C        1.10700432      14.51056478       9.33865816       0.00031853       0.01300457      -0.00643040
Cl      15.67769178      12.53177736       4.75133404       0.00627442       0.00427689       0.00361454
Cl      14.60991120      11.00529150       6.97523318      -0.00237241      -0.00383919      -0.00631046
Cl      15.95513962      13.52219297       7.46508336      -0.00545685      -0.00553796       0.00855666
Cl      17.48024761      11.21450490       6.60324719       0.00001773      -0.00136137       0.00507697
C       15.93118640      12.06726951       6.46350692      -0.00052550      -0.00183524       0.00295934
Cl       7.45383695       5.84920181       7.66071607      -0.00083013       0.01169538      -0.00185002
Cl       5.75531291       7.88972291       8.83225081      -0.00328124       0.01269315      -0.00605583
Cl       7.29946265       8.47665965       6.45347255       0.00007670       0.00870591      -0.00615096
Cl       8.63794501       8.13526202       9.00032761      -0.00349548       0.01461449      -0.00321904
C        7.29272359       7.58688376       7.98712279      -0.00231305       0.01205529      -0.00423372
