198
Lattice="13.728356845523454 0.0 0.0 0.0 13.728356845523454 0.0 0.0 0.0 13.728356845523454" Properties=species:S:1:pos:R:3:forces:R:3 energy=-835838.8125 stress="-0.00020666826458182186 9.572910130373202e-05 -0.0005290487024467438 9.572910130373202e-05 0.0007104126852937043 0.0005289570253808051 -0.0005290487024467438 0.0005289570253808051 -0.0003161396598443389" pbc="T T T"
Ba      13.98386848      12.73549371       2.41602145       0.00641522       0.00992478       0.00673702
O       12.05189907       9.27019270      -0.39747490       0.00345677       0.00269538      -0.00018501
O       11.86341436      11.35667338       2.23021391       0.01529645      -0.01150450       0.02191359
O       11.16515935      12.02575329      -0.79671097       0.02266589       0.01063138       0.02580303
O       13.59676854      11.44536907       0.36050569       0.01767969      -0.01655790       0.02469826
W       11.90298542      10.86090677       0.29891381       0.01368976      -0.00478110       0.01824212
O        7.70052672       0.67915739      13.18256786      -0.00126368       0.01196593      -0.02577096
O        7.46448731       2.89861960      12.91389333      -0.03752005       0.01330614       0.01419151
C        5.82471358       1.41758620      11.97615620      -0.01447886       0.00276175      -0.01041681
C        7.06957879       1.76823851      12.73904648      -0.01978552       0.00932533      -0.00581416
H        6.09704301       1.21644417      10.93742713      -0.01025299       0.00075168      -0.00895692
H        5.35993874       0.51769736      12.37490703      -0.01098989       0.00095856      -0.01029650
H        5.14143369       2.26208448      11.99206648      -0.02009380      -0.00209764      -0.01421876
H        8.52804199       0.95530638      13.62701243      -0.00490031       0.01562825      -0.02212679
O        5.35173819       9.45862025       8.01566441       0.00095186      -0.00336581      -0.00914070
O        3.88011711      11.04016998       8.60656309      -0.00352335      -0.00994441      -0.00299896
C        6.18494276      11.63089939       8.34947057      -0.00562721      -0.00286454       0.00319948
C        5.03217191      10.69566934       8.34201565      -0.00292027      -0.00580112      -0.00413293
H        6.96660739      11.26180957       9.01520921      -0.01070461      -0.00181563       0.00979920
H        6.62808301      11.64695128       7.35141943       0.00307485      -0.00171274       0.00717464
H        5.86109377      12.62615303       8.63787638      -0.01077797      -0.00406368       0.00153860
H        4.52228839       8.90925633       7.92912902       0.00201815      -0.00530484      -0.01037307
O       10.10615171       9.73800017      11.26813079       0.00113988       0.01566458       0.00277567
O        8.99955656      10.63288448       9.53365074      -0.01927775       0.00976980       0.01303834
C        8.93619526       8.25152910       9.88685635       0.00273746       0.00820798       0.00866041
C        9.32019642       9.66941263      10.19559186      -0.00614899       0.01048839       0.00833398
H        9.80196864       7.74989190       9.45233971       0.00502095       0.01159994       0.00916045
H        8.69123196       7.71201608      10.79713500       0.00615299       0.00850161       0.00982170
H        8.10745734       8.23345746       9.18407018       0.00226465       0.00344628       0.00932346
H       10.35169552      10.66421107      11.45390453      -0.00747648       0.01765981       0.00215482
O        9.30540701      11.52245702       2.53490398       0.01230711      -0.00596553       0.02061391
O        9.93273162      10.15615843       0.89429221       0.01608849       0.00254011       0.01461893
C        7.69481671       9.99912957       1.62567336       0.01178944       0.00599438      -0.00374890
C        9.06281073      10.61363801       1.69996268       0.01332468       0.00175568       0.01303491
H        7.02138243      10.44763612       2.34987849       0.00546259       0.00952896      -0.01159498
H        7.30777926      10.10829950       0.61254871       0.02445780       0.00231656      -0.00951359
H        7.78126499       8.92813520       1.81807171       0.00772434       0.00620732       0.00082682
H       10.92394506      11.46966109       2.54389636       0.01599151      -0.00980729       0.02347425
O       12.87858433      12.75497290       7.01972606       0.00382718      -0.01103908       0.00166757
O       13.08655701      13.57198246       4.94176078      -0.03572141      -0.02796687      -0.00715375
C       13.69293219      11.29533705       5.36736834       0.00095731      -0.01956409       0.00653015
C       13.20014162      12.65482900       5.74589708      -0.01025109      -0.02183354      -0.00058737
H       14.69407170      11.35366508       4.93461781      -0.00831808      -0.01760493      -0.01604330
H       13.73985031      10.62085278       6.21477728       0.02755481      -0.00533986       0.01695353
H       12.99744351      10.86181000       4.64305817      -0.00808659      -0.03997087       0.02757651
H       12.36721626      13.57640144       7.30045797      -0.00761113      -0.01509148      -0.00859888
O        7.41196825       7.43882673      12.88937524      -0.00783461      -0.00390484       0.00473002
O        6.93472725       9.50387920      12.13046881       0.00544155      -0.00670111      -0.01082686
C        5.31893966       7.75182754      11.84803885      -0.00288165      -0.00155723      -0.00301018
C        6.61545721       8.35037587      12.29872182      -0.00165147      -0.00400269      -0.00347058
H        5.45602989       7.40611894      10.81970491      -0.00050792      -0.00807156      -0.00064847
H        5.02374021       6.89144827      12.44386816      -0.00589206       0.00214337       0.00105450
H        4.54817025       8.51792810      11.83619807      -0.00120094       0.00014289      -0.00938781
H        8.30233585       7.80752054      13.06656114      -0.00532940      -0.00811327       0.00215317
O        8.96530134       5.62718939       7.28599996       0.00086614       0.00377542       0.00146079
O       10.80765114       5.01160574       8.39498407      -0.00064379       0.00562503       0.00532370
C        8.67642012       4.40062376       9.29734143      -0.00310630       0.00267693      -0.00054920
C        9.59799974       5.02448716       8.30033227      -0.00092298       0.00410909       0.00240644
H        8.57106942       5.09023118      10.13828205      -0.01270478       0.00578018      -0.00408438
H        7.69549751       4.19985491       8.87858201       0.00063038      -0.00400658      -0.00644908
H        9.12437796       3.48768536       9.68011458      -0.00027263       0.00658384       0.00555205
H        9.61913195       6.12661324       6.73559946       0.00103086       0.00218917       0.00022043
O        2.93928236       2.72056840      10.05041165       0.00660482      -0.01291567       0.00493188
O        4.48594319       2.34781056       8.47822524       0.00291952       0.00221789      -0.00194955
C        4.52923479       4.42872491       9.70167980      -0.00607732      -0.00046951       0.00389051
C        4.01644726       3.08264656       9.32114334       0.00139710      -0.00284860       0.00193447
H        5.22309290       4.77877486       8.94567381      -0.00423972       0.00208385       0.00652121
H        3.70066237       5.12651535       9.81766413      -0.00990491      -0.00396715      -0.00035729
H        5.02236622       4.36064025      10.67342973      -0.01069416       0.00196553       0.00666103
H        2.67927801       1.84266982       9.73731326       0.01261519      -0.01445472       0.00394845
O        0.63525521       2.93989465       5.38499282       0.00728174       0.00649318       0.00061697
O       -0.98104992       4.46264351       5.69313019       0.00279263       0.00081426       0.00262874
C       -0.42999474       3.00129572       7.50096218       0.00679442       0.00155172       0.00101125
C       -0.30454210       3.54494940       6.12208139       0.00519991       0.00358051       0.00106122
H        0.15713932       2.09584341       7.63024654       0.00455463      -0.00004677      -0.00115040
H       -0.09564852       3.76777005       8.20603422       0.01112431      -0.00042322       0.00112297
H       -1.47760054       2.81209227       7.72370378       0.00659019       0.00507255       0.00316849
H        0.69965685       3.38063957       4.51110888       0.00803022       0.00958470       0.00202021
O       11.70700321      12.35266211       9.58315992       0.00083596       0.00072402       0.00843656
O       11.35542528      14.24344395       8.42102943      -0.02012195      -0.01791701      -0.01738143
C       10.02372520      13.78949889      10.36844679      -0.00443232      -0.00153257      -0.00274599
C       11.08322256      13.50986662       9.36507101      -0.00837608      -0.00641036      -0.00565502
H        9.19264641      13.11021769      10.16184416      -0.00463319      -0.00271973       0.00194225
H       10.37069549      13.54541610      11.37183997       0.00013978       0.00385211      -0.00316191
H        9.69692208      14.82138772      10.29484793      -0.00600787      -0.00222468      -0.00505381
H       12.32691142      12.17890666       8.85593822      -0.00211659      -0.00726478       0.00789973
O        5.95798668      10.17375602       4.68816991      -0.00218314       0.00083095      -0.00806111
O        8.07111800       9.85692190       5.36441291      -0.00304079       0.01028919      -0.00003538
C        6.56467673       7.98126900       5.29551319       0.00258814       0.00550455       0.00018971
C        6.96587680       9.41972601       5.14259230      -0.00067842       0.00595182      -0.00279050
H        7.16750935       7.49998237       6.06088777       0.00138278       0.00885801       0.00310652
H        5.50470994       7.88809558       5.52004527       0.00235054       0.00469799      -0.00183734
H        6.75009170       7.47401646       4.34516140       0.00484660       0.00278203       0.00224294
H        6.27230797      11.08355541       4.47980799      -0.00691700       0.00321890      -0.00466233
O        4.02366697       5.57870003       6.78287637       0.00814401       0.00464094      -0.00109999
O        2.70267792       5.62769875       4.99287933      -0.00353557      -0.00607079       0.00718832
C        4.13484240       3.72313203       5.33128400       0.01165801       0.00371832       0.00263318
C        3.54469655       5.05261424       5.67304464       0.00394309      -0.00013471       0.00298107
H        5.03247481       3.87439541       4.72667712       0.01786160       0.01040033       0.01358171
H        4.42593517       3.18764436       6.23259554       0.00625756       0.00266215       0.00392416
H        3.42851631       3.14056847       4.74436895       0.02032663       0.00209786      -0.00607626
H        3.60348244       6.46425176       6.96706513       0.00578159       0.00377703      -0.00091489
O        2.83946597      13.11642136       4.05031804       0.01505902       0.01289982      -0.00151335
O        3.38544191      11.45249384       5.43752322       0.01117274       0.00699615      -0.00617887
C        3.21995444      13.68330439       6.31771759       0.00450407       0.00021338       0.00466567
C        3.16904360      12.63844716       5.26287041       0.01125921       0.00676757      -0.00281325
H        4.12607123      14.27476907       6.17250153       0.00046045       0.00845352       0.01370991
H        2.37944834      14.37137564       6.21773060       0.00030616      -0.00425412       0.00972198
H        3.25216903      13.22311364       7.30050110       0.00438404      -0.00886343       0.00044408
H        2.93973548      12.35018879       3.41725544       0.01681459       0.01671880      -0.00706789
O       10.46329819       7.19995215       5.62708549      -0.01034573      -0.00340462      -0.01359794
O       11.82726245       8.88189079       5.07521612      -0.01301003      -0.00368392      -0.02077520
C       10.45788475       9.13469112       7.02053042       0.00787085      -0.01085532      -0.00411206
C       10.98236612       8.43114329       5.81429672      -0.00626796      -0.00550242      -0.01363850
H        9.45805504       8.80555674       7.27755412       0.00356582      -0.00020513      -0.00524100
H       11.13001689       8.94218518       7.86167499       0.00850005      -0.03192114      -0.00912651
H       10.43385101      10.20371014       6.83192870       0.02406277      -0.00836588       0.00783662
H       10.85724158       6.81627444       4.78694546      -0.01381513      -0.00467008      -0.01515251
O       12.26034495       6.88380048       9.65447197      -0.00064951       0.00456145       0.00835529
O       14.20325841       5.76440915       9.70524585      -0.00172508       0.00237930      -0.00625879
C       13.97677650       7.81077927      10.96153553       0.00603667      -0.00356948       0.00583053
C       13.52992910       6.71054885      10.05602112       0.00081971       0.00137466       0.00236040
H       13.64609855       8.77778574      10.58505715       0.01422270      -0.00094895       0.00479284
H       13.49414360       7.67833931      11.93271559       0.00136140      -0.00109326       0.00393274
H       15.05592757       7.78596949      11.07870403       0.00564292      -0.01119173       0.00861879
H       11.96360333       6.09970459       9.14580786      -0.00331539       0.00684273       0.00653263
O        1.57081216       4.25244285       3.12511896       0.00452206       0.00041035      -0.00238955
O        2.21180664       5.79831751       1.64198215      -0.00153846       0.00481641      -0.00232886
C        0.73040248       4.06081180       0.91119660       0.00659835       0.00436410      -0.00220197
C        1.58201627       4.79766275       1.89601121       0.00270081       0.00345546      -0.00121391
H        0.61085918       3.01368420       1.18664448       0.00609694       0.00549787      -0.00645792
H       -0.25679084       4.53212721       0.87793723       0.00565898      -0.00139074      -0.00474313
H        1.15099125       4.16033142      -0.08684718       0.00512623       0.00289617      -0.00166774
H        2.06660556       4.86421155       3.76359822       0.00364107       0.00022662      -0.00237503
O        8.31754135       2.81350913       6.62183643       0.00915882       0.00143147      -0.00584000
O        7.23064032       2.34127951       4.71895333      -0.02385083       0.01499954       0.01006109
C        7.12132291       0.78934786       6.56112559       0.00632262       0.00164843       0.00004357
C        7.54385701       2.02990701       5.84400338      -0.00470057       0.00692022       0.00281179
H        7.98433744       0.27583248       6.98557636       0.00940296       0.00996687       0.00361218
H        6.46851497       1.07648418       7.38880713      -0.00101645      -0.00622191      -0.00285971
H        6.59360126       0.12972111       5.87909463       0.01488918      -0.00211332      -0.00289804
H        8.48753164       3.63726183       6.13982877      -0.00024036       0.00461704      -0.00387895
O        1.81112612       9.68707256       7.99868167       0.00032088      -0.00560136      -0.00884199
O        3.19396627       7.99426360       7.56318510       0.00433394      -0.00231133      -0.00648580
C        0.87324734       7.73991875       7.04658195       0.00569355      -0.00867793      -0.00836703
C        2.05136921       8.48246680       7.56532707       0.00278187      -0.00476541      -0.00794260
H        0.86041647       6.73400934       7.46494550       0.01100424      -0.00973651      -0.01078647
H       -0.05266591       8.25688496       7.28168916       0.00378455      -0.01305515      -0.00570288
H        0.96794102       7.63875828       5.96336744       0.00523576      -0.00559683      -0.00868970
H        2.67416159      10.17217769       8.27165813       0.00052944      -0.00445149      -0.00732497
O        7.74109309      -0.18392523       2.51614659       0.00058693      -0.00501522       0.00921877
O        6.06072558      -1.04615845       3.72983462      -0.00241494       0.00786215       0.01491630
C        5.67285027       0.92196301       2.42826450       0.00352651       0.00078952       0.00257245
C        6.50959656      -0.19171342       2.97178268       0.00022945       0.00227749       0.00893408
H        6.28727918       1.77103534       2.14762780       0.00459649       0.00060496       0.00472212
H        5.16896917       0.55394032       1.53129015       0.00906547      -0.00024853      -0.00004129
H        4.91633573       1.21526728       3.14993329      -0.00055863       0.00203860      -0.00235453
H        8.24401364      -1.03201094       2.72033814      -0.00094219      -0.00240481       0.01846777
O       13.58305868       6.39457326       4.10493575      -0.00777274      -0.00142711      -0.00289369
O       11.49355639       6.47426440       3.31580555      -0.00586498      -0.00287127      -0.00844440
C       13.19102576       7.80893714       2.26587510      -0.00662059       0.00785822       0.00407302
C       12.66456243       6.83768232       3.26247266      -0.00700182       0.00098997      -0.00230387
H       12.73139829       8.77441070       2.48286450      -0.01255167       0.00518405       0.00419232
H       14.27384563       7.87754006       2.32205993      -0.00719608       0.01297118       0.01011387
H       12.88310348       7.51246291       1.26418231       0.00015481       0.00971729       0.00149837
H       13.19484022       5.68632186       4.68547235      -0.00593337      -0.00472182      -0.00473094
O        4.03218156       3.17665586       0.88810434       0.00040764       0.00137296      -0.00347948
O        4.46210824       4.63241576      -0.75363361      -0.00374267       0.00719413       0.00052017
C        5.41550979       5.01752117       1.42909452       0.00577462      -0.00296050      -0.00337505
C        4.62036709       4.29801770       0.39328927       0.00047809       0.00214604      -0.00363857
H        4.71025193       5.50723885       2.10504967       0.00999498      -0.00343429       0.00096573
H        6.02047048       4.32035568       2.00689789       0.00668433      -0.00545354      -0.00819825
H        6.04605761       5.76052185       0.94961385       0.00553478      -0.00250158      -0.00289710
H        3.51564716       2.80696934       0.15713206      -0.00310045       0.00621171      -0.00307548
O       12.12245935       0.40691920       0.74836274      -0.01355812      -0.01610896       0.00239825
O       10.17513004       1.42406353       0.36079573       0.00058529       0.00467212      -0.00273496
C       11.28507998       1.88148497       2.43267347       0.00123531       0.00416681      -0.01060867
C       11.11675249       1.24909987       1.08921356      -0.00978208      -0.00193036      -0.01069358
H       10.66162198       1.32311872       3.13649296       0.00995713       0.00465737      -0.00314614
H       12.31122057       1.85753587       2.79643469       0.00389554       0.00810192      -0.01736745
H       10.91869863       2.90469593       2.41202848       0.00004499       0.00327891      -0.00989629
H       11.81158239      -0.15675206      -0.01688255      -0.02071822      -0.03017381       0.01190001
O       10.24390027       7.36082044      13.26370634      -0.00840186       0.00329435      -0.01055676
O       12.02828264       6.02117472      13.47790936      -0.01009834      -0.00065179      -0.02149634
C        9.84238975       5.04011928      13.51014597      -0.01280040       0.00387794       0.00104311
C       10.82425281       6.16642903      13.41164658      -0.01098049       0.00108430      -0.01151697
H        9.57480098       4.90968814      14.56170627      -0.01102508       0.01720037       0.00333843
H        8.92354719       5.23754641      12.96491876      -0.01399633      -0.00141666       0.00044189
H       10.29522951       4.11441900      13.16718082      -0.01385197      -0.00059211       0.01132363
H       10.94107811       8.08781329      13.24930015      -0.00609732      -0.00049536      -0.01185190
O        3.40740348       9.53650305       3.49894108       0.00678082       0.01238561      -0.00331578
O        2.52343044      11.21094695       2.32584129       0.02212691       0.01892435      -0.00755145
C        3.15682910       9.21114779       1.17502900      -0.02057457      -0.00370973       0.00427932
C        2.99034547      10.05815316       2.38264811       0.00527751       0.01199877      -0.00288481
H        4.20057835       9.31222323       0.85924194      -0.02677259      -0.01162349      -0.01930644
H        2.97847256       8.15873125       1.38823824      -0.01990678       0.00044429       0.02483250
H        2.51220127       9.57014056       0.37776707      -0.03673790      -0.01493153       0.01218374
H        3.41554886      10.22020023       4.22845195       0.01829289       0.01308650      -0.00381029
