195
Lattice="13.30686767243887 0.0 0.0 0.0 13.30686767243887 0.0 0.0 0.0 13.30686767243887" Properties=species:S:1:pos:R:3:forces:R:3 energy=-106713.828125 stress="0.0008909270982258022 -0.00011234354678890668 -0.00011606346015469171 -0.00011234354678890668 0.0016479113837704062 -0.0002250790930702351 -0.00011606346015469171 -0.0002250790930702351 0.0011623547179624438" pbc="T T T"
Be      11.63434940      12.37258668       0.16312653      -0.01066363      -0.00295100      -0.00656893
F        8.65034778      12.67005187       6.52936592       0.01822285       0.00129184       0.00314260
F       13.02477317      12.58765531      -0.03213720      -0.01278207      -0.00242839      -0.01457178
O        0.66096947       8.25198654       7.97293007      -0.00605743       0.00405592       0.01302886
C        0.98584769       9.54008898       8.46114370      -0.00010643       0.00490654       0.00710986
H        2.05835168       9.75597905       8.39521047       0.00128758      -0.00130353       0.00871969
H        0.66875555       9.67575422       9.50065342      -0.00158909       0.01229999       0.00578836
H        0.45505884      10.27107193       7.84887862       0.00538272       0.00455573       0.00204766
H        0.98439990       7.60376541       8.61926675      -0.00501121       0.00505784       0.01346888
O        7.54142903       0.36842779       4.38239092       0.00765669      -0.00530934       0.00326568
C        7.43950829       1.75118929       4.63170245       0.00220666      -0.00590736       0.00530636
H        7.61666162       2.30312112       3.70506363      -0.01413655      -0.00481883       0.00324813
H        8.18925545       2.07986661       5.36004841       0.00974587      -0.00084977      -0.00492924
H        6.44215710       2.03245367       5.00393927       0.00559771      -0.01234988       0.01852706
H        7.91194316      -0.04327364       5.19403003       0.01129421      -0.00417879       0.00182355
O       10.62802669      12.67223178      12.31657226      -0.01298411       0.00524207      -0.00011469
C        9.22864174      12.33648754      12.36940430      -0.01178944       0.00466016       0.00675957
H        8.82737516      12.40437955      11.36161564      -0.01964738       0.01175411       0.01024857
H        8.70347503      13.04762007      13.00580461      -0.00724047      -0.00150128       0.01721165
H        9.09627472      11.32460752      12.75098229      -0.01038364       0.00180358      -0.00071634
H       10.93102045      12.73647353      11.25706038      -0.01226204      -0.00825901      -0.00717999
O       12.13799113       9.61877246       2.09603515      -0.00788536      -0.01020339      -0.01027581
C       11.73865590       8.95377809       3.30636459      -0.00351202       0.00284324      -0.00190052
H       10.76520199       8.47500604       3.18758691      -0.00277376      -0.00044990       0.00543378
H       11.65262512       9.70531247       4.08858004      -0.00393525       0.01112562      -0.00992790
H       12.48903396       8.20987902       3.58345595      -0.00097594       0.00784265       0.00460887
H       11.90499473       9.03035246       1.32591289      -0.01099861      -0.01984063      -0.00286700
O        3.76580078       3.45460900       0.26349408      -0.01027375       0.00249876       0.00761485
C        4.31997659       4.28572307       1.30683574       0.00614823       0.00111619      -0.00084476
H        4.69412722       5.22526987       0.89333924       0.01252061      -0.00468937      -0.00828636
H        5.12439842       3.76710562       1.82929192       0.00471587      -0.00441182      -0.00410236
H        3.50791105       4.51001479       1.99313919       0.01344875       0.01268552       0.00400828
H        4.48957748       3.16116646      -0.29882197      -0.01640207      -0.00931333       0.00528684
O       10.03875524       2.85042817       1.84298157       0.00549355       0.02692825      -0.00755474
C       11.01561564       2.01720211       1.25393713      -0.00590400       0.01158437      -0.00480011
H       10.53965542       1.37277149       0.50530079      -0.01506455       0.01107287       0.00148495
H       11.49511144       1.36382082       1.98906920      -0.01079492       0.01210304      -0.00123733
H       11.81206459       2.59923377       0.77025011      -0.00140673      -0.00033087      -0.01138264
H       10.18860695       2.79436855       2.82141775       0.00354635       0.02559505      -0.00764240
O       11.49230217       8.15863019      13.31082772      -0.00916031      -0.03579271       0.01020716
C       12.62696713       7.88125993      12.47524176      -0.00933474      -0.01298453       0.00328590
H       12.32880011       7.29848643      11.60491185      -0.00820605      -0.00149371      -0.00484216
H       13.40087385       7.34279251      13.02925945      -0.00331947      -0.01638204      -0.00844145
H       13.02869976       8.83964832      12.14973316      -0.01672274      -0.00625712       0.01691085
H       11.02612307       7.32842210      13.49614250       0.01142260      -0.04397419       0.01631139
O        1.62143447       6.02326255       1.67517825       0.01072073      -0.00888413       0.00570458
C        2.30041539       7.26876330       1.73499909       0.00508355      -0.00532520      -0.00093369
H        1.60467828       8.07399266       2.00725779       0.00100541      -0.00452015      -0.01403170
H        2.76107438       7.53826644       0.78072784       0.01228310      -0.01310595       0.00028032
H        3.07701069       7.20805202       2.50186968      -0.00113979       0.00303148       0.00549719
H        1.54636077       5.75016738       0.74770461      -0.00452420      -0.00402692       0.00629659
O        6.92949919       3.30994562       8.12198983      -0.00050870       0.00136846      -0.00834286
C        6.75433444       1.94662889       8.50805073       0.00376825      -0.00299208      -0.02074860
H        7.68655028       1.38204871       8.46809965       0.00502896      -0.00012371      -0.03065389
H        6.01631856       1.43938490       7.87815738       0.00195369       0.00176948      -0.02239059
H        6.39361097       1.95839268       9.53673188       0.00856664      -0.01420843      -0.01916011
H        7.28856420       3.33477002       7.22885678      -0.00388464       0.01091804      -0.00822654
O        3.39594187      10.00394688      -0.17742497       0.00382060      -0.01395728      -0.00655813
C        4.56016486      10.11842418       0.63423224      -0.00393602       0.00269864       0.00315605
H        4.68097093       9.24751798       1.29216066      -0.01782895       0.01889253       0.02525793
H        4.54848566      11.02825756       1.23991708      -0.00779057       0.01720756      -0.01914944
H        5.42049596      10.15611303      -0.03243400       0.00318369      -0.01654274       0.01389733
H        2.63673176      10.27870232       0.34283746       0.00297624       0.00218056      -0.02654971
O        8.25552583       7.55330487       8.61836492       0.01628500       0.01253080      -0.02346528
C        7.18671118       7.23338833       7.74242233       0.00720575       0.00249607      -0.00758189
H        7.48421140       6.53647684       6.95795104       0.00078230       0.00466254      -0.01218066
H        6.83682458       8.15137516       7.25704368      -0.00480673       0.00081199      -0.00172526
H        6.34238000       6.78971499       8.28358482       0.01711082      -0.00270259       0.00352350
H        8.96805924       6.90635838       8.46661633       0.00675283      -0.00272946      -0.00615508
O        1.70240963       4.89519277      12.36229072      -0.00692415       0.00396627       0.00288722
C        0.72584671       3.91036387      12.00316106      -0.00960275       0.00712589       0.00112269
H        0.82360213       3.01710899      12.62458264      -0.02295412       0.01268327       0.01125769
H        0.82881868       3.62774793      10.95167993      -0.00013985      -0.00462636       0.00547263
H       -0.25977047       4.34872150      12.15055215      -0.00789437       0.01476356      -0.01436428
H        2.51231937       4.41767779      12.62911630      -0.00989926       0.00236252       0.00609908
O        3.39939212       8.11719311       6.04668279       0.01856738      -0.00208069       0.00664737
C        2.60217009       9.09819858       5.38237843       0.00566068      -0.00344005       0.00737232
H        2.86211902       9.17782849       4.32233908       0.00420564      -0.00574324       0.00650752
H        2.70018721      10.07687708       5.85910271       0.01237449      -0.00269797       0.00588685
H        1.57095276       8.76516764       5.48213498       0.00828093      -0.00011450       0.01208215
H        4.31990924       8.39658890       6.03176354      -0.00055248      -0.00670716       0.00749612
O        7.22449617       8.05834187      12.76061831       0.00456232       0.01048090       0.01141602
C        6.22536524       7.49142776      11.92153068       0.00157343       0.01136252       0.00599438
H        5.22484773       7.58278821      12.35669189       0.00176728       0.01814868       0.00557202
H        6.42608154       6.43931733      11.69120245      -0.00159794       0.00808629       0.01722373
H        6.24993218       8.04487351      10.98445368       0.00515949       0.00254633       0.00372195
H        7.24011621       7.57409179      13.59025984       0.00299603       0.02388407       0.00113431
O       11.05518860      11.76722398       1.48189302      -0.00130045      -0.00526692      -0.00420860
C        9.93653796      12.13685529       2.32824155       0.00803812      -0.00029556       0.00492339
H        9.37954202      12.93656612       1.84983988       0.01308516       0.00832115       0.01369444
H       10.31105092      12.48771633       3.28808404       0.01732774      -0.01044297       0.00487241
H        9.29962057      11.26634353       2.47874654       0.00022592       0.00537255       0.00358202
H       11.52001052      10.89574957       1.82696074      -0.00317396      -0.00900906      -0.01013176
O        0.35584981      12.18973315       3.66356179      -0.00623679       0.00476938      -0.00436604
C        1.45853742      11.71304219       2.88097343      -0.00624353      -0.00080712       0.00055578
H        1.20784819      10.75481646       2.41938780      -0.00716200      -0.00080419       0.00105396
H        2.36383948      11.61673098       3.48609334      -0.00761631      -0.00181339       0.00243405
H        1.63679915      12.44757904       2.09875291      -0.00237032      -0.00197059      -0.00055930
H        0.15084682      11.54588970       4.34707959      -0.01075182       0.00507206      -0.00153854
O        3.92635557       0.66447646       1.48788533       0.00714704       0.00758693       0.00279677
C        4.37694797       0.78102608       2.83287842       0.00540489       0.00160149      -0.00405762
H        3.55865887       0.63673609       3.54851272       0.00671020       0.00104084      -0.00054723
H        4.83886388       1.75186444       3.02986813       0.00854230      -0.00022292       0.00303917
H        5.13349193       0.01810007       3.00925689       0.00373167       0.00029966      -0.00363399
H        3.57695099       1.51834808       1.20769495      -0.00252143       0.00317150       0.00699466
O       10.75772159       2.52412378       4.35261176       0.00350797       0.01270032      -0.00604375
C       10.68691890       3.57792827       5.30412286       0.00845884       0.00431331       0.00348750
H       11.50955235       4.28807309       5.18442220       0.01181257       0.00154600       0.00925710
H       10.70018588       3.19620008       6.32887259       0.00735896      -0.00485070       0.00011486
H        9.74713832       4.10709944       5.14775881       0.01064828       0.00977002       0.00905771
H       11.67150671       2.16414612       4.32647508       0.00152938       0.00740246      -0.00638784
O        3.11311615      -0.47855942       8.55818045      -0.00284404      -0.00035775      -0.00353673
C        2.34524292       0.18384521       9.55269839      -0.00261600      -0.00516913       0.00023308
H        1.93563373       1.13275848       9.18782194      -0.00521554      -0.00482085       0.00391327
H        2.92365755       0.37027217      10.46358824      -0.00106451      -0.00675090      -0.00036338
H        1.51770352      -0.47597967       9.80694629      -0.00066346      -0.00767480      -0.00026056
H        3.87430315       0.06948578       8.35230483      -0.00478356       0.00186446      -0.00319359
O        3.43542131       5.65364067       4.81031036       0.00363621      -0.00006121      -0.00223953
C        2.41957988       4.73817991       5.19161971       0.00029789       0.00639355       0.00435700
H        1.51352006       4.88714144       4.59533792      -0.00192529       0.01105669       0.00892618
H        2.17723703       4.82837315       6.25210178       0.00675857       0.00918783       0.00555292
H        2.78961213       3.72937704       5.00660273      -0.00671172       0.00384447       0.00335825
H        3.31180801       6.49069397       5.29794625       0.00983618       0.00084638      -0.00096773
O        1.79436094       6.64685817      10.04312492       0.00568002      -0.00291806      -0.00133535
C        3.09939291       7.20967948      10.17827056       0.00603375      -0.00211741      -0.00541007
H        3.86031496       6.42846518      10.25283849       0.00559118      -0.00167784       0.00358864
H        3.15557482       7.88041055      11.04114280       0.00545273       0.00649923      -0.01214889
H        3.30004789       7.78025491       9.27291056       0.00755580      -0.01192185      -0.01113808
H        1.64938453       6.08759248      10.82145188       0.00439076       0.00356701       0.00267668
O       10.29629827       5.64196209       8.31876419      -0.00572294      -0.00768340       0.00309584
C       11.56932348       5.97620466       7.77447616      -0.01518703       0.00891181      -0.00836924
H       12.24452621       5.11237770       7.79480753      -0.00300750       0.01874620      -0.01272230
H       12.04077620       6.80185774       8.30934896      -0.02225906       0.01657271      -0.01429909
H       11.43046178       6.28152716       6.73825512      -0.02934430       0.00378773      -0.00772861
H       10.44161308       5.53143172       9.28428912       0.00223798      -0.00473116       0.00210622
O        6.16723138       5.62855640       4.91756243       0.00470977      -0.01824975      -0.00944191
C        6.24578498       6.55452464       3.85400543       0.01354010      -0.00559410       0.00250182
H        5.54987332       7.39352917       3.98511464       0.01391932      -0.00613222       0.00747826
H        6.01783713       6.08718877       2.88617055       0.02053459       0.00651917      -0.00497195
H        7.25686406       6.95916516       3.81758764       0.01407033      -0.00623685       0.01491336
H        5.21964884       5.43132756       5.03341432       0.00262307      -0.01095710      -0.01190260
O       -0.03791592       1.56908366       4.03778095       0.00113782       0.00496185      -0.00337830
C        0.76984300       2.14703825       3.01833818       0.00054289       0.00551742      -0.00354929
H        0.69219080       1.59168720       2.07808311      -0.00374114       0.00843967      -0.00501364
H        1.82033558       2.18130924       3.32032176       0.00156230       0.00170200      -0.00644340
H        0.42738636       3.16821653       2.85366050       0.00332028       0.00710076       0.00017369
H        0.10291849       0.60240509       4.01832818      -0.00132354       0.00428005      -0.00575989
O       11.11439630      -0.59976465       9.94699506      -0.00983742      -0.02149348       0.00373245
C       11.77106439       0.50823520       9.31499321      -0.00966875      -0.02159610       0.00291005
H       11.05318082       1.26976162       9.00794896      -0.01035267      -0.02303958       0.00088598
H       12.32390531       0.15806594       8.44258999      -0.00915006      -0.02316114       0.00384638
H       12.46196935       0.94854444      10.03135668      -0.01041782      -0.01980054       0.00259770
H       10.22160361      -0.79775447       9.48701030      -0.01357049      -0.01756219       0.00344713
O        8.47078459       9.48113219       3.81923250       0.00481057       0.00251341       0.00400944
C        7.17000749      10.01939400       3.95581132       0.00495762       0.00310388       0.00322627
H        6.58857392       9.71746776       3.08219035       0.00374986      -0.00178713       0.00564209
H        7.17322909      11.11326366       4.00928832       0.00448619       0.00332689      -0.00262246
H        6.66293438       9.63300057       4.85071123       0.00606367       0.00778817       0.00608450
H        9.04111102       9.91060423       4.49476539       0.00651576       0.00464468       0.00134660
O        4.47258809       4.66568212       8.26973561       0.00109702       0.00187606       0.00585298
C        3.57537771       3.61812567       8.55055933      -0.00068617       0.00350532       0.00647072
H        3.82928270       3.08550771       9.47916876       0.00097287       0.00083038       0.00454941
H        3.52256886       2.87963120       7.73799539      -0.00514010       0.00536010       0.00495484
H        2.58429561       4.05612011       8.67688539       0.00080487       0.00590396       0.01057900
H        5.36109574       4.28156804       8.16937570      -0.00000048      -0.00027598       0.00249392
O        8.80312903      12.33445164       8.93259303      -0.00365964      -0.00479957       0.00205107
C        8.04914405      11.13212087       9.10424934      -0.00067174      -0.00732903      -0.00088217
H        8.58765250      10.24851556       8.75668818       0.00284165      -0.00514865      -0.00069930
H        7.10860944      11.20979837       8.55411525       0.00030163      -0.00917294      -0.00303955
H        7.81785026      10.99750852      10.16063103      -0.00247329      -0.00846147      -0.00133646
H        8.76404659      12.53653097       7.92369570       0.00388613      -0.00504841       0.00092840
O       10.08122041      10.80724664       5.58065967       0.01529363       0.00039771      -0.00137523
C       10.56818135      10.08144438       6.70193000       0.00312120      -0.00857383      -0.00181600
H       10.69878375      10.73900204       7.56594856       0.02130805      -0.01126403      -0.00277367
H       11.54205976       9.65037681       6.45752906      -0.00794873      -0.02967936      -0.00540027
H        9.89611592       9.26501370       6.98789588      -0.01299769       0.00680345       0.00199682
H        9.51343149      11.55515129       5.92495877       0.01807433       0.00135740      -0.00031516
O       10.62953805       5.51036311       1.22654593       0.01872993       0.02357221      -0.00722899
C       11.91028055       5.43044197       1.83208438       0.00983679       0.00403126       0.00923398
H       12.57892972       4.75319690       1.29032408       0.00523025      -0.00437534       0.01505540
H       11.85011039       5.10007720       2.87449681      -0.00934271       0.00320409       0.00732982
H       12.36443924       6.41757709       1.81034508       0.02321771      -0.00216565       0.01643075
H       10.21927063       4.63249504       1.35357644       0.00739024       0.02697581      -0.01791989
O       10.60222129       2.83553275      11.38297162      -0.00605421      -0.00205216      -0.00635481
C        9.30358910       2.49587928      10.88443958      -0.00706905      -0.00030893      -0.00503013
H        8.52334903       2.74677784      11.60824805      -0.00607212       0.00194674      -0.00459005
H        9.23988815       1.43470473      10.63232801      -0.00930479      -0.00057316      -0.00363399
H        9.14530693       3.08332699       9.98133054      -0.00654210      -0.00111020      -0.00565097
H       10.70837529       2.44490968      12.25611982      -0.00213304      -0.01077157      -0.01071298
O       10.67838587       5.52990513      10.98310558      -0.00546685      -0.00086421       0.00304732
C        9.41361217       6.01659326      11.44930925      -0.00551257       0.00512923      -0.00395222
H        9.28958641       5.80520213      12.51269411      -0.01206797       0.00869868      -0.00386983
H        8.58859334       5.57599493      10.88100846      -0.00487894       0.00693594      -0.00631529
H        9.38908458       7.09231252      11.29711148      -0.00006863       0.00505650      -0.00520057
H       10.73896026       4.58609607      11.22552361      -0.00983317      -0.00126775       0.00297399
