195
Lattice="13.22360764016079 0.0 0.0 0.0 13.22360764016079 0.0 0.0 0.0 13.22360764016079" Properties=species:S:1:pos:R:3:forces:R:3 energy=-114908.953125 stress="-0.0003004690515808761 0.00011684403580147773 0.00011794235615525395 0.00011684403580147773 -0.0011133808875456452 0.0004003505455330014 0.00011794235615525395 0.0004003505455330014 0.00016778806457296014" pbc="T T T"
Be      12.14119870      14.49209132      -1.35486786      -0.01006633       0.00180380       0.01351082
P        9.05180977       9.22725643       6.45027057      -0.00988534       0.00570574       0.01345475
O        8.82171855       8.01864638       7.51754512      -0.01246893       0.00902385       0.01977944
O        9.42093745       8.49208273       5.09189839       0.00704265       0.00048649       0.02303827
O        7.72647691       9.94325199       6.28776312      -0.00482893      -0.00035155       0.00275010
O       10.21121623      10.00496682       6.96672854      -0.01401335       0.01061219       0.02137384
H        8.06117554       7.48119733       7.27075365      -0.00921190       0.00492299       0.01509677
H        8.61125919       8.02445295       4.69290749       0.00574430       0.00054269       0.01257924
P        6.21335149       8.15804529       3.57651238       0.04561064      -0.00089222       0.00649433
O        6.40375911       9.65150915       4.12965462       0.00633655      -0.00039285      -0.00108659
O        6.52459063       8.37533246       1.99604313       0.01053822       0.00296253      -0.00205839
O        7.32160103       7.30410181       4.17974593      -0.00464529       0.01444542      -0.01151082
O        4.82634511       7.66431060       3.69496491       0.00094676       0.00003833      -0.00623217
H        6.91237931       9.72605549       5.01842107       0.00830941       0.00254298       0.00474496
H        7.17249532       9.09818184       1.85252765       0.00956137       0.01663647      -0.00196922
O       10.25616213       6.32002580       1.53930325      -0.00370899      -0.00210398       0.00687850
C       10.94409455       7.22582550       2.41717051      -0.00502366      -0.00078408       0.00691491
C       11.84114044       6.46924947       3.38113143      -0.00608823      -0.00021315       0.00832003
C       11.70158297       8.27551921       1.62428678      -0.00360751      -0.00321639       0.00510103
H       10.14763366       7.70274485       2.98633452      -0.00523245       0.00013342       0.00503272
H       12.29413353       7.14761616       4.10446428      -0.00396681       0.00087741       0.00595255
H       11.25926472       5.72208690       3.92212266      -0.00741991       0.00297329       0.01104942
H       12.64910473       5.96382883       2.83993477      -0.00808263      -0.00395093       0.00890133
H       12.18841350       8.98193086       2.29843205      -0.00255415      -0.00266403       0.00358635
H       11.02649862       8.82746658       0.97360579      -0.00289173      -0.00361234       0.00400655
H       12.47828009       7.82040851       1.00431183      -0.00427075      -0.00543770       0.00601545
H       10.91218100       5.81069221       1.05195682      -0.00354832       0.00267509       0.00327593
O       12.47582507       2.51542201       5.33398572       0.00019991      -0.00068331      -0.00015169
C       12.54841000       1.79286908       4.09329508       0.00275695       0.00030434      -0.00043339
C       12.56999051       0.32440213       4.45478671       0.00909388       0.00041854      -0.00086278
C       11.40069566       2.16784990       3.18135723       0.00090176      -0.00404984       0.00000778
H       13.49001694       2.04348842       3.59583830       0.00156939       0.00448196      -0.00060821
H       12.65646056      -0.28205966       3.55327791       0.00799276       0.00069184      -0.00113003
H       13.41819215       0.09746879       5.10100311       0.01172851       0.00296118      -0.00355850
H       11.65398971       0.04665621       4.97712220       0.01160035      -0.00208190       0.00193267
H       11.48084627       1.65885177       2.21601353       0.00319644      -0.00258754      -0.00048801
H       11.38844906       3.23973100       2.97549792      -0.00360579      -0.00395712       0.00084084
H       10.44444754       1.91168771       3.63846137       0.00222860      -0.00926808      -0.00051346
H       12.40522594       3.45098836       5.12343183      -0.00077039      -0.00060572       0.00029574
O        9.00866453       3.76760692       1.74965178       0.00487787      -0.00045463      -0.02296394
C        7.77024667       3.21006474       2.20922101       0.00703377       0.00731212      -0.01008923
C        6.58825809       3.90028200       1.55511538       0.00444877       0.00940302      -0.00300795
C        7.81127034       1.73175687       1.89592329      -0.00309883       0.00586355      -0.00317742
H        7.67918742       3.34311866       3.29092334       0.01701946       0.01285240      -0.01022482
H        5.67081996       3.36282781       1.79566927       0.00405797       0.01660467       0.00935081
H        6.48167547       4.92760982       1.90907742       0.01329418       0.01225850      -0.00910760
H        6.72063834       3.91347399       0.47295331      -0.00630860       0.00216398      -0.00414830
H        6.91637915       1.24104409       2.28043849       0.00070091       0.01122379       0.01132331
H        8.68881612       1.27784596       2.34987225       0.00136137       0.00451383      -0.01353355
H        7.87052616       1.56133342       0.82085592      -0.01892968       0.00069819      -0.00297453
H        9.04358435       4.70947695       1.96619676       0.01359157      -0.00114376      -0.01893860
O        7.77593626      10.77154757       1.98623671       0.00534946       0.01018464       0.02672313
C        9.09545165      11.06227102       2.48471653       0.00819150       0.00551242       0.01464526
C        9.85591151      11.75768171       1.37736469       0.00454855      -0.00615942      -0.00103080
C        8.97783925      11.88507998       3.75066960       0.02493089       0.01017511       0.01344621
H        9.59730031      10.11734963       2.72968996      -0.00117719       0.00070268       0.02066721
H       10.85878477      12.02815947       1.71100961       0.01115207      -0.01944485      -0.00867981
H        9.95047057      11.11216180       0.50453822      -0.02407384      -0.02524579       0.01040219
H        9.33991307      12.66970448       1.07641060       0.00178793      -0.00578946       0.00224103
H        9.96191901      12.14635743       4.13458155       0.02941915      -0.00470493       0.00873522
H        8.46273843      11.32302578       4.52947420       0.02022085       0.02391094       0.02112515
H        8.41535531      12.79645099       3.54938877       0.03958935       0.01855831       0.01311959
H        7.20687366      10.67681521       2.77316819       0.00916924      -0.01073558       0.03290370
O        4.30758170       1.83502480       3.46377121       0.00202489      -0.00268000       0.00270328
C        3.38403440       2.89608407       3.23001417       0.00277406      -0.00178081       0.00727339
C        2.46798137       2.55398375       2.05852769       0.00172156       0.00309551       0.00689250
C        2.62489334       3.23997338       4.50210878       0.00405082      -0.00485095       0.00878102
H        4.00452204       3.75479388       2.97124007       0.00330266      -0.00094926       0.00968413
H        1.73857842       3.34279828       1.87026369       0.00168673       0.00388592       0.01056813
H        3.04658090       2.40665640       1.14448189       0.00074133       0.00615695       0.00587583
H        1.92291803       1.63113344       2.26182361       0.00157496       0.00255115       0.00413471
H        1.93010223       4.06636044       4.33286763       0.00628225      -0.00221734       0.01244247
H        3.32967119       3.54092024       5.27653764       0.00493060      -0.00977747       0.00986362
H        2.05102661       2.38383937       4.86218021       0.00172108      -0.00468574       0.00537002
H        3.78722817       1.02983998       3.61343643       0.00167869      -0.00307952       0.00008508
O        6.64802673       4.72635475       4.80561263       0.00002241       0.00521221      -0.00295198
C        7.21039688       4.56358096       6.08641794      -0.00222427       0.00178663      -0.00213045
C        8.72826252       4.72868335       6.05936589      -0.00214458       0.00409752       0.00060101
C        6.53860991       5.51624524       7.07191197      -0.00369132       0.00026071      -0.00062436
H        6.97878930       3.53190000       6.37852611      -0.00198512       0.00234109      -0.00528431
H        9.16663688       4.56299968       7.04754848      -0.00402389      -0.00168481       0.00048865
H        9.16867170       4.01557013       5.36010521      -0.00062442       0.00721717      -0.00166008
H        8.99822219       5.73608344       5.73757015      -0.00232294       0.00517902       0.00613739
H        7.02216753       5.51904416       8.05277182      -0.00448307      -0.00322523      -0.00014159
H        5.48769557       5.25577674       7.19517105      -0.00376809      -0.00072568      -0.00211535
H        6.55486267       6.52648577       6.65465718      -0.00315197       0.00093931       0.00247508
H        6.82480211       5.65467344       4.52708560       0.00478060       0.00539276      -0.00250034
O       11.59843394       1.13892241      10.52633316       0.00826491       0.00043121       0.00376260
C       12.33005414       1.40311097       9.27966297       0.00567964      -0.00468723      -0.00071359
C       11.52620294       0.87337484       8.11588489       0.00522140      -0.00752358      -0.00028861
C       12.62497941       2.88311294       9.17163604       0.00683829      -0.00533879      -0.00464229
H       13.27003581       0.84987079       9.35539510       0.00502628      -0.00528032      -0.00114458
H       12.07894937       1.03998419       7.19384218       0.00615419      -0.01078711      -0.00101849
H       11.31716229      -0.19285215       8.21554563       0.00406256      -0.00739697       0.00165825
H       10.58394213       1.41699198       8.01169989       0.00603591      -0.00658958      -0.00294949
H       13.16736858       3.08695196       8.24758599       0.00707240      -0.00617164      -0.00463334
H       13.23455073       3.21922178      10.01312950       0.00635094      -0.00538733      -0.00483866
H       11.69854979       3.46148586       9.15620911       0.00698933      -0.00533706      -0.00507199
H       10.16793244       0.88159773      10.34530080       0.00303084      -0.00597244      -0.00093998
O        9.12942771       0.88396329      10.24932396       0.00419876      -0.00821376      -0.00311932
C        8.66532022       2.28471818      10.16162581       0.00240463      -0.00881249      -0.00875966
C        7.41431514       2.34379827       9.31981913       0.00173363      -0.01318333      -0.00776766
C        8.47638274       2.78857890      11.56847077       0.00347286      -0.00217250      -0.01100868
H        9.47562500       2.82834582       9.66905564       0.00160214      -0.01061201      -0.01200275
H        7.09530815       3.38390330       9.24305890       0.00199683      -0.01358658      -0.01316148
H        7.58053081       1.96831554       8.31095597       0.00059530      -0.01872826      -0.00581414
H        6.60818845       1.77342547       9.78272043       0.00190109      -0.01013228      -0.00379118
H        8.24580123       3.85244565      11.55835378       0.00337858      -0.00219509      -0.01607169
H        9.37399801       2.64898145      12.17381885       0.00386053       0.00121147      -0.01070990
H        7.64900331       2.26933858      12.05093075       0.00393839       0.00032017      -0.00770920
H        8.66007724       0.14097229       9.61724028       0.00489749      -0.01252998      -0.00096667
O       12.56864727       8.80369694       7.79748747      -0.00158030       0.01817214       0.00289312
C       12.06970999       7.69021302       8.52586687       0.00295799       0.01258761      -0.00255841
C       13.25698789       6.86007704       8.97360282       0.00626159       0.01184219      -0.01446980
C       11.22401788       8.14639381       9.70744709       0.00853825       0.00450328       0.00397688
H       11.43345378       7.08040370       7.86792606       0.00031340       0.01703733      -0.00389761
H       12.92104244       5.98075496       9.52710802       0.00988284       0.00750910      -0.01967971
H       13.84781966       6.53519364       8.11706377       0.00275234       0.01976701      -0.01978992
H       13.89926519       7.44523796       9.63472427       0.00885973       0.00797397      -0.01369779
H       10.81101843       7.28546208      10.23915556       0.01049810       0.00202542       0.00091939
H       10.39429472       8.75745262       9.35549287       0.00723232       0.00680117       0.01178311
H       11.83596087       8.72751955      10.40086241       0.01195736      -0.00070541       0.00499963
H       11.78970852       9.28234552       7.43492194      -0.00463377       0.01786964       0.00836183
O        1.50254036       6.63336260      -0.06925873       0.00725168      -0.00133017       0.00485170
C        2.55617112       7.06933866       0.81499281       0.00491460       0.00067941       0.00508541
C        2.08576872       8.17864923       1.73583742       0.00123093      -0.00159824       0.00629771
C        3.10507070       5.91182499       1.61465550       0.00827125       0.00185227       0.00590539
H        3.32382659       7.45906134       0.14176414       0.00433218       0.00294259       0.00649834
H        2.92511767       8.52086358       2.34238935      -0.00135043      -0.00067840       0.00842702
H        1.66344089       9.00226989       1.16170589       0.00126969      -0.00114174       0.00621703
H        1.32397237       7.80657512       2.42336341      -0.00005420      -0.00356186       0.00339653
H        3.92002199       6.24939887       2.25785869       0.00725693       0.00306587       0.00418517
H        3.43835758       5.10457509       0.96452827       0.00947431       0.00230363       0.00505070
H        2.31928976       5.52497147       2.27131183       0.00935380      -0.00015728       0.00571175
H        0.92526923       6.06517350       0.44946077       0.00526262       0.00040528       0.00531873
O        7.90114074      12.38371651       9.01892501       0.00624576      -0.01382512      -0.00003010
C        7.35054506      11.45157562      10.02409506       0.00180510      -0.01039441       0.00053588
C        6.48448723      12.25004328      10.97149110       0.01201814      -0.00439435       0.00443026
C        6.58299069      10.36224495       9.32282832      -0.01020905      -0.00219041       0.00149596
H        8.20590251      11.03254666      10.56165467      -0.00075766      -0.01933321      -0.00251171
H        6.11244888      11.57897847      11.74575769       0.00843632      -0.00202231       0.00445342
H        7.03467196      13.05234175      11.46217997       0.01998472      -0.00957724       0.00372300
H        5.62693146      12.66955614      10.44207543       0.01436098       0.00375586       0.00727470
H        6.18264586       9.67425845      10.06803410      -0.01542795       0.00174765       0.00193964
H        7.21232887       9.81011740       8.62604034      -0.01667680      -0.00795663       0.00062001
H        5.75358225      10.78964534       8.75876211      -0.00646603       0.00645983       0.00280139
H        8.28942971      11.86286470       8.29674235       0.01351881      -0.01611364       0.00538939
O        2.74397323      12.70067838       3.09742959      -0.00161123       0.00008768      -0.00174522
C        3.44188193      12.41706377       1.86205152      -0.00401536       0.00141922      -0.00358385
C        4.51186813      11.37891523       2.10869628      -0.00280631       0.00196338      -0.00707524
C        2.45220534      12.03945757       0.77667955      -0.00646323       0.00326584      -0.00174963
H        3.91537303      13.36499659       1.60004650      -0.00488967       0.00206250      -0.00352155
H        5.09870822      11.18589443       1.21025915      -0.00480095       0.00344042      -0.00847340
H        5.18911786      11.71906539       2.89113775      -0.00074628       0.00026266      -0.00874263
H        4.07922247      10.42933096       2.43323920      -0.00220555       0.00098316      -0.00794297
H        2.97479285      11.86209963      -0.16539704      -0.00877951       0.00320072      -0.00296320
H        1.71683913      12.83208975       0.61889285      -0.00555632       0.00425096       0.00015321
H        1.92408954      11.12449332       1.04655324      -0.00761464       0.00381310      -0.00134854
H        2.63217631      11.86581149       3.56457003      -0.00047627      -0.00008616      -0.00253993
O        3.16417993       2.87552266      10.57083201      -0.01393348       0.00017780      -0.00655648
C        3.34607017       4.24748996      10.95545191      -0.00852063      -0.00148410      -0.00426511
C        4.62359185       4.41334573      11.75610020      -0.00618559      -0.00699105      -0.00704494
C        3.32083573       5.15996159       9.74450625      -0.00897802       0.00122601      -0.00211006
H        2.48895333       4.46807477      11.59491402      -0.00620365      -0.00013739      -0.00150040
H        4.74077479       5.44099190      12.10627787      -0.00267544      -0.00816926      -0.00479210
H        4.63288887       3.74761823      12.61742629      -0.00601577      -0.00910026      -0.00856699
H        5.49113513       4.17546668      11.13283349      -0.00824047      -0.00769452      -0.00962389
H        3.35160543       6.20628083      10.04968494      -0.00433509       0.00042072      -0.00016313
H        2.42236556       4.99706353       9.15103992      -0.01129991       0.00565720       0.00026307
H        4.19489825       4.97371690       9.11385503      -0.01162435      -0.00051747      -0.00524540
H        3.85749678       2.66523082       9.93792301      -0.01751591      -0.00018244      -0.01076996
O        1.89916066       8.68743628       6.24126960      -0.01479936       0.00464439      -0.02352957
C        3.22866224       9.17000298       6.39740838      -0.01463562      -0.00002947      -0.01551729
C        3.26278992      10.64943982       6.75876331      -0.01140667      -0.00041479      -0.01372230
C        4.03167463       8.34632259       7.39741277      -0.02302676      -0.00354493      -0.01227158
H        3.68644708       9.02408493       5.41632260      -0.00946483      -0.00042354      -0.01332515
H        4.28533144      11.02869852       6.70933905      -0.00991744      -0.00322777      -0.00306426
H        2.64483898      11.23200151       6.07372702      -0.00506127       0.00200650      -0.01734747
H        2.88630291      10.81187390       7.77299982      -0.02021409      -0.00122530      -0.01687804
H        5.08512374       8.63637499       7.35979999      -0.02305731      -0.00376321      -0.00289705
H        3.95704789       7.28802648       7.15269910      -0.02097379      -0.00291696      -0.01591474
H        3.67144615       8.49916051       8.41862583      -0.03159471      -0.00632216      -0.01515070
H        1.33565576       8.91561470       6.99532350      -0.01720916       0.00388117      -0.02363138
O        6.37440809       8.27433112      12.29893769      -0.00893241      -0.00479034       0.00041133
C        7.68752112       7.92394669      11.86670383      -0.00795150       0.00024283       0.00147123
C        8.74081196       8.80378772      12.51766642      -0.01039773       0.00026703       0.00568485
C        7.97030320       6.45192252      12.11001133      -0.00434376       0.00008422      -0.00318074
H        7.68565744       8.10780508      10.78781760      -0.00713762       0.00386554       0.00194871
H        9.72059607       8.62566797      12.07138530      -0.01053600       0.01014934       0.00108635
H        8.48372048       9.85614840      12.40652177      -0.01768171      -0.00041784       0.01517279
H        8.81155505       8.58037265      13.58292324      -0.00578067      -0.00857159       0.00343157
H        8.94629701       6.17715906      11.70321031      -0.00306423       0.00368233      -0.00246266
H        7.20074071       5.84365501      11.63549545      -0.00198531      -0.00023046      -0.00652402
H        7.98441983       6.23409123      13.17887995      -0.00603702      -0.00326803      -0.00412679
H        6.33280953       8.16949986      13.26356576      -0.00658554      -0.00229730       0.00293436
