196
Lattice="13.524412446623574 0.0 0.0 0.0 13.524412446623574 0.0 0.0 0.0 13.524412446623574" Properties=species:S:1:pos:R:3:forces:R:3 energy=-1706540.5 stress="-0.0033221563789993525 -0.0005338991468306631 -0.00033550885564181954 -0.0005338991468306631 -0.001396197360008955 -7.268312037922442e-05 -0.00033550885564181954 -7.268312037922442e-05 -0.0009238656493835151" pbc="T T T"
Bk      13.66625646      11.82096606       0.92037152      -0.00047317      -0.00478236       0.00142503
I        2.24700113      11.75788968      11.16155878      -0.00247025       0.01555695      -0.00206918
O        1.15635055      11.31308698      12.54371916      -0.00020307       0.00347228      -0.00542918
O        1.40472748      12.93343785      10.11813229      -0.00750104       0.01950735       0.00766793
O        3.73884336      12.42133519      11.85900525      -0.00314021       0.01683643      -0.00169194
O        2.61972742      10.28228259      10.24370982       0.00081304       0.02177036      -0.01216492
I        2.16577826       8.38501324       1.62216151       0.00926194       0.00275823      -0.00548753
O        3.68646566       8.49667685       2.54225153       0.01679319       0.00633499      -0.01901084
O        1.03471079       7.38320102       2.57841327       0.01683944       0.00581935       0.00581369
O        1.47576344      10.05268097       1.52850699       0.00748947       0.00144529      -0.00443561
O        2.37495285       7.73017944      -0.01727179      -0.00395513      -0.00098985      -0.00631863
I       10.29524894      12.59692481       3.02626038      -0.00501839      -0.00477289      -0.00371559
O        8.71370369      12.58301456       2.22175961      -0.00620401      -0.01330230      -0.00173315
O       10.61256636      13.95074211       4.13679789      -0.00896426       0.00249618      -0.01197374
O       10.47345021      11.06281581       3.92986905       0.00007727       0.00079226       0.00461617
O       11.59500141      12.63974317       1.75402056      -0.00586259      -0.01000582      -0.00417474
O       13.18889738       1.88979483      11.38927278      -0.01462705      -0.01711750       0.02730817
O       12.18778779       0.05737565      10.65437391      -0.01072708      -0.01589574       0.02081588
O       12.96392730       0.12870268      12.76122223      -0.02071723      -0.01751085       0.02467173
C       13.04389792       2.11615774       9.98552485      -0.00014031      -0.01904428       0.02519647
C       12.28938363       0.88332039       9.49099439      -0.00429806      -0.01510343       0.02210656
C       12.80294426       0.64043151      11.68410582      -0.01601380      -0.01536068       0.02276140
H       14.03593115       2.18906392       9.54401003       0.00503457      -0.02756030       0.03625116
H       12.49533580       3.04675603       9.83800617       0.00735950      -0.01576275       0.01928110
H       11.28217033       1.10811212       9.14198673      -0.00275469      -0.01095700       0.02034663
H       12.84184292       0.33138057       8.73422166      -0.00388110      -0.01675993       0.02364692
O        9.86303618       2.35536479      12.73797868       0.00774929       0.00265627       0.00750366
O        8.48826007       3.28569208      14.22659514       0.00447790      -0.00690538       0.01006082
O        8.26457404       1.10430815      13.73830131       0.00835222      -0.00412953      -0.00121553
C       10.37284120       3.68124005      12.94743515       0.00644088       0.00198957       0.01395386
C        9.23797093       4.38390634      13.68108773       0.00883493      -0.00311208       0.02330601
C        8.81820644       2.14296094      13.58270149       0.00708181      -0.00272775       0.00478664
H       10.59954605       4.11871514      11.97551572       0.00205606       0.00850253       0.01622003
H       11.28523065       3.61703145      13.54134046       0.00876695      -0.00073966       0.00996804
H        9.57390159       5.01655369      14.49552794       0.01298769      -0.01650992       0.03181335
H        8.58538870       4.95210682      13.01910294       0.01100123       0.00897619       0.03162384
O        9.68768226       5.86369069       7.47524508       0.01707505       0.00007284       0.00756956
O       10.43395718       7.59390424       6.30041026      -0.01282303      -0.00054560      -0.01240826
O        8.81669730       7.91071380       7.82891368       0.00013000      -0.00568008       0.00320172
C       10.55111811       5.31117238       6.44303264       0.01195081       0.00111264       0.00268454
C       11.36960469       6.51872173       6.06246839      -0.00485224       0.00713345      -0.01585928
C        9.57795876       7.19062200       7.25115118       0.00303322      -0.00373119      -0.00127164
H        9.92883788       4.94351615       5.62997555       0.00671050      -0.01232731       0.01252535
H       11.12397573       4.49403040       6.87277873       0.02610601       0.01155779       0.00310977
H       12.21735507       6.67186026       6.73226874       0.00120252       0.02008770      -0.02659822
H       11.66145543       6.53671569       5.01694702      -0.01711237       0.00262869      -0.01943749
O        6.46336456      12.51562945      11.15903251       0.01889536      -0.00048742       0.02132827
O        8.22695164      12.07595279       9.88650850      -0.00660560       0.01106435      -0.01837453
O        8.05192698      14.07681702      10.88686964       0.00913817       0.00429678      -0.00486958
C        6.20978188      11.18272880      10.66764150       0.00344449       0.00843125       0.00584033
C        7.39892489      10.90109107       9.75362446       0.00261596       0.00226474       0.00591195
C        7.61420509      12.98174843      10.67351378       0.00779864       0.00581479      -0.00072265
H        5.26044626      11.18166394      10.14210867       0.00484097       0.02657143       0.00307307
H        6.15281888      10.50590722      11.51482604      -0.00766411      -0.00018340      -0.00181800
H        7.97880923      10.03654259      10.06521966       0.01150221       0.01296133       0.01994185
H        7.11479815      10.79659761       8.70842963      -0.00069092      -0.01869668       0.00921303
O        3.89238411      11.14933816       0.99281080       0.00507246       0.01747540      -0.00022774
O        4.50316879      13.20077422       1.51574174      -0.00820279       0.02013347       0.00438215
O        2.32412007      12.70143277       1.39919275      -0.00467467       0.00750014      -0.00341949
C        5.33657799      11.07947763       1.11476589       0.00459609       0.02525562       0.00874699
C        5.73402255      12.54464091       1.08111792      -0.00334215       0.02683640       0.00826640
C        3.49677993      12.37324391       1.30011350      -0.00296921       0.01503554       0.00009307
H        5.71009453      10.48301600       0.28745551       0.01333052       0.02633521       0.01205474
H        5.54874169      10.58656278       2.06347578       0.00127886       0.02846739       0.01098186
H        6.52953970      12.81079668       1.76987685      -0.00639173       0.03139950       0.00964269
H        5.95146919      12.90598496       0.07820784      -0.00257010       0.02606241       0.00835848
O        4.57910965       1.69369199      12.79933147      -0.00206727       0.00443920       0.00106530
O        3.59799103       3.48936009      11.92743568       0.01558186       0.00994807      -0.00644879
O        2.37691765       1.65074531      12.34307311      -0.00179279       0.02421671       0.00037493
C        5.65240207       2.64344954      12.66304691       0.00650468      -0.00565103      -0.00055641
C        4.98069819       3.87704028      12.05723911       0.01872017      -0.00261706      -0.00727162
C        3.43151326       2.21130964      12.34748911       0.00256342       0.01356864      -0.00153106
H        6.40699496       2.20116268      12.01628502       0.00435865      -0.01509506       0.00345120
H        6.07805990       2.81770391      13.64991994       0.00540072      -0.00497207      -0.00033176
H        5.02001531       4.75757891      12.69603507       0.02597865      -0.00036246      -0.01070067
H        5.35194147       4.10532788      11.06379427       0.02180119      -0.01063797      -0.00774533
O        4.93301147      10.02671936       7.73416919      -0.00128141      -0.01751634       0.00721569
O        3.10281748       8.88574691       7.20374717      -0.00770223       0.00480887      -0.01755816
O        4.97699093       7.77577450       7.72574020      -0.02178657      -0.01941288      -0.01152518
C        3.99705063      11.03877342       7.30275262       0.01221493      -0.00496942       0.00694063
C        2.69090176      10.26554347       7.14353896       0.00602901       0.00934706      -0.00968715
C        4.38888002       8.81004878       7.58143881      -0.01326856      -0.00797486      -0.00845122
H        4.37225152      11.45974865       6.37011135       0.02379797      -0.00177182       0.01329112
H        3.94120962      11.80822524       8.06915296       0.01316299      -0.01063409       0.01254550
H        1.97500514      10.43398626       7.94250674       0.00165001       0.00992400      -0.01371133
H        2.23694870      10.41592302       6.16779535       0.01574907       0.02240231      -0.01211095
O        6.65174431       7.95931296      10.69622325      -0.00520785       0.00769704      -0.00774148
O        8.23499933       7.01311998      11.92906075      -0.02373146      -0.00851056       0.00381334
O        7.05639430       8.74470412      12.76114412      -0.00892532       0.00432515      -0.00708437
C        7.02390571       6.75341496       9.98871584      -0.01112586       0.00469252      -0.00589383
C        8.37548274       6.45985286      10.59794621      -0.01924032      -0.01059821       0.00529253
C        7.28138329       7.97285634      11.87067300      -0.01229964       0.00283954      -0.00120378
H        7.05145771       6.97677968       8.93071097       0.00110305       0.00606059      -0.00494045
H        6.27297522       5.99862178      10.21017585      -0.02119857       0.01246846      -0.01363893
H        8.60525826       5.39960220      10.68279866      -0.03231509      -0.01274052       0.00703336
H        9.17651566       6.99539074      10.08911227      -0.00952396      -0.01919404       0.01128113
O        9.36409104       7.85071960       3.24196652      -0.00062492      -0.00552341      -0.01090097
O       10.23935919       7.50942085       1.23261972      -0.00272546       0.00114378      -0.01261401
O       10.74880736       6.10683570       2.91676043      -0.00027359      -0.00310564      -0.01782680
C        8.66278627       8.76317047       2.36536452      -0.00043052      -0.00145096      -0.00665888
C        9.54238581       8.77596404       1.13266331      -0.00319394       0.00101155      -0.00872779
C       10.17266338       7.07434825       2.50469127      -0.00111765      -0.00255990      -0.01399860
H        8.59415972       9.72548409       2.86480486       0.00184891      -0.00350922      -0.00298154
H        7.67729598       8.34244843       2.16060944      -0.00135100       0.00081739      -0.00624385
H        8.98063018       8.79001735       0.20702955      -0.00562140       0.00206954      -0.00711581
H       10.28720464       9.56722584       1.15673128      -0.00328141       0.00109211      -0.00986295
O        6.95549298       1.13814875       8.32114187       0.00544450       0.00314081      -0.00594904
O        7.29731314       3.02930095       9.43947013       0.00378609       0.00101154      -0.00243521
O        5.26063597       2.08261994       9.45163461       0.00777876      -0.00297479      -0.00120792
C        8.36130959       1.39613991       8.14116316       0.00464810       0.00558197      -0.00703484
C        8.60371063       2.67405640       8.95084816       0.00339541       0.00496158      -0.00599158
C        6.40912672       2.06903048       9.11134501       0.00276852       0.00019358      -0.00211489
H        8.55946986       1.52587902       7.08078853       0.00325128       0.00688812      -0.00697303
H        8.89983099       0.54255901       8.54210451       0.00603411       0.00593275      -0.00873262
H        9.23936649       2.49899592       9.81745828       0.00550508       0.00545657      -0.00771633
H        8.96907211       3.50105376       8.34451373      -0.00019297       0.00675595      -0.00523004
O        7.05554122       4.65061432       5.96017753      -0.00081418       0.00126165       0.01181367
O        6.41277277       2.55150626       5.59921422      -0.00305310       0.00569811      -0.00930484
O        8.58935894       3.08666525       5.45359169      -0.00294983       0.00580621      -0.00888047
C        5.61902789       4.69758823       6.01860083      -0.00113108       0.00198406       0.00705853
C        5.21802220       3.22352145       6.03601699      -0.00057766       0.00233281       0.00342917
C        7.44969117       3.40167783       5.63729364      -0.00294638       0.00437430      -0.00271751
H        5.26556652       5.21111873       5.12654207       0.00253759       0.00243619       0.00596088
H        5.33271803       5.24602793       6.91431473      -0.00417999       0.00120817       0.00624093
H        4.96418770       2.85893789       7.03170838       0.00792323      -0.00217843       0.00368237
H        4.41628729       2.98924760       5.34355119      -0.00582269       0.00513532       0.00859919
O        3.90027510       5.03239551       9.34083567      -0.00268856      -0.00768360       0.00242293
O        2.01339614       6.00530174      10.00832233      -0.00501564      -0.01267946       0.00204562
O        3.99686563       6.94359859      10.52442287       0.00128025       0.00275564       0.01281071
C        2.86426899       4.14337841       8.89993922      -0.00243708      -0.00594404      -0.00099808
C        1.61263838       4.69885054       9.57543046       0.00082618      -0.01390105       0.00125194
C        3.36285642       6.08302898      10.00760492      -0.01520592      -0.02270710      -0.00422409
H        3.12649277       3.13736008       9.21509270       0.00146055      -0.00857008      -0.00738230
H        2.81138550       4.18538319       7.81235932      -0.00154005      -0.00112133      -0.00160122
H        0.77110745       4.80264428       8.89184171      -0.00346452      -0.01557735       0.00320384
H        1.33270510       4.12668894      10.45927805       0.00303439      -0.01504263       0.00118250
O       12.43603982      11.30755186       7.91668521      -0.00286020      -0.00240126       0.00017534
O       11.19281247       9.50783805       8.30364141       0.00642765      -0.01029508      -0.00775605
O       13.42607015       9.33491842       8.39200216       0.00696433       0.00083423      -0.01023366
C       11.06582414      11.78283780       7.97541027      -0.00502151      -0.00924289       0.00222798
C       10.26379505      10.50835709       7.82337587       0.00095665      -0.01232827      -0.00145313
C       12.43626261       9.99402710       8.23673852       0.00439996      -0.00395781      -0.00614926
H       10.91633695      12.49879430       7.16831479      -0.00875382      -0.00785705       0.00433606
H       10.91082082      12.23623020       8.95241257      -0.00677202      -0.01268518       0.00341612
H        9.38580561      10.47348542       8.44881105       0.00204855      -0.01969196      -0.00016516
H        9.98937929      10.27340083       6.79485115       0.00017446      -0.00917509      -0.00188440
O        5.51475010       9.64807888       4.61718852      -0.00631511      -0.00156963       0.01467834
O        7.59788157       9.39655733       5.36250840       0.00065494       0.00129646      -0.00439017
O        6.75813532      11.46657726       5.06538069      -0.01065630      -0.00018609       0.01894797
C        5.75376907       8.22623806       4.56232930       0.00389218       0.00059333      -0.00542846
C        7.05073742       8.05720754       5.33578805       0.00106448       0.00107290      -0.00210938
C        6.64423514      10.27738197       5.02416524      -0.00564483       0.00055563       0.01016718
H        5.81095718       7.91848850       3.52120140       0.01154994       0.01673356      -0.00958365
H        4.91495828       7.73009510       5.03979704       0.00534147      -0.01256192      -0.01716781
H        6.88285122       7.74729743       6.36265007      -0.00228840       0.00417878      -0.00157982
H        7.76645724       7.40633848       4.84381058       0.00210246      -0.00044328       0.00187913
O        4.49092011       5.43250853       1.53315506      -0.00428373      -0.00424054      -0.01017258
O        5.16697518       3.81946087       2.90512219      -0.01039709       0.00725928       0.00595809
O        6.51650261       5.58108580       2.51063606      -0.01257408       0.00804371       0.00523570
C        3.32485330       4.60712955       1.74172076      -0.00368005      -0.00596815      -0.01324950
C        3.90788303       3.34862917       2.36925011      -0.00504225       0.00000858       0.00001261
C        5.48842985       4.99801096       2.32954358      -0.00969219       0.00391406       0.00088062
H        2.84220250       4.45051271       0.78046193       0.00443667      -0.01401231      -0.01587477
H        2.64930318       5.13825749       2.41319234      -0.01002866      -0.00304687      -0.02212071
H        3.30992044       2.96021418       3.19019578      -0.00991336       0.00452419      -0.00160193
H        4.11396314       2.55420687       1.65250053       0.00224541      -0.00426528       0.00704372
O        2.61946650       4.88692821       5.08992346      -0.00150813       0.00785860      -0.01283512
O        0.70041601       5.20596823       6.16849298       0.00367507       0.00434569      -0.00308673
O        1.37955384       3.10693348       5.69491502       0.00206555       0.00683153      -0.01169109
C        2.60212054       6.29535682       5.42046740      -0.00026476       0.00692314      -0.00863446
C        1.15230690       6.52879692       5.78793949       0.00145006       0.00544247      -0.00155729
C        1.54254533       4.28734399       5.64904439       0.00131160       0.00502348      -0.00923188
H        2.91457411       6.86003542       4.54469369      -0.00454499       0.00892265      -0.00880137
H        3.28110509       6.46276935       6.25762513       0.00353372       0.00426278      -0.01127523
H        1.02846289       7.19180354       6.64186132       0.00551128       0.00347880       0.00038651
H        0.56761951       6.85761468       4.92846896      -0.00207022       0.00721136       0.00144950
O       12.38664720       9.06842236       3.90121512       0.00075532      -0.00289190      -0.00157009
O       13.25037669      11.04340404       3.40488301       0.00103039      -0.00441200      -0.00506383
O       12.37432056       9.81038065       1.77887291       0.00313655      -0.00837667      -0.00314525
C       12.68632885       9.65834642       5.18108611       0.00199074      -0.00085676      -0.00299400
C       13.25269927      11.04099729       4.84363631       0.00213043      -0.00171733      -0.00539401
C       12.62497116       9.94188236       2.95145743       0.00188512      -0.00551678      -0.00308263
H       13.40082056       9.01904329       5.69205089       0.00252607      -0.00004524      -0.00314592
H       11.75133266       9.70249151       5.72688311       0.00257728       0.00062545      -0.00258061
H       12.61905998      11.85549672       5.17967866       0.00293660      -0.00094140      -0.00639628
H       14.27511531      11.19309518       5.16943443       0.00241148      -0.00205742      -0.00638817
O       11.03040319       8.42437735      11.36815301      -0.00625741      -0.01347247       0.00128635
O       13.13506099       9.07939791      11.64930504      -0.00901651      -0.00140430      -0.00766814
O       11.54053639      10.61883635      11.26949551      -0.01897979      -0.01091862      -0.00262602
C       11.76328977       7.22999620      11.70685923       0.00135326      -0.00932613      -0.00067014
C       13.20913684       7.64975057      11.48785347      -0.00155580      -0.00139377      -0.00523628
C       11.87809308       9.48046500      11.41351201      -0.01171422      -0.00907880      -0.00291765
H       11.43958626       6.43512925      11.03659605       0.00411068      -0.01098254       0.00004554
H       11.53643670       6.97477142      12.74196774       0.00442182      -0.01060983      -0.00045520
H       13.91728306       7.26286645      12.21536150       0.00316101       0.00388984      -0.00705153
H       13.56598865       7.45521360      10.47823322      -0.00371963      -0.00121347      -0.00579983
