197
Lattice="14.033875634488721 0.0 0.0 0.0 14.033875634488721 0.0 0.0 0.0 14.033875634488721" Properties=species:S:1:pos:R:3:forces:R:3 energy=-1217446.0 stress="-0.0026290779933333397 0.00030842456908430904 0.0006099273741710931 0.00030842456908430904 -0.0016176621429622173 -0.0003325015859445557 0.0006099273741710931 -0.0003325015859445557 -0.0023288512602448463" pbc="T T T"
Bk      12.28956179      14.27278289      -1.08616217      -0.00898296       0.03006256      -0.02570486
O       13.38135261      13.85030663      11.23484389       0.00425857       0.04571643      -0.01816368
H       14.11577530      14.43326263      11.00996738       0.02785378       0.03130524       0.02089946
O       10.39163162      13.58259435      13.17199974       0.01030439      -0.01228157      -0.00069904
H        9.67931727      13.75988677      12.50709108       0.00672701      -0.00975360       0.00376353
O        9.86403714      14.60016864       6.76404592       0.00122876      -0.00901435      -0.01101398
H        9.34494963      13.85565543       7.11811269       0.00391155       0.00277675      -0.00131414
S        2.91667960       8.37005605       2.60735858      -0.00532800      -0.00363779       0.01319802
O        2.16890515       7.13600154       2.96026139      -0.00443745      -0.00181508       0.02229017
C        4.55124199       8.21001660       3.39493965      -0.00440943       0.00072762       0.01143345
C        2.33178473       9.69133150       3.68748939      -0.00414798       0.00256741       0.00502211
H        5.22435198       7.69709710       2.71055378      -0.00606674      -0.00478971       0.01412882
H        4.38329167       7.60588025       4.28586275      -0.00288855       0.00754036       0.01617780
H        4.96325046       9.18075516       3.66102189      -0.00329178       0.00224267       0.00311511
H        3.02095580      10.53341870       3.62801835      -0.00607286       0.00332601      -0.00361300
H        2.27757920       9.31037587       4.70437897       0.00024492       0.01051849       0.00807020
H        1.33353234       9.97164053       3.35653078      -0.00579233      -0.00233994       0.00630803
S        7.79196207      12.53218954      11.06520550       0.00427324       0.00373399       0.00045717
O        8.51641972      13.83541592      11.27487261       0.00914669       0.00046766       0.00564872
C        6.05032949      12.95173897      11.05618536       0.00705850       0.01307911      -0.00844225
C        7.80638321      11.67986835      12.64937161      -0.00660024       0.00214726      -0.00132757
H        5.84808147      13.47223947      10.12278995       0.01752380       0.01948229      -0.00694200
H        5.83437138      13.57524894      11.91949777       0.00407193       0.00881737      -0.00624552
H        5.46782172      12.03687755      11.10632541       0.00147670       0.01627983      -0.01913425
H        7.26952160      10.73736787      12.53876145      -0.01563352       0.00787677      -0.00379882
H        7.35159130      12.29484289      13.42506052      -0.00170980       0.00493172      -0.00101414
H        8.84917669      11.48017312      12.88087847      -0.00943068      -0.00996189      -0.00025943
S        4.45071762      11.49973006      -0.16506143       0.00294113      -0.01202464      -0.00918627
O        5.10394323      12.74925108       0.33735264       0.00577909      -0.00982702      -0.01955551
C        2.80789599      11.46629777       0.56955722       0.00464469      -0.00190151      -0.00689697
C        5.18221716      10.17052191       0.78090852      -0.00306517      -0.00775683       0.00130987
H        2.25458390      12.29571100       0.13656509       0.00547295      -0.00482474      -0.01240578
H        2.90570501      11.60034168       1.64581180       0.00712505       0.00750346      -0.00837882
H        2.32090667      10.52025609       0.33679212       0.00354343      -0.00291470       0.00088209
H        4.68928222       9.23039563       0.53942933      -0.00713822      -0.00729077       0.00798269
H        5.08121720      10.41638241       1.83725134      -0.00373513       0.00033879      -0.00074825
H        6.24166277      10.11769094       0.53839257      -0.00308365      -0.01388586       0.00320923
S        6.20601535       2.96234044      13.99866389       0.00511724       0.00183690       0.01093769
O        5.74265353       4.21549034      13.33138284       0.00154638       0.00004983       0.01058996
C        7.74345534       2.44338567      13.21046247       0.00257576       0.00305104       0.00598297
C        5.15742786       1.65359345      13.36351678       0.00410327       0.00050765       0.01610518
H        8.40601392       3.30605096      13.23341238       0.00240368       0.00308460       0.00411211
H        7.56701492       2.14767141      12.17911573      -0.00027354       0.00349018       0.00655650
H        8.16388907       1.60496738      13.76694597       0.00381600       0.00317181       0.00481184
H        5.43556790       0.69219740      13.78954631       0.00746112       0.00005054       0.01229291
H        5.23185804       1.64872088      12.27693512      -0.00222596       0.00247107       0.01579557
H        4.13909603       1.89936722      13.65727711       0.00542006      -0.00115799       0.02154011
S        4.31676142       8.68384070       8.73120710      -0.01251268       0.00164720       0.00854588
O        2.89493664       8.38983426       9.10771544      -0.01090395       0.00231731       0.01378182
C        4.90846689       9.83243254       9.98279740      -0.00715308       0.00278378       0.00473428
C        4.26492043       9.91895476       7.41124963      -0.01619620      -0.00114679       0.00573432
H        4.92449504       9.29943872      10.93048407      -0.00446706       0.00561897       0.00625165
H        4.19482440      10.65555136      10.02853093      -0.00615127       0.00335237       0.00611181
H        5.90722793      10.16511342       9.70364036      -0.00799961       0.00062856      -0.00015002
H        5.23538348      10.40020714       7.31825975      -0.01688704      -0.00078560       0.00238538
H        3.48652513      10.63538554       7.67473752      -0.01634134      -0.00105859       0.00466722
H        3.99953870       9.42520267       6.47970790      -0.01727728      -0.00372469       0.00764660
S        8.52989228       6.63924759      11.49905166      -0.00489986      -0.00696945      -0.00309622
O        7.97835599       5.26938381      11.67137674      -0.00722349      -0.00778818      -0.01562545
C        8.85928050       7.28583103      13.15083540      -0.00577292      -0.02196702       0.00219429
C        7.11398205       7.70161696      11.17036474      -0.00295961      -0.00264984       0.00414594
H        9.71620214       6.74343161      13.54745072      -0.00608109      -0.02561872      -0.00262065
H        7.99062681       7.13482540      13.78824070      -0.00659066      -0.02844997      -0.00063825
H        9.08660767       8.35039281      13.09812830      -0.00672857      -0.02146229       0.01272722
H        7.44000097       8.74173414      11.15048887      -0.00169139      -0.00308476       0.01214576
H        6.35956632       7.52398841      11.93823431      -0.00344153      -0.00687342       0.00239465
H        6.74525831       7.44212543      10.17979885      -0.00297647       0.00473204       0.00240491
S        9.21632312       9.79479354       2.30107726       0.00372601       0.00832739      -0.01970017
O        8.14821916       9.20304703       1.42451322       0.00709665       0.02210021      -0.03212988
C        9.18315697      11.56893850       2.06900002       0.01817402       0.00986475      -0.00645444
C       10.79545568       9.48496044       1.49619809       0.00601351       0.00305918      -0.01157606
H        8.19946511      11.88846687       2.40479653       0.01817757       0.01435396      -0.01163831
H        9.37734195      11.83001179       1.02908520       0.02664857       0.01553768      -0.00326514
H        9.93887350      11.98707948       2.73296328       0.01697494      -0.00056273       0.00142747
H       11.56040146      10.03061358       2.04844982       0.00650048      -0.00594097      -0.00401767
H       10.73337009       9.82577368       0.46313194       0.01431923       0.01184152      -0.00914656
H       10.97823393       8.41231148       1.53315339      -0.00169628       0.00160867      -0.01781035
S       12.89363502      12.30797511       4.32979849       0.01723647       0.00598888       0.00299960
O       11.84167667      11.41537391       3.75082303       0.02945185       0.00739133      -0.02110809
C       13.35093909      11.62327189       5.93398305      -0.00282035      -0.00690833       0.00232911
C       12.25294762      13.79681777       4.80231890       0.00648147      -0.00119311       0.00510532
H       13.75871369      10.63151584       5.74780091       0.00683770      -0.00242544      -0.00040428
H       12.46445643      11.58084247       6.56603870      -0.01301281      -0.01915862      -0.01343386
H       14.12013223      12.26188683       6.36402974      -0.01578830      -0.00438778       0.02119107
H       12.92600262      14.35271815       5.44964695      -0.01465654      -0.00684679       0.03097624
H       10.51252345      14.18170686       6.16977310      -0.00587673      -0.00353747      -0.00580744
H       11.87574590      14.36640558       3.95829627       0.01593865       0.00886384       0.00815237
S        9.09202797       4.52538859       8.78549925       0.00637436      -0.00973380      -0.00264752
O        8.06828626       4.68925519       7.68780122       0.00681007      -0.01247073      -0.00302196
C       10.54101827       3.75289344       8.05629293       0.00856519      -0.00586087      -0.00212532
C        8.57808876       3.08022704       9.71905643       0.01011470      -0.01113254      -0.00309569
H       11.02623385       4.51574205       7.45459596       0.00692142      -0.00474834      -0.00191082
H       10.24108251       2.87507935       7.48282553       0.01104261      -0.00638983      -0.00241213
H       11.19271674       3.47773264       8.88525252       0.00867944      -0.00419522      -0.00194170
H        9.34420466       2.86733206      10.46223010       0.00934254      -0.00760091      -0.00155009
H        8.44127965       2.24141058       9.03606041       0.01470625      -0.01187394      -0.00281778
H        7.66210729       3.35864642      10.23067666       0.00806207      -0.01453180      -0.00534619
S        3.15019955       3.85979437       9.70527417       0.00504363       0.00085306       0.00990379
O        2.27964190       2.83938696      10.36187494       0.00494134       0.00520957       0.01565826
C        4.83581643       3.64297159      10.29962038       0.00710297      -0.00845132      -0.00025719
C        2.89878379       5.43790690      10.53199480       0.01612174      -0.00008267       0.01368469
H        5.15355324       2.64451614      10.00352604      -0.00178540      -0.01137905       0.00057713
H        4.88739606       3.78386981      11.38087635       0.01370482      -0.00650176      -0.00100592
H        5.46774494       4.38382211       9.80695596       0.00855768      -0.01397377      -0.00615489
H        3.69808069       6.11598767      10.23968009       0.02030963      -0.00481966       0.01498769
H        2.88363235       5.27866741      11.61230424       0.01600998      -0.00444017       0.01284745
H        1.95979870       5.85250124      10.17948007       0.01817435       0.00705517       0.01698896
S       10.12194495      11.49503358       8.09227856       0.00556016       0.00578153       0.00383836
O        8.83970691      12.26654837       8.06466317       0.01029706       0.00580198       0.00458854
C        9.93264254      10.11236890       9.23098609       0.00489864       0.00582889       0.00433344
C       11.28145209      12.46049668       9.07960692       0.01024756       0.00299430       0.00108248
H        9.05554345       9.55596859       8.89934837      -0.00071776       0.01256642       0.00788940
H        9.79473053      10.47207083      10.25023521       0.01193987       0.00529994       0.00525886
H       10.81844609       9.48178290       9.14688774      -0.00029524      -0.00013391      -0.00100776
H       12.21767574      11.91437662       9.18728105       0.00761246      -0.00069165       0.00087133
H       10.83734146      12.67783684      10.05146628       0.01049688       0.00715490       0.00036961
H       11.44661412      13.38940152       8.53718378       0.01457759       0.00128233      -0.00022157
S        7.67908277       8.12421658       6.82836249       0.00470090       0.02173126       0.00727582
O        7.20275329       8.84576700       8.05847997      -0.00593209       0.01465672       0.00683963
C        7.55339092       9.28889072       5.46313931      -0.00750336       0.01950836       0.00737143
C        6.33434686       7.03729013       6.32927521       0.01942199       0.00477609       0.00717899
H        8.34742504      10.02599435       5.56796480      -0.02268650       0.03454541       0.01409133
H        6.59199414       9.79959948       5.49459543      -0.01726493       0.00126996      -0.00048200
H        7.68250918       8.74280271       4.52853942       0.00987198       0.02250013       0.00819740
H        6.57338639       6.60370613       5.35979206       0.02218088       0.01001953       0.00564221
H        5.40774958       7.60524639       6.28057163       0.01201260      -0.00692698       0.01164030
H        6.27824349       6.24955287       7.07673029       0.03266544       0.00250730       0.00559001
S        3.02389921       4.19778749       0.94170410      -0.01652694      -0.00269580      -0.00577891
O        2.40452885       5.23629767       0.06733195      -0.01330233      -0.00307083      -0.00851512
C        1.93915421       3.95235818       2.36346659      -0.02174479      -0.00090849      -0.00984478
C        4.34837068       4.96668157       1.90582401      -0.02089298      -0.00204927      -0.00106341
H        1.05686906       3.41370718       2.02496608      -0.02194048       0.00133955      -0.01255917
H        1.67881301       4.93340000       2.75915970      -0.01983137      -0.00040007      -0.01039062
H        2.48897874       3.36511986       3.10156844      -0.02559211      -0.00189279      -0.00806566
H        4.83380248       4.17137079       2.47171073      -0.02403772      -0.00135387       0.00239066
H        3.90230025       5.70127661       2.57066313      -0.02364516      -0.00140375      -0.00372620
H        5.04046402       5.39763701       1.18691107      -0.01772345      -0.00331636       0.00158891
S        2.84550752      12.66518217       5.49845508      -0.01010787       0.01528490      -0.00907758
O        4.25608967      12.26690463       5.20354423      -0.01581776      -0.00283477      -0.01315898
C        2.40549305      13.95246431       4.31917251       0.00485336       0.02294147      -0.00523451
C        2.87526257      13.71658895       6.96848918       0.00922567       0.01294661      -0.00832963
H        2.49119981      13.49559969       3.33452872      -0.00930690       0.02361253      -0.00660633
H        3.09449638      14.79339602       4.41489061       0.01853193       0.01175320      -0.00803201
H        1.36972190      14.24921450       4.48542797       0.01109160       0.03955857       0.00246397
H        1.85881190      14.04152904       7.19383255       0.01468483       0.02663719      -0.00433836
H        3.52795567      14.56966170       6.79081060       0.02000359       0.00402136      -0.01002268
H        3.25203893      13.10547975       7.78635621       0.00384146       0.00734723      -0.01026160
S       10.77492814       6.99156445       5.83905412      -0.00466180      -0.00562264      -0.00247860
O       11.11640262       6.85305621       7.29443779       0.01036638      -0.00252120      -0.00608933
C       11.91889504       5.92116696       4.94506087      -0.00370473       0.00577763      -0.01431802
C       11.47180941       8.56085283       5.31760623      -0.02124861      -0.00108767      -0.01009297
H       11.61490730       4.89562519       5.14764889       0.02037200       0.00199544       0.00143001
H       12.93195416       6.12885475       5.28803080       0.00001070       0.02677339      -0.03821847
H       11.84180223       6.12484209       3.87803288      -0.03080392      -0.00845627      -0.01495649
H       11.38278852       8.67654004       4.23990931      -0.04292532      -0.00019823      -0.00792678
H       12.52113234       8.57292877       5.60988919      -0.01627937       0.00475492      -0.02812684
H       10.90434702       9.35165918       5.80458342      -0.01598138      -0.00510277       0.00238848
S       12.08975673       5.76676952      11.94787502       0.00332594      -0.01195824       0.00302827
O       11.10899679       4.81539962      11.35217888       0.00508225      -0.01236641       0.00068814
C       12.01496705       7.29579847      10.97235350       0.00507119      -0.01415139       0.00062156
C       13.71792996       5.26767705      11.37896339       0.00574380      -0.01283197       0.01077542
H       11.15334744       7.86480830      11.31354916       0.00300558      -0.01521030      -0.00319882
H       11.88138471       7.02655976       9.92349344       0.00871431      -0.01641169       0.00099048
H       12.92884940       7.86966291      11.12246448       0.00359116      -0.01249478       0.00214855
H       14.45979145       5.94960835      11.79146242       0.00410615      -0.01338896       0.01430117
H       13.72353513       5.26738528      10.28789206       0.01185907      -0.01415863       0.01103082
H       13.91574470       4.26592090      11.75271482       0.00321377      -0.01238763       0.01281884
S        5.14611544       3.65995703       5.44630160       0.00024435      -0.00275290       0.00238204
O        4.47161188       2.67310765       4.53786323      -0.00537091       0.00401664      -0.00044262
C        6.85497816       3.81370325       4.89933709      -0.00200427      -0.00679073      -0.00369675
C        5.52910817       2.79284889       6.97215788       0.00324711      -0.01005030      -0.00254834
H        6.85030959       4.28823815       3.91936014      -0.00566600      -0.00662713      -0.00338465
H        7.27415870       2.81077616       4.84647127      -0.00523163      -0.00790381      -0.00627492
H        7.40946478       4.39808970       5.63388606       0.00250474      -0.00836244      -0.00612746
H        6.20501734       3.41860265       7.55792870       0.00942463      -0.01499012      -0.00470108
H        6.01041121       1.84888192       6.71207954      -0.00257427      -0.01161925      -0.00714849
H        4.58782753       2.62905219       7.49208991       0.00562851      -0.00685009       0.00254275
S        1.31598362       7.72466767       6.66571698      -0.01127458       0.01211831       0.01124585
O        0.42056519       7.82262053       5.46971892      -0.01034296       0.01985952       0.01118445
C        1.69816462       5.97589985       6.88774870      -0.00686892       0.01184088      -0.00105707
C        0.23354376       7.92989597       8.08946739      -0.01328486      -0.00296924       0.01082760
H        2.15455182       5.64808646       5.95517266       0.00076841       0.02140571      -0.00043540
H        0.78633677       5.41128019       7.08383753      -0.00606477       0.00719758      -0.01189474
H        2.40853480       5.87132493       7.70553422      -0.01281069       0.00766757       0.00347680
H        0.77208239       7.66827504       8.99417819      -0.01380245      -0.00961618       0.00904994
H       -0.66507743       7.33505746       7.91474496      -0.01116110      -0.00372392       0.00367193
H       -0.01871972       8.98956399       8.12167725      -0.01659806      -0.00425923       0.01957901
S        7.40342202       0.08187220       4.48764431       0.00054163      -0.01335645      -0.00599086
O        7.83489479      -1.33525939       4.63958060       0.00377470      -0.01326108      -0.00865836
C        6.19909776       0.14169185       3.15102069      -0.00456378      -0.01588605      -0.00061846
C        8.73777575       0.94194325       3.60777274      -0.00503379      -0.01084128      -0.01074937
H        5.35233040      -0.44934120       3.49407688       0.00207174      -0.02524813      -0.00073370
H        6.61547364      -0.29104626       2.24225276      -0.00543554      -0.00547969      -0.00574932
H        5.88749945       1.17569979       3.00115020      -0.01454050      -0.01754873       0.00787663
H        8.37490430       1.88081037       3.19274091      -0.00855825      -0.01010923      -0.00606102
H        9.09494740       0.28921802       2.81196784      -0.00861006      -0.00773971      -0.01452839
H        9.52139238       1.12447193       4.33940596      -0.00109854      -0.01144803      -0.01520476
