184
Lattice="14.122508168104181 0.0 0.0 0.0 14.122508168104181 0.0 0.0 0.0 14.122508168104181" Properties=species:S:1:pos:R:3:forces:R:3 energy=-1196597.125 stress="5.1712348067667335e-05 0.00015279024955816567 -5.1000210078200325e-05 0.00015279024955816567 0.0002656137803569436 6.952932017156854e-05 -5.1000210078200325e-05 6.952932017156854e-05 0.0006418572156690061" pbc="T T T"
Bk      13.80934037      13.71676268      -0.29249999      -0.01337022      -0.00914428       0.01668417
Br      11.31857505      14.33446557      14.51075237       0.00513965       0.02492592       0.03856372
Br      13.99888587      13.62873982      11.19657277      -0.04363941      -0.01519749       0.01555297
Br       5.96841520      13.20565164       8.27639692      -0.00955958      -0.00256454       0.01377973
C        3.47622271      10.52833546      10.85937080       0.00217122       0.00084853       0.00305760
C        4.86541504       9.90574918      10.90634992       0.00316732       0.00363284      -0.00020598
C        2.39727809       9.55924155      10.39033215       0.00489086       0.00021136      -0.00084352
C        5.92975344      10.85548398      11.44027198       0.00226631       0.00247371       0.00326443
C        1.01841913      10.19812347      10.32405091       0.00236896      -0.00551680       0.00183899
C        7.32541225      10.24929144      11.41604209       0.00230613       0.00296839       0.00003978
H        3.20748649      10.90767395      11.85445390       0.00134514      -0.00363973       0.00470042
H        3.50423016      11.39916396      10.19721720       0.00086037       0.00350448       0.00656679
H        5.14387253       9.59577242       9.89311389       0.00290825       0.00817286      -0.00161672
H        4.84116712       8.99247235      11.51635784       0.00490315       0.00100875      -0.00387329
H        2.67344943       9.17303311       9.40403344       0.00571270       0.00556381      -0.00277123
H        2.37343040       8.69202030      11.06017163       0.00805176      -0.00280127      -0.00472814
H        5.92367757      11.76206864      10.82903996       0.00142230       0.00517994       0.00723058
H        5.67059325      11.15186791      12.46369678       0.00224370      -0.00219144       0.00453061
H        0.72507854      10.61107217      11.29168619      -0.00112522      -0.01356599       0.00429986
H        0.24938854       9.48583188      10.01932975       0.00707024      -0.00824676      -0.00335679
H        1.00665492      11.03105822       9.61938061      -0.00162188      -0.00122629       0.00702773
H        7.37458210       9.32930712      12.00521775       0.00208469      -0.00015981      -0.00507614
H        7.61574785      10.00647303      10.39278047       0.00202729       0.00845641      -0.00128186
H        8.07046241      10.93918611      11.81496632       0.00235978       0.00066908       0.00377508
C        3.77851411       7.70727065       6.02216138       0.00075617      -0.00030893       0.00172287
C        3.84937853       7.88030960       4.50979301       0.00134778       0.00024685       0.00173500
C        3.38199818       6.29708035       6.44371367       0.00061862      -0.00060290       0.00104967
C        4.21782730       9.29359504       4.07529576       0.00006044       0.00100520       0.00271961
C        3.34656068       6.10829569       7.95394701       0.00097664      -0.00119518       0.00109750
C        4.26437082       9.45706617       2.56205193       0.00135244       0.00155379       0.00264621
H        4.74884134       7.96204479       6.46357980       0.00055775      -0.00048717       0.00218010
H        3.06386235       8.42749342       6.43680031       0.00052196      -0.00056025       0.00169268
H        2.88238246       7.60906391       4.06793851       0.00189623      -0.00067002       0.00108739
H        4.57698653       7.17052259       4.09720116       0.00240353       0.00129111       0.00179444
H        2.40002826       6.06040095       6.02040626       0.00038007      -0.00009348       0.00123793
H        4.08212794       5.58199513       6.00038236       0.00031957      -0.00050779       0.00054748
H        3.49237931       9.99399535       4.50133135      -0.00139078      -0.00023139       0.00208393
H        5.18484067       9.57049618       4.50561534      -0.00092766       0.00205411       0.00377114
H        4.31785454       6.33015737       8.40101291       0.00138448      -0.00247252       0.00079972
H        3.08493444       5.08440968       8.22381403       0.00001001      -0.00120795       0.00062697
H        2.61597003       6.77468709       8.41691932       0.00183821      -0.00076285       0.00167348
H        5.03490167       8.82373209       2.11783383       0.00202550       0.00203764       0.00319770
H        3.31124691       9.17107302       2.10818096       0.00189424       0.00158028       0.00157602
H        4.48263812      10.48644228       2.27437089       0.00148196       0.00195250       0.00334981
C        1.32932891      12.22808704       3.20993554       0.00602605      -0.00143284      -0.00279850
C        1.46710787      13.15796728       4.41004228      -0.00208094      -0.00071549      -0.00252860
C        1.27931299      12.96318394       1.87082985      -0.00289004       0.00118324      -0.00013983
C        1.55472239      12.40870934       5.73640437       0.00399455       0.00143671      -0.00219518
C        1.35209430      12.00977327       0.66781446      -0.00117084       0.00518379      -0.00302577
C        1.68097389      13.33761035       6.93458784      -0.00123339       0.00211877      -0.00275883
H        2.17914947      11.53708121       3.19130131       0.00949880       0.00575751      -0.00382233
H        0.43428812      11.60523094       3.32188695       0.00944549      -0.00860770      -0.00216754
H        0.61973243      13.85236495       4.43926012      -0.00280374      -0.00492388      -0.00358178
H        2.36413624      13.77599786       4.28790643      -0.00238764       0.00339432      -0.00291193
H        0.35057059      13.57667115       1.86678857      -0.00503838      -0.00340779       0.00797480
H        2.11265245      13.66715648       1.82449861      -0.00670817       0.00556524      -0.00068597
H        0.67180916      11.77044965       5.84620954       0.00298601      -0.00159681      -0.00107840
H        2.41901885      11.73750378       5.71016595       0.00303331       0.00350963      -0.00236681
H        2.13161373      11.26560419       0.81687097       0.00258367       0.00996515      -0.00728826
H        1.62323399      12.51173837      -0.28135941      -0.00700253       0.00956775      -0.00272742
H        0.41532193      11.45183862       0.51974770      -0.00170481       0.00517332      -0.00282306
H        2.59719395      13.92431093       6.87345021       0.00079083       0.00366868      -0.00529346
H        0.83315877      14.02374134       6.99594105      -0.00009747      -0.00117092       0.00602942
H        1.72238965      12.78087991       7.87054227       0.00439167       0.00101270      -0.00332767
C       11.82899017       9.35573666       7.78400229      -0.00135636       0.00319193       0.00254703
C       10.90154978       8.26148008       8.29972195      -0.00028306       0.00283441       0.00321832
C       11.32571120      10.76484122       8.07788895       0.00021440       0.00232725       0.00881338
C       11.45198027       6.85308242       8.10204331      -0.00240931       0.00300683      -0.00247134
C       12.30335025      11.84818341       7.64393201      -0.00060281       0.00194079       0.00676095
C       10.53696285       5.77358384       8.66330356      -0.00045413       0.00253248      -0.00071669
H       12.82013929       9.22867693       8.23403621       0.00000241       0.00181326      -0.00097752
H       11.97254875       9.23481332       6.70346346      -0.00489364       0.00610976       0.00165495
H        9.92617524       8.34417789       7.80606756      -0.00189379       0.00552350       0.00726005
H       10.71126797       8.42618359       9.36661416       0.00408224       0.00032806       0.00446039
H       10.36068454      10.91545039       7.58522220      -0.00247261       0.00378425       0.01353967
H       11.13110903      10.85697073       9.15067851       0.01169871       0.00510206       0.01142445
H       11.62136954       6.67636760       7.03438977      -0.00764344       0.00553391      -0.00378692
H       12.43596275       6.78400729       8.57800435      -0.00011662       0.00142003      -0.00752981
H       13.26838089      11.72848286       8.13955209      -0.00049701      -0.00060149       0.00617436
H       11.93386291      12.84541365       7.88634157       0.00104360       0.00131349       0.01151486
H       12.47398183      11.81121179       6.56539409      -0.00113719       0.00576208       0.00695843
H       10.39451054       5.89611205       9.73891892       0.00409915       0.00104921       0.00016126
H        9.54997230       5.81542732       8.19744949      -0.00224389       0.00356035       0.00358429
H       10.93967934       4.77366750       8.49664415      -0.00142944       0.00257581      -0.00375163
C        8.18132171      12.65889813       3.23628415       0.00751862       0.01066157      -0.00743955
C        6.78294289      13.08442644       2.81396209      -0.00403967       0.00456959       0.00079018
C        8.57675417      13.16441519       4.61607574      -0.00666797      -0.01108676      -0.00464320
C        6.41678212      12.63127122       1.40566840       0.00155574       0.00577861      -0.00536108
C        9.97949856      12.73058241       5.01350831       0.00175413       0.00568064      -0.00495787
C        5.02115118      13.07860998       0.99280939      -0.00071961       0.00780880      -0.00108340
H        8.24787993      11.56399755       3.21918655      -0.00091757       0.00369325      -0.00161660
H        8.90697113      13.01889720       2.49687504      -0.00500649       0.00141762       0.00378883
H        6.70424337      14.17649665       2.87238752       0.00064215       0.00594002      -0.00311891
H        6.05033625      12.69324257       3.53041256       0.00024760       0.00560038      -0.00553076
H        8.51379311      14.25766540       4.62619261      -0.00093583       0.01145810      -0.00220774
H        7.85854982      12.82048787       5.36495656       0.00444639       0.00999059      -0.01147538
H        7.15727263      13.01847940       0.69767535      -0.00080320       0.00500785      -0.00207469
H        6.48653520      11.53964125       1.34637762      -0.00107736       0.00606644      -0.00480877
H       10.06150433      11.64061681       5.02244457      -0.00622188       0.00260441       0.00283535
H       10.24260977      13.08805923       6.00893572      -0.00495390       0.00223745       0.00514066
H       10.72349148      13.11150605       4.30725428      -0.00571916      -0.00100925       0.00731410
H        4.27909752      12.70877786       1.70583614      -0.00002714       0.00722828      -0.00507371
H        4.94963686      14.16883019       0.98317759       0.00065859       0.00569749      -0.00374558
H        4.75068090      12.71544925      -0.00038903       0.00045959       0.00719070      -0.00651410
C        5.08667680       4.81360183       0.86818781       0.00028718      -0.00383335      -0.00196763
C        6.53996738       5.26751945       0.85815248       0.00102194      -0.00624245      -0.00396003
C        4.09584586       5.97010523       0.85997338       0.00170138      -0.00241280      -0.00147158
C        7.53302292       4.11181414       0.85335318      -0.00085859      -0.00785744      -0.00349375
C        2.64549234       5.51265299       0.86917253       0.00116414      -0.00097768      -0.00063865
C        8.98014835       4.57601804       0.78858798       0.00014654      -0.01129693      -0.00473953
H        4.90273918       4.16984667       0.00000793      -0.00177781      -0.00409791      -0.00131914
H        4.90686503       4.18961279       1.75216317       0.00032459      -0.00301115      -0.00132194
H        6.72802151       5.90737819       1.72986953       0.00299549      -0.00538753      -0.00496036
H        6.71525361       5.89910001      -0.02103926       0.00122098      -0.00761843      -0.00502509
H        4.28080777       6.60450170       1.73099915       0.00302031      -0.00246494      -0.00177705
H        4.28151490       6.59844491      -0.01735861       0.00189034      -0.00288577      -0.00184399
H        7.37828475       3.50091935       1.74949084      -0.00141959      -0.00666158      -0.00254399
H        7.31759989       3.45831044       0.00176504      -0.00281405      -0.00915730      -0.00204518
H        2.41970393       4.89950253      -0.00598052      -0.00005916      -0.00049496      -0.00061738
H        1.95480731       6.35707170       0.87029491       0.00193621      -0.00013302      -0.00001992
H        2.43308976       4.91044931       1.75534289       0.00104331      -0.00090018      -0.00063945
H        9.15668934       5.16131418      -0.11666676       0.00124658      -0.01282623      -0.00561056
H        9.22782906       5.21326213       1.64041262       0.00212653      -0.01080565      -0.00552383
H        9.67730039       3.73643189       0.78322695      -0.00184473      -0.01281083      -0.00390578
C        6.96580492       2.37362932      10.80898936      -0.00077473      -0.00405520      -0.00042391
C        8.38776067       2.90392176      10.93136453      -0.00056619      -0.00362808      -0.00169078
C        5.90960034       3.46593905      10.70557254      -0.00073457      -0.00396788      -0.00228883
C        9.43190881       1.79530000      10.99532677      -0.00097081      -0.00322902       0.00289428
C        4.50595189       2.89780391      10.54837212      -0.00068250      -0.00455275      -0.00034496
C       10.85432651       2.32003436      11.13062522      -0.00062013      -0.00403714       0.00227981
H        6.89154004       1.72193367       9.93425681      -0.00035479      -0.00544894      -0.00002706
H        6.73906198       1.72884659      11.66654928      -0.00079390      -0.00308399      -0.00030817
H        8.47599296       3.53813673      11.82341257      -0.00142160      -0.00132626      -0.00210264
H        8.60571975       3.55482612      10.07518648       0.00019861      -0.00554721      -0.00174785
H        5.95625575       4.11316940      11.59010153      -0.00033613      -0.00261620      -0.00346306
H        6.14137994       4.10733260       9.84826808      -0.00105185      -0.00528030      -0.00327849
H        9.20649690       1.13845353      11.84130835      -0.00142173      -0.00072959       0.00430927
H        9.33982042       1.17425432      10.09896149      -0.00058430      -0.00599295       0.00429416
H        4.44860751       2.26363593       9.66270146      -0.00108423      -0.00585052       0.00013599
H        3.75534036       3.68590084      10.46299378      -0.00103135      -0.00439842      -0.00163522
H        4.24122827       2.27559064      11.40595502      -0.00019555      -0.00289316       0.00014378
H       11.10762508       2.98554482      10.30192116       0.00012569      -0.00589304      -0.00020127
H       10.97530327       2.88578471      12.05812589      -0.00137445      -0.00049115       0.00012587
H       11.58485825       1.50895987      11.14267476      -0.00121847      -0.00336094       0.00493292
C       11.65419217       7.13572133       1.24422766      -0.00028443       0.00035879      -0.00080390
C       11.57159644       8.64017674       1.02608175       0.00322330       0.00051737      -0.00144751
C       13.06573214       6.56565333       1.18982524      -0.00118375      -0.00203359       0.00175544
C       10.13914402       9.16357848       1.03429625       0.00502652       0.00366375      -0.00504470
C       13.08167678       5.05156360       1.35537186      -0.00374020      -0.00191206       0.00248726
C       10.04849798      10.65433189       0.74652499       0.00792481       0.00313324      -0.00614239
H       11.19906475       6.88221779       2.20918868      -0.00256270       0.00167107      -0.00192082
H       11.04298308       6.63539735       0.48622128       0.00002204       0.00157639      -0.00218579
H       12.03895222       8.89236054       0.06629533       0.00566074      -0.00044564      -0.00064263
H       12.15495310       9.16018728       1.79629656       0.00259653      -0.00051287      -0.00021705
H       13.52541212       6.83778203       0.23357497       0.00105331      -0.00316699       0.00270084
H       13.68000452       7.03370937       1.96690443      -0.00180161      -0.00260219       0.00284806
H        9.55546229       8.60685701       0.29343445       0.00536568       0.00545421      -0.00578001
H        9.68196364       8.94171311       2.00498681       0.00154239       0.00461968      -0.00621635
H       12.63695262       4.75772271       2.30849663      -0.00564559      -0.00104776       0.00167441
H       14.09353619       4.64779156       1.31946446      -0.00386649      -0.00322976       0.00481155
H       12.50212542       4.56893912       0.56564088      -0.00230914      -0.00174198       0.00177404
H       10.57275999      11.24212241       1.50310919       0.00748177       0.00081883      -0.00482982
H       10.49713431      10.89629539      -0.21967177       0.00642331       0.00193788      -0.00794773
H        9.01488360      11.00016119       0.72372351       0.00911939       0.00688959      -0.00310825
C       10.40127850       3.47081687       4.63775741      -0.00162615      -0.00083187      -0.00211406
C        9.15304280       3.81784958       5.43901071      -0.00046556      -0.00026959      -0.00126404
C       11.16586582       2.28391196       5.21164535      -0.00081873      -0.00067896      -0.00345373
C        8.40106606       5.02892841       4.90026257      -0.00041326      -0.00018248      -0.00074324
C       12.37342304       1.88517509       4.37438229      -0.00232634      -0.00245294      -0.00426394
C        7.16221890       5.36955747       5.71648887      -0.00088727      -0.00095525      -0.00101572
H       10.12056874       3.25472967       3.60002771      -0.00166166      -0.00082505      -0.00177205
H       11.06224262       4.34549560       4.59688585      -0.00090273      -0.00096151      -0.00237095
H        9.43131278       4.00056182       6.48272846      -0.00043175      -0.00094042      -0.00137651
H        8.48174108       2.95148984       5.45521100      -0.00121614      -0.00037938      -0.00137996
H       11.48410375       2.52167878       6.23218902       0.00233221      -0.00047369      -0.00398591
H       10.48617157       1.43165015       5.29989926      -0.00192779      -0.00075054       0.00006085
H        9.07613839       5.89159599       4.87605439      -0.00047600       0.00000057       0.00046272
H        8.11452189       4.84010212       3.86041600       0.00015023       0.00081984      -0.00107762
H       12.07347052       1.60633045       3.36050635      -0.00493021      -0.00447003      -0.00411262
H       12.89529361       1.03522841       4.81730987      -0.00318184      -0.00211586      -0.00554112
H       13.08834062       2.70794387       4.29561863      -0.00354138      -0.00370374      -0.00799477
H        6.46784781       4.52724518       5.74037955      -0.00120972      -0.00087306      -0.00285753
H        7.42252632       5.60396577       6.75094563      -0.00154645      -0.00276185      -0.00048232
H        6.63064243       6.22993081       5.30697419      -0.00044731      -0.00019112       0.00005089
