198
Lattice="18.04644643084859 0.0 0.0 0.0 18.04644643084859 0.0 0.0 0.0 18.04644643084859" Properties=species:S:1:pos:R:3:forces:R:3 energy=-2375501.25 stress="0.0003885357000399381 5.184278779779561e-05 -2.175481404265156e-05 5.184278779779561e-05 4.789868398802355e-05 -0.00014884489792166278 -2.175481404265156e-05 -0.00014884489792166278 1.3314567695488222e-05" pbc="T T T"
Bk      17.27595809      17.32813367       0.14007054       0.00972729      -0.00988606       0.00010071
O        7.82875363      14.16320022       0.75259383      -0.02636242      -0.00386024       0.00206041
O        5.63877035      14.66025626       0.51826992      -0.02852392      -0.00954020      -0.00073588
C        6.77129879      14.78157590       1.01500821      -0.01607373      -0.00944960       0.00248158
H        6.86938777      15.56358129       1.81855352      -0.02527907      -0.00858366       0.00185168
O       -0.20342381      15.24197364      17.48158640       0.00014246      -0.00881121      -0.00916797
O       -1.36823068      16.61358782      16.18112273      -0.01038636      -0.00919253       0.00555556
C       -0.78832834      15.50144167      16.39050897      -0.00860753      -0.00655767       0.00154476
H       -0.79738823      14.74571734      15.59653853      -0.01619547      -0.00756672      -0.00276354
O        9.80105330      17.64570865      10.79736514      -0.00187683      -0.00944972      -0.00188977
O       11.35211209      16.09054504      10.32990341      -0.00571620       0.00600266       0.00423098
C       10.85856160      16.97659600      11.03502475       0.00022763      -0.01110524      -0.01352477
H       11.37640288      17.23473813      11.99131348      -0.00014436       0.00179255      -0.00691795
Cl       3.74639785       4.57935725      17.33451230      -0.00268313      -0.00229363       0.00291726
Cl       1.09065530       5.77422874      17.54553483      -0.00336756      -0.00300026      -0.00102024
Cl       1.35307204       2.92130816      17.04122413      -0.00192448      -0.00287285      -0.00166304
C        2.07361659       4.34547023      17.84919424      -0.00353480      -0.00292802       0.00002848
H        2.07386979       4.14350471      18.91441570      -0.00520378      -0.00353966      -0.00002712
Cl       2.73658916      11.48562933       5.88467084       0.00064909       0.00282233      -0.00146489
Cl       4.67389419      12.53262673       3.96004054      -0.00097014       0.00294715      -0.00315008
Cl       5.14626659      12.84554369       6.82799985       0.00160562       0.00243974      -0.00349370
C        4.44791289      11.81795577       5.57464943       0.00042224       0.00263742      -0.00300241
H        4.97439104      10.87145960       5.59248144       0.00025375       0.00256056      -0.00355481
Cl      -0.36950550       6.22169008      14.01506193       0.00420821       0.01183144      -0.00182761
Cl       2.36066892       5.17428533      13.97094120       0.00177496       0.00481153       0.00431492
Cl       1.18795353       6.27978600      11.53675409       0.00545438      -0.00389572      -0.00135297
C        1.24467835       6.37800057      13.30145108       0.00502156       0.00427141      -0.00179882
H        1.63131267       7.35601547      13.56286762       0.00725736       0.00458252      -0.00634572
Cl      14.86512503      14.70540966       1.78772383      -0.00054079      -0.00914891       0.00532176
Cl      15.19014837      17.53818007       2.36104165       0.00922117      -0.01065475       0.00652370
Cl      13.24247197      16.65663821       0.37935755       0.00714553      -0.00289913       0.00485885
C       14.01855500      16.23994510       1.89038908       0.00497597      -0.00601125       0.00531945
H       13.27762672      16.19933295       2.68355720       0.00450378      -0.00348062       0.00497331
Cl       0.82278879      16.60739041       2.41862817       0.00714359      -0.01636124      -0.00202864
Cl       2.15100227      17.61064109       0.04460819       0.00686060      -0.00174388       0.00385877
Cl       3.73857443      16.58568431       2.26183468       0.00655523       0.01017988       0.00914356
C        2.29131521      16.41163646       1.36368886       0.01217908      -0.00216052       0.00264192
H        2.20576965      15.43218947       0.90552038       0.02423140      -0.00231709       0.00056857
Cl      13.76622048       4.84173844       7.19348373      -0.00494448      -0.00003153      -0.00148387
Cl      12.21023593       7.17134371       6.39339166      -0.00074914       0.00417597       0.00169417
Cl      11.76428321       5.94947962       9.00266329      -0.00170928       0.00523633       0.00238594
C       12.95640884       6.31095962       7.76192137      -0.00246876       0.00068597       0.00031922
H       13.71255408       6.96049422       8.18786125      -0.00190696      -0.00184147       0.00213917
Cl       4.17586992      -1.70257799      13.48431743       0.00390825       0.00754926      -0.00853425
Cl       3.77330006       0.65919199      15.16158388      -0.00266451      -0.00168732       0.00287788
Cl       5.13394056      -1.70451276      16.24800995      -0.00380948      -0.00668937      -0.00607628
C        4.84404649      -0.73715381      14.81154537      -0.00037711       0.00074401      -0.00172859
H        5.78305970      -0.31896112      14.47195631       0.00023103       0.00332688       0.00306132
Cl       2.92663574       8.00000641       1.75422386       0.00111159       0.00053543      -0.00523105
Cl       0.68501010       9.28243598       3.09423508       0.00528568       0.00426767      -0.00198188
Cl       2.78018634       7.97344019       4.66372447       0.00563867       0.00098777      -0.00494486
C        2.41097245       8.88935530       3.19785837       0.00486415       0.00150936      -0.00454544
H        2.96226001       9.82126748       3.23224811       0.00644399       0.00062573      -0.00544781
Cl       6.99086695       5.10568771       6.94255472       0.00086755       0.00064968       0.00169015
Cl       5.47617726       4.15002327       4.64524822       0.00357327      -0.00554627       0.00243792
Cl       4.09549605       5.47111801       6.85295392       0.00039899      -0.00230221      -0.00143671
C        5.58862374       5.38905496       5.90412948       0.00129838      -0.00288647       0.00001559
H        5.72403415       6.34663339       5.41638382       0.00080827      -0.00369936      -0.00177567
Cl       1.15255888      10.04500763      11.69528005      -0.00366245      -0.00612161       0.01035789
Cl       3.68584766       9.15878010      12.86126292       0.00291239       0.00952876       0.00826379
Cl       3.30993090      11.96207808      12.14779194      -0.00708444       0.00331780      -0.00669301
C        2.52460587      10.49848865      12.72488099      -0.00125659       0.00466732       0.00284902
H        2.14048791      10.69140326      13.71932306       0.00037533       0.00773677       0.00285277
Cl       9.18296598      16.75115536       7.00503739       0.00274312       0.00364906       0.00229418
Cl       6.90091526      17.18865859       8.76514646      -0.00939831      -0.00183378      -0.01214180
Cl       8.16503843      14.55745631       8.62518407      -0.00125787       0.00176063      -0.00253754
C        8.43513727      16.31329642       8.54559213      -0.00543374       0.00247933      -0.00208044
H        9.10230398      16.61560161       9.36324488      -0.01109207       0.00503978       0.00199419
Cl      15.38746929       5.48068298      10.49766912       0.00384986       0.00153521      -0.00412340
Cl      15.67037509       8.31617200       9.84744339      -0.00304786       0.00198857      -0.00446293
Cl      14.35339022       7.51050548      12.32950233       0.00178406      -0.00030557      -0.00275332
C       15.60701613       7.11132889      11.14723463       0.00127782       0.00196495      -0.00433316
H       16.56159941       7.13317306      11.65720504       0.00179797       0.00384630      -0.00501816
Cl       8.42681064      -0.55570319      14.25270266       0.00142201      -0.00254285       0.00430909
Cl       7.04101504       1.53897923      12.76885551       0.00432909       0.00281616       0.00761904
Cl       9.70204041       2.03590685      13.86437921       0.01163267      -0.00313562      -0.00742090
C        8.62624803       0.81755704      13.15121664       0.00323297      -0.00363356       0.00365075
H        9.07690571       0.43951432      12.21718772       0.00258636      -0.00926995       0.00533718
Cl       9.45383914       8.91845774       8.36093313      -0.00451614       0.00440398      -0.00361064
Cl       9.21922649       9.08259373       5.45091623      -0.00203931       0.00175984      -0.00391725
Cl       8.82714856      11.46601658       7.08966150       0.00016135       0.00406110      -0.00674928
C        9.69299006       9.92702874       6.93256121      -0.00186929       0.00267127      -0.00453482
H       10.74928294      10.15482658       6.85812972      -0.00146881       0.00100911      -0.00382343
Cl       1.77871237       4.71831190       3.60134089       0.00149214      -0.00211209       0.00053895
Cl       2.49315902       1.98778189       2.86524264      -0.00244486      -0.00336061       0.00071117
Cl       1.78667210       2.61831776       5.63080437       0.00134353      -0.00128099       0.00123358
C        1.49878276       3.00910947       3.93732084      -0.00017461      -0.00175796       0.00129104
H        0.45953160       2.79698909       3.71871731      -0.00039038      -0.00189694       0.00212306
Cl      14.53413822       1.57683540      11.39986318       0.00604966      -0.00351392      -0.00049207
Cl      13.57269952       0.62798881      13.98429994       0.00012447      -0.00112116      -0.00174525
Cl      14.04227237       3.47280296      13.55432011      -0.00694230      -0.00049430      -0.00645113
C       13.53487848       1.94834660      12.80847382       0.00031527      -0.00367571      -0.00456185
H       12.51168242       2.06253566      12.47078636       0.00115427      -0.00758278      -0.00849286
Cl       9.52089463      13.18588040       3.96675613       0.00051062       0.00370935      -0.00471470
Cl      10.49134404      15.80998147       3.12794503      -0.01045536       0.00529814      -0.01240006
Cl      11.39938011      13.40358603       1.73761374      -0.01289582       0.00591278      -0.01508238
C       10.02284502      14.16475001       2.59299927      -0.00951850       0.00389260      -0.00803804
H        9.18204996      14.24975432       1.87565787      -0.01405072       0.00114210      -0.00368610
Cl       6.80650305       5.46603404      15.37528137       0.00024858       0.00479636       0.00292844
Cl       7.09103405       7.83421072      13.69048463      -0.00471681       0.00431585       0.00140664
Cl       6.68490099       5.21745574      12.46213499      -0.00031869       0.00285965       0.00293300
C        6.32865225       6.24672624      13.85305084      -0.00178575       0.00296229       0.00261046
H        5.25550796       6.39268815      13.88582027      -0.00200835       0.00100596       0.00276798
Cl      10.49213844      13.66375454      15.00963633      -0.00578767       0.00251561       0.00502360
Cl      13.31154867      13.95945849      15.69337996      -0.00494391      -0.00791293       0.00608550
Cl      11.55705759      16.28954937      15.65176461       0.00434011      -0.00111082       0.00346456
C       11.65885945      14.55629733      15.98293366      -0.00290601      -0.00108950       0.00470330
H       11.43535021      14.39288882      17.03121755      -0.00374971       0.00038218       0.00489822
Cl      12.76737454      11.01903094       9.35928285      -0.00307165      -0.00372270       0.00247887
Cl      12.75768322      11.89180042      12.14312861      -0.00327221       0.00773393      -0.00125301
Cl      15.15264700      12.22405652      10.52246354      -0.00218081      -0.00077400      -0.00146562
C       13.38907907      12.20969474      10.51586485      -0.00229367       0.00053315      -0.00233183
H       13.04063995      13.19002803      10.21383226      -0.00141290      -0.00056916      -0.00655712
Cl      16.29133714       8.71008994      -0.07229152       0.00779153       0.00002018      -0.00688365
Cl      14.97313647       9.80910759       2.29118372       0.00863753       0.00012312      -0.00418657
Cl      16.19157016      11.60590396       0.32809948       0.00338288       0.00429169      -0.00159046
C       15.34674401      10.05107137       0.58320413       0.00584124      -0.00152604      -0.00495218
H       14.41255557      10.10659277       0.03653956       0.00656116      -0.00202908      -0.00716230
Cl      14.12557311       5.73107522      16.41308192      -0.00016695       0.00189522      -0.00537044
Cl      12.12419508       3.67468233      16.96879225       0.00434027      -0.00270203      -0.00668982
Cl      11.32728871       6.47752022      16.80016791       0.00080180      -0.00290525       0.00991619
C       12.43212031       5.23648411      16.20079882      -0.00050775       0.00116020      -0.00041599
H       12.26456059       5.11875281      15.13779606      -0.00504833       0.00601815      -0.00045717
Cl      13.50530821       9.46808325      15.36994886      -0.00160724      -0.00093153       0.00006687
Cl      10.70182019       9.63616431      14.56103585      -0.00226381      -0.00022447       0.00219122
Cl      11.52170107      10.58499367      17.19706171      -0.00096182      -0.00528361       0.00364983
C       11.99333229      10.38357429      15.49781070      -0.00203776      -0.00159845       0.00298849
H       12.17310641      11.37311252      15.09512124      -0.00235590      -0.00076669       0.00496145
Cl      17.68446229       0.59572455       8.29319868      -0.00028637       0.00653073       0.00598347
Cl      14.94782403       1.45626005       7.77983713      -0.00301830      -0.00420582       0.00205559
Cl      16.51584925       0.24408940       5.64309712       0.00516491       0.00352370       0.00407211
C       16.19521938       0.27753221       7.40143485       0.00238065       0.00111182       0.00336033
H       15.83622516      -0.70984755       7.67153470       0.00613181      -0.00049263       0.00252014
Cl      16.98048490       6.41756053       5.51049056      -0.00032660       0.00229649      -0.00030625
Cl      16.10259779       6.03105356       2.75027506      -0.00026071       0.00120740      -0.00025100
Cl      16.04919455       3.78955657       4.63074925      -0.00064819       0.00198510       0.00081277
C       15.87419526       5.55221000       4.43552600      -0.00051001       0.00190526       0.00002585
H       14.86210879       5.80096656       4.72972371      -0.00034082       0.00225214      -0.00011454
Cl       2.33756874      10.44368649      16.64224298       0.00851084       0.01385915       0.00441913
Cl       3.30735900      13.11694075      17.32886832      -0.00818682       0.00888431       0.04218829
Cl       1.23265015      12.77277683      15.27941602       0.03331511       0.02631505       0.00913163
C        1.92245760      12.16152373      16.81498637       0.00281280       0.01141648       0.01095666
H        1.13820756      12.23522301      17.55834896      -0.00927892       0.00134427      -0.00217785
Cl       6.84849726      13.49849068      13.00199360      -0.00520748       0.00162950      -0.00768298
Cl       9.34713632      12.51983506      11.84161049      -0.00205576       0.00371315       0.00394227
Cl       6.95616868      10.85621823      11.76389056       0.00124873      -0.00193924      -0.00906183
C        7.58920148      12.51723417      11.73145101      -0.00207630       0.00091621      -0.00408715
H        7.31633989      12.95632813      10.78054624      -0.00739241      -0.00201482      -0.00366062
Cl      -0.17274520       2.99726432      12.06344179       0.00327760       0.00107703       0.01168361
Cl      -0.60120752       1.33691206      14.42236846      -0.00268109      -0.01039274       0.00275782
Cl       0.60383342       0.18839137      12.03861465      -0.00374900      -0.00066307      -0.00231510
C        0.44362307       1.65170082      13.00949793      -0.00087777      -0.00537810       0.00504193
H        1.42449672       1.91727560      13.38516457      -0.00058427      -0.00994136       0.00727911
Cl       3.51979141       2.91178273      11.32835720       0.00719476      -0.00537375       0.00805672
Cl       3.25254304       0.90022114       9.22054071       0.00441048       0.00244534       0.00113401
Cl       5.55659389       2.69235653       9.26127167       0.00167865       0.00617841       0.00129381
C        4.38451181       1.81245891      10.23438242       0.00592565       0.00049210       0.00119524
H        4.91540770       1.09484952      10.84721942       0.00918677      -0.00105312      -0.00347546
Cl      14.42771330      14.67148036       7.89171025       0.00416154      -0.00912584      -0.00638497
Cl      11.67250297      14.06029220       7.16697412       0.00041032      -0.00308488       0.00280699
Cl      12.91155719      16.55253132       6.26296907       0.00500627      -0.00978044      -0.00824820
C       13.16177336      14.83857737       6.66275322       0.00132918      -0.00917750      -0.00365005
H       13.51555342      14.34742285       5.76553545      -0.00233184      -0.01296419      -0.00296253
Cl       9.39548877       2.43433415       7.51475582       0.00322859      -0.00443740       0.00538558
Cl      11.71507051       2.15925547       9.27448941       0.00101054      -0.00184680       0.01268365
Cl       9.27938150       3.43515216      10.25089727       0.00123453       0.00221068       0.00517493
C        9.94561846       2.18343448       9.17726654       0.00112694       0.00066754       0.00689050
H        9.60438457       1.21675913       9.53862223      -0.00082532       0.00154489       0.00664058
Cl      -0.23653351      14.90510249       6.79446214       0.00394002       0.00390783       0.00181184
Cl       2.14051459      15.54270017       8.35968907       0.00300997      -0.00018755       0.00497106
Cl       2.36574554      15.11054756       5.48330233       0.00486240       0.00760406       0.00432944
C        1.34317166      15.71125738       6.79040623       0.00378710       0.00407537       0.00483185
H        1.16884060      16.76677142       6.61836343       0.00377746       0.00461206       0.00803599
Cl      16.76080019      10.97657147       7.32839344      -0.00000929       0.00376705      -0.00362203
Cl      14.56998698       9.71140124       5.87042321       0.00036275       0.00806627      -0.00779792
Cl      15.59977704      12.31028097       5.00520346       0.01506767       0.00064477      -0.01242236
C       16.00136640      10.75037824       5.75273947       0.00532557       0.00147450      -0.00584030
H       16.71298226      10.25641354       5.10237277       0.00544025      -0.00399780      -0.00118710
Cl       6.04758914       7.71232218       9.83296406      -0.00026776       0.00085032      -0.00152126
Cl       5.97235646       8.79843251       7.12206517      -0.00488904       0.00092676      -0.00168189
Cl       3.96674848       9.61076497       9.07505711      -0.00141627       0.00108414       0.00206287
C        5.64150303       9.11277903       8.84048357      -0.00186910       0.00080411      -0.00119148
H        6.28624403       9.93043995       9.13828887      -0.00130032       0.00066540      -0.00220472
Cl       8.24549338       8.47659511       0.31452581       0.00098377       0.00121807       0.00673351
Cl       7.37509041       6.97831920       2.66931200      -0.00194861       0.00408652       0.00745022
Cl       6.41736694       9.70601612       2.22996483      -0.00446032       0.00220305       0.00086989
C        6.92855701       8.19372716       1.45635881      -0.00101031       0.00151931       0.00448661
H        6.08204801       7.80436884       0.90337355       0.00061977      -0.00049755       0.00348586
Cl      16.81914106      15.59667843      10.45552909      -0.00147438       0.00006787      -0.00210896
Cl      14.02982687      15.84742848      11.30460357      -0.00300223       0.00048527      -0.00660929
Cl      16.03172833      14.72875929      13.12658404      -0.00579691       0.00254509      -0.00259274
C       15.70631350      15.89231034      11.81311340      -0.00377995       0.00107972      -0.00413603
H       15.93363609      16.87662385      12.20554975      -0.00427316       0.00154066      -0.00468703
Cl       6.64299753      18.61597864       3.71457409       0.00147357      -0.00356556      -0.00694308
Cl       4.59191441      18.25975567       5.75432373       0.00825971       0.00580552       0.00156518
Cl       6.08110056      15.94649174       4.75897672       0.00072095       0.00055331       0.00312087
C        6.14208427      17.67667351       5.13528068       0.00498812       0.00148117      -0.00220011
H        6.88516941      17.81622378       5.91100512       0.00815642       0.00234688      -0.00544325
