199
Lattice="13.248104955878688 0.0 0.0 0.0 13.248104955878688 0.0 0.0 0.0 13.248104955878688" Properties=species:S:1:pos:R:3:forces:R:3 energy=-1078165.0 stress="0.00025451439432799816 0.00024997032596729696 0.00012135657743783668 0.00024997032596729696 0.0003930439706891775 -0.0001848649772000499 0.00012135657743783668 -0.0001848649772000499 0.0010179146192967892" pbc="T T T"
Bk      13.49111092      14.22416132       0.35912512      -0.00817096       0.00413519      -0.00045067
Cl       7.31499651      12.27212634       7.01757066       0.01002932      -0.01610351      -0.01280642
O        8.49766552      13.14318944       6.66110554      -0.01235116      -0.01594210      -0.01628754
O        7.85096113      11.29388665       8.03069882      -0.00745696      -0.00203979      -0.01211846
O        6.30883650      13.10976160       7.67644756      -0.00569856       0.01675236       0.01180649
Cl       5.69201544      10.97780803       0.52773191      -0.00597119       0.00059661      -0.00153995
O        5.05131086      12.10803568      -0.16733021      -0.01367855      -0.00001943      -0.00073385
O        5.15823788      10.89911564       1.90655431       0.00142956      -0.00088350      -0.00339413
O        5.21281238       9.70204024      -0.15984273      -0.00109750       0.00280476      -0.00208652
Cl      11.29886743      12.49955717       2.31817835       0.00416785      -0.00936270      -0.00456500
O       10.23933276      11.65542205       1.61856309      -0.00469637      -0.00046295      -0.00771844
O       12.66918745      12.51969189       1.46036408      -0.00232431      -0.00616242      -0.01281258
O       12.08289843      15.43706238       0.20751736      -0.01381707      -0.00069171      -0.00718544
O        4.99520865       7.88666137       3.95237920       0.00511174       0.00415096      -0.00438109
C        4.54287374       9.00281575       4.71563449       0.00504651       0.00052622      -0.00015447
H        3.45291467       9.02122402       4.79528949       0.00492001      -0.00276948       0.00540753
H        4.87929868       9.93555791       4.25869269      -0.00063029       0.00346628      -0.00022575
H        4.98106819       8.92316399       5.70878237       0.01031023       0.00023630      -0.00327936
H        4.62952454       7.94617684       3.03577239       0.00557441       0.00709330      -0.00551975
O        7.39976702       4.06639045       8.56157713       0.00405887       0.00161180      -0.01401408
C        7.67523626       2.66260961       8.45414598       0.01029783      -0.00113937       0.00590408
H        7.56731655       2.30572914       7.43035164       0.01854105      -0.01042786       0.00532025
H        7.01901626       2.07464437       9.09717626       0.00425476       0.00649986       0.00402245
H        8.70470947       2.50273731       8.76923151       0.00573245       0.00402130       0.01433361
H        6.54989678       4.22883159       8.10427726       0.00846082      -0.00480069      -0.00803492
O        3.97171063       7.98111495       1.50086855       0.00238538       0.00069379      -0.00135800
C        2.59877992       8.35203263       1.42840304       0.00433487      -0.00247192       0.00411658
H        2.18572637       8.12415192       0.44134848       0.00005223       0.00194295       0.00554755
H        2.45941778       9.41508077       1.63440004       0.00097047      -0.00087595       0.00839999
H        2.05050657       7.77963776       2.17456441       0.00875627      -0.00501834       0.00444737
H        4.47600092       8.61631267       0.94113159       0.00248057       0.00598650      -0.00594795
O        2.21057374       2.04872099      12.85390158      -0.00311412      -0.00042003      -0.00174927
C        3.08943527       0.92344839      12.87490666      -0.00780578      -0.00381432      -0.00265501
H        2.52323602       0.01767949      13.14307365      -0.00858133      -0.00117352      -0.00409326
H        3.87755685       1.04559475      13.61309400      -0.00501785      -0.00600795      -0.00392899
H        3.53841784       0.76022168      11.89702916      -0.00778404      -0.00330163      -0.00499889
H        2.65567681       2.84096950      13.31977766      -0.00247359      -0.00164512       0.00048029
O        7.18176247       8.78426601       6.97527623      -0.00563122      -0.02214348      -0.00672680
C        7.38429094       7.74049907       7.90770126       0.00163627      -0.00024915       0.00729737
H        6.93722486       7.95791120       8.88146444       0.00547788       0.01006290       0.00688851
H        8.44861103       7.52472836       8.05636996       0.00180078      -0.00093713       0.00521269
H        6.92171876       6.84233136       7.49527123      -0.00161934      -0.00884822       0.02160391
H        7.44533452       9.62282694       7.39449792      -0.00473717      -0.00407615      -0.01014039
O        3.20982753       5.15568965       8.87321846      -0.00471359      -0.00303435      -0.00012115
C        2.53371638       3.95952485       9.24429822      -0.00492348      -0.00443903       0.00624801
H        3.23452311       3.21445187       9.63163409      -0.00308970       0.00115794       0.01205082
H        1.98620213       3.51040475       8.41265480       0.00233334      -0.01162684       0.00126535
H        1.83116259       4.21277107      10.03728356      -0.00988862      -0.00591651      -0.00231716
H        3.88336671       4.93280697       8.19678791      -0.01146321       0.00278745       0.00256589
O        2.06244600      10.77680161       6.29159842       0.00199896       0.00175014       0.00263822
C        0.77300464      10.19676589       6.22927942       0.00319076      -0.00362553       0.00606143
H        0.82829968       9.10813620       6.12074095       0.00855135      -0.00420314       0.01488019
H        0.26203587      10.59532100       5.35666861       0.00226699      -0.01248209       0.00253144
H        0.17592724      10.43963214       7.11376667       0.00241187       0.00101778       0.00366142
H        2.49442727      10.45950723       7.12428009       0.00181329       0.00386364       0.00282777
O        6.70224142       8.32579334      11.23725613       0.00789332      -0.00038028       0.00408684
C        6.18434029       7.06730531      11.60223367       0.00565532       0.00522566      -0.00262804
H        5.09396589       7.02450553      11.49114887       0.00611317       0.00037951      -0.00864193
H        6.43201553       6.80710115      12.63845188       0.00155045      -0.00491339      -0.00450122
H        6.62050565       6.31406542      10.94372303       0.01125228       0.00817963      -0.00743777
H        6.26569277       8.97499851      11.81858191      -0.00072363       0.00561357       0.01689465
O        3.29266871       4.00766067       0.74465897      -0.00420707      -0.00325543       0.00279927
C        4.05043399       4.91252941      -0.05683134      -0.00261953      -0.00564478       0.00004669
H        5.07199915       4.55015553      -0.20597345      -0.00260931      -0.00689931       0.00329304
H        4.08121342       5.89840355       0.40786880      -0.00412497      -0.00517425      -0.00389312
H        3.56533844       4.98869312      -1.02892540      -0.00126825      -0.00991981      -0.00183770
H        3.57888106       4.08472743       1.69292989      -0.00082296      -0.00277722       0.00041369
O        1.81804726       7.43645492       9.10533927      -0.00030589       0.00283243       0.00749966
C        0.43829102       7.12861918       8.99059434       0.00033033       0.00025178       0.00381488
H        0.07916028       6.52496808       9.82681637       0.00068341      -0.00517049       0.00144571
H        0.22050159       6.61453278       8.04952508       0.00438663       0.00224042       0.00114247
H       -0.11540228       8.06672214       9.00632010      -0.00184841      -0.00287363       0.00587474
H        2.34728695       6.61780852       8.98665370       0.00032937       0.00393967       0.00547268
O        9.22336651      13.41676799       3.94216372       0.00663638       0.00091165      -0.01325679
C        8.21325906      13.87260566       3.05907463       0.00116611      -0.00165780       0.02849665
H        7.95676581      14.92011206       3.25185527      -0.00055001      -0.00097448       0.01553664
H        7.30390722      13.27032974       3.13597610       0.00264531       0.00016055       0.00883771
H        8.60550460      13.78600172       2.04604837       0.00880283       0.00195123       0.01328039
H        8.87121403      13.39079091       4.84852678      -0.01418576      -0.02058403       0.03538478
O        2.38828738      12.71680126       4.54679198      -0.00590610       0.00712287       0.00174332
C        2.28330686      11.93024799       3.35591302      -0.00272336       0.00222279       0.00376636
H        1.38204012      11.31383572       3.35113841      -0.00637466       0.00789639      -0.00017707
H        3.16608319      11.30576682       3.21375229      -0.00591576      -0.00358880       0.01347874
H        2.23289881      12.61977686       2.51262422       0.00845629      -0.00079951       0.00091098
H        2.29005714      12.09724950       5.31102105      -0.00640829       0.00769201       0.00400434
O        4.94961674       0.66378705       4.30668839      -0.01536231      -0.00883773       0.00528610
C        4.67648833       1.00495072       2.96163479       0.01017686       0.00397760      -0.00444144
H        5.46095346       1.68245880       2.62125280       0.01002815       0.00070933       0.00848067
H        3.72213930       1.53683222       2.87092864       0.00802159       0.00366762      -0.01028899
H        4.67313329       0.12397435       2.31187400       0.01242057       0.00295860      -0.00455722
H        4.16582159       0.18341407       4.61977785      -0.00068864       0.00063343      -0.01195706
O        9.84509530       3.78461309       4.92977570       0.00038534       0.00623134       0.00978407
C       10.95378374       2.88750845       5.02586177      -0.00455725       0.00273854       0.01299993
H       10.87495051       2.17593519       4.20484809      -0.00193353       0.00395098       0.01187268
H       10.90997580       2.32963286       5.96272205      -0.01068687       0.00017001       0.01179796
H       11.90621217       3.41947178       4.96336066      -0.00234780      -0.00043839       0.01907453
H        9.75694697       4.24690717       5.79413563       0.00165189       0.00600272       0.01356363
O        1.74906446       0.90334709       7.87766160      -0.00528461      -0.01084757      -0.01082796
C        2.89557863       0.18528852       8.28555740      -0.00268203      -0.00191519       0.00182414
H        2.66168112      -0.83812161       8.58936143      -0.00196368      -0.00179887       0.00953630
H        3.42019769       0.67625794       9.11807694      -0.01132345       0.00596514       0.00226870
H        3.59329064       0.14107250       7.44901025       0.00154427      -0.00656929       0.00791362
H        0.99819779       0.65630550       8.45042246      -0.00274217       0.00072772      -0.01021281
O       -0.22006587       5.43785265       4.02631257       0.00147952       0.00358605      -0.00490153
C        0.13029236       6.46878911       4.92466345      -0.00440103       0.00218216      -0.00113875
H       -0.73861550       6.84140601       5.47598369      -0.00498542      -0.00583088       0.00301528
H        0.58949361       7.32358165       4.41375737      -0.00978833       0.00729969       0.00242442
H        0.85012111       6.07175281       5.64492105      -0.00018859       0.00225921      -0.00457144
H       -1.11806242       5.62095465       3.66837161      -0.00017913      -0.00003261      -0.00470449
O        3.92393916       4.28902167       3.27981027       0.00110006       0.00397316      -0.00212551
C        2.86775469       4.91397548       4.00808057       0.00123975       0.00977403      -0.00636907
H        2.88648121       5.99864909       3.87395778       0.01343241       0.01003504       0.00243760
H        2.94613155       4.67949810       5.07196279      -0.01069231       0.00034668      -0.00722536
H        1.92210028       4.52977199       3.64619223      -0.00017005       0.02261329      -0.01760636
H        4.75169270       4.63668610       3.66547505       0.00158994      -0.00124479       0.00086983
O       12.98587617       9.39300086       3.07754575      -0.00798199      -0.00289911      -0.00103158
C       12.37761391       8.57483664       2.09399120      -0.00152379       0.00180602      -0.01021820
H       11.29807948       8.50088129       2.24334103      -0.00500816       0.00908511      -0.02114383
H       12.79157672       7.55858240       2.10252560      -0.00982419      -0.00100130      -0.00801452
H       12.56177799       9.01552276       1.11347803       0.01161457       0.00192162      -0.00631252
H       12.45295120       9.30419302       3.88750455      -0.00583314      -0.01089876      -0.00336884
O        2.96005791       9.77567707       8.54741400       0.00095105       0.00184523       0.00340819
C        4.34087219       9.47896003       8.74319446       0.00290740       0.01008410       0.00546595
H        4.65826673       8.63226499       8.12984914       0.00962585       0.01409715      -0.00168955
H        4.54898682       9.25663724       9.79150007       0.00506580       0.00899976       0.00041258
H        4.92297081      10.35179146       8.45187975      -0.00347088       0.01619667       0.00492320
H        2.46363897       8.95126739       8.74880907       0.00475740       0.00015036       0.00476217
O        9.49968750       5.03077457       7.27856174       0.00641316       0.00226597      -0.00649157
C       10.47763000       5.31961339       8.26514253       0.00795206      -0.00389070      -0.00696857
H       10.57143509       4.51573284       9.00143352       0.00978577      -0.00797850      -0.01181641
H       10.25144265       6.24104568       8.80713330       0.00650898      -0.00713539      -0.00232619
H       11.43494882       5.44043062       7.75995803       0.00769466       0.00028295      -0.00751844
H        8.66744413       4.75824987       7.73728950       0.00640098      -0.00152078      -0.00812823
O        5.72777204       5.59734904       4.83987575       0.00488496       0.00001231      -0.01026482
C        7.14255140       5.56906225       4.61985610       0.00671467       0.00239212      -0.00173100
H        7.65189753       6.29974719       5.24963770       0.00145344       0.00164330       0.00495252
H        7.37311751       5.78613906       3.57557538       0.01417762       0.00497818       0.00188404
H        7.50327399       4.57202693       4.86074815       0.00638413       0.00193048      -0.00109334
H        5.39820368       6.50818440       4.56914208       0.00470468       0.00026572      -0.00937529
O        1.20074713       1.95603409       4.41545512      -0.00881547       0.00372468       0.00810575
C        0.67650954       2.15745216       3.14376381      -0.00867677       0.00174093       0.00412983
H       -0.13524908       1.45172072       2.89748103      -0.00672850      -0.00127077       0.00544811
H        1.45040208       2.08516341       2.35098051      -0.00608630      -0.00073864       0.00726868
H        0.26153729       3.16382332       3.09811770      -0.00941591       0.00032949       0.00141151
H        1.56481318       1.05214341       4.49939210      -0.00580429       0.01120639       0.00815053
O       12.71316620       0.44545175       9.37481056       0.00724735       0.00636309      -0.00688035
C       12.14857934       1.74713090       9.43331946       0.00064249       0.00126147      -0.00024656
H       11.16623641       1.72998545       9.90966477       0.00244182      -0.00465890       0.00232016
H       12.05809683       2.18857531       8.43540115      -0.00140288       0.00905241       0.00501341
H       12.80651126       2.37549990      10.03161519       0.00074270       0.00107637       0.00539540
H       12.08755839      -0.10221597       8.84946903       0.00534109       0.00615496      -0.01765158
O        9.19871021       9.81838692       3.34465107       0.01158577       0.00585570      -0.00678787
C        7.93079970      10.21831022       3.86286207       0.00445998      -0.00782314       0.00089329
H        7.17170709      10.23928916       3.08020122       0.00579029      -0.00895832      -0.00336620
H        7.99094983      11.20584254       4.32536651       0.00133765      -0.00382656      -0.00302528
H        7.64013451       9.48908031       4.61762263       0.00969214      -0.00485492      -0.00380087
H        9.52492905      10.49164170       2.71103803       0.00245202      -0.00415605       0.00012337
O        5.07523552       4.29392444       7.09230374       0.00234701       0.00366116      -0.00739184
C        4.72125900       2.96382957       6.65150855      -0.00102541       0.00500801      -0.00610358
H        5.01698488       2.25919584       7.42594333      -0.00947000       0.00662993       0.00040811
H        5.24146888       2.70067523       5.73258525       0.00260709      -0.00341613      -0.00076556
H        3.64535208       2.88047542       6.48469788      -0.00046504       0.00872244      -0.01144173
H        5.25415705       4.84742055       6.29442601       0.00629877       0.00206121      -0.01272157
O        8.83268615      12.40712504      10.60096127      -0.00757533       0.00017893       0.00983340
C        9.27671607      11.29027784      11.34931486      -0.01024193       0.00170493      -0.01667601
H       10.22101489      10.88524260      10.96334324      -0.00633299       0.00682797      -0.00999287
H        8.53731786      10.48247726      11.36583652      -0.00122684      -0.00416985      -0.00397079
H        9.44681891      11.62212050      12.37257188      -0.00481698       0.00818846      -0.00892687
H        8.47641825      12.08378500       9.76189827      -0.01659156      -0.01637876      -0.02967060
O       11.11972133       9.31790139       5.06023006       0.00109878       0.01059946       0.00863910
C       10.65203028       8.81023161       6.29453836      -0.00561620      -0.00001596       0.00264007
H        9.98769758       9.52010499       6.79650370      -0.00458634      -0.00441009       0.00747807
H       11.51745110       8.64185674       6.93666501      -0.00644478      -0.00855530       0.00306165
H       10.12087025       7.86010316       6.17301411      -0.00635189       0.00158161      -0.00836137
H       10.35121531       9.49313721       4.45840365       0.00299898       0.01163451       0.00542420
O       10.52577472       5.58306833       3.09832764      -0.00131729       0.00224012      -0.00521404
C       10.55382445       4.97215692       1.81469186      -0.00290599       0.00101987      -0.00403559
H       10.90810959       5.71238371       1.09967799       0.00486501      -0.00512940      -0.00529703
H        9.55525991       4.64885594       1.50652386      -0.00489506       0.00730594      -0.00465633
H       11.22383279       4.10793829       1.77377333      -0.00984195      -0.00624084      -0.00019492
H       10.19421363       4.92134645       3.75358522      -0.00231157       0.00410106      -0.00333856
O       10.78176592       3.90658800      11.99466540       0.00099933       0.00241765      -0.00592524
C        9.48662563       3.39251471      11.77306627       0.00036603       0.00024109       0.00749591
H        8.83842234       3.51330126      12.64948899       0.01008347      -0.00505458       0.01483864
H        9.50912764       2.32967844      11.51691255       0.00166040      -0.00066805       0.00501248
H        9.03556635       3.93895917      10.94348262      -0.00987369       0.00027418       0.01317218
H       11.28615191       3.26802916      12.58084774       0.00342755       0.00936348      -0.00118788
O       11.20978025       6.52954187      11.29121970       0.00307089      -0.00395250       0.00948948
C       10.14142603       7.30107335      11.80240621       0.00150627      -0.01136202      -0.00123602
H       10.31507750       7.61468243      12.83921402      -0.00789356      -0.00619419      -0.00123519
H        9.18579754       6.76913118      11.76142515      -0.00052673      -0.00462368      -0.01035887
H       10.04354789       8.20030151      11.19430532       0.00890519      -0.00708875      -0.00472009
H       11.11467616       5.61499281      11.62001763      -0.01112279      -0.02028830       0.00386387
O       11.07705200      -0.76974032       7.61085050       0.00427186       0.00247289      -0.00073594
C       11.60288437      -0.60291260       6.29379271       0.00411114      -0.00079313      -0.00135529
H       11.08588051       0.19301383       5.75925890       0.00735396       0.00431672       0.00048956
H       11.51182899      -1.52529180       5.71601529      -0.00414509       0.00089723      -0.00277904
H       12.65589538      -0.33591059       6.38906286       0.00515217      -0.00773746      -0.00347190
H       10.11139505      -0.68881550       7.54731827       0.00523596       0.01318277       0.00285554
