196
Lattice="19.04479297712962 0.0 0.0 0.0 19.04479297712962 0.0 0.0 0.0 19.04479297712962" Properties=species:S:1:pos:R:3:forces:R:3 energy=-2893925.0 stress="-0.0003270754823461175 -8.036067811190151e-05 -0.00012979791063116863 -8.036067811190151e-05 -0.0005016433424316347 6.898209903738461e-05 -0.00012979791063116863 6.898209903738461e-05 -0.0003672103339340538" pbc="T T T"
Bk      16.85304314      19.36833957      -0.36116929      -0.00670260      -0.00216544       0.00216682
P       18.19520329      17.23589979      -0.77142980       0.00039318      -0.02981085      -0.01365343
O       19.01626623      18.56943322      -1.05309492      -0.00513816      -0.00789547      -0.00320345
O       18.83706529      15.93002613      -0.98100665      -0.03434563       0.00836253      -0.00971726
O       17.58802236      17.60581683       0.65344848      -0.01400298      -0.00306633      -0.00569963
O       16.88389559      17.67045390      -1.62089639      -0.00961304       0.00877926      -0.01091671
Cl      11.26270330       5.72806770      12.84790856      -0.00094789      -0.00681018       0.00268561
Cl      10.68134481       7.44827110      15.10588586       0.00200691      -0.00048792      -0.00178725
Cl      10.77190532       4.57012360      15.46191056      -0.00879379       0.00039801       0.00468874
Cl       8.59341908       5.77677065      13.98827852      -0.00229096       0.00473684      -0.00092866
C       10.32537613       5.88648833      14.35594429      -0.00256262      -0.00067216       0.00101698
Cl       7.97788869      15.40429002      -0.16785486       0.00412522      -0.01439852      -0.00588417
Cl       8.19593052      12.63377373       0.64084058       0.00365293      -0.00892854       0.00881515
Cl       8.01226268      14.72240390       2.64561162       0.00581074       0.00032228      -0.00181878
Cl      10.42291287      14.44455044       1.05922507       0.00500387      -0.00480320      -0.00249293
C        8.64862871      14.29949109       1.04785067       0.00510591      -0.00722233      -0.00012266
Cl       4.07489135       1.86188128      19.17670691       0.00887483      -0.00420745       0.02655452
Cl      -1.11989033       2.12483003      19.92913492       0.00965762      -0.00538647      -0.00796619
Cl       2.29353655       2.00764857      21.41437758       0.01284605      -0.02429125       0.03301293
Cl       1.74934112       0.16388763      19.27324280      -0.01968213       0.03575875      -0.01374253
C        2.72805943       1.27160098      19.97183614      -0.00585220       0.01063600       0.01008536
Cl       9.14251391      10.70067700      13.32070047      -0.00234717       0.00656995      -0.00432396
Cl      11.42817557       9.67925433      11.86060063      -0.00269547      -0.00053555      -0.00048070
Cl      11.28110676      12.49721572      12.52411455       0.00556812      -0.00091469       0.00130518
Cl       9.49909466      11.38574633      10.52744846       0.00578341       0.00670977      -0.00290012
C       10.34542612      11.06846048      12.05361172       0.00159913       0.00275622      -0.00150039
Cl       1.91473430       2.92642688      16.26416518      -0.00840850      -0.00835359       0.01373871
Cl       3.33303478       5.27333115      17.24162749       0.00487876      -0.00904204      -0.00179023
Cl       0.43774908       5.27003478      17.13669199       0.00401098       0.00544912      -0.00524007
Cl       1.97937135       5.35112312      14.67785749       0.01032370      -0.02006151      -0.00389904
C        1.91636148       4.70736909      16.32520548       0.00231965      -0.00789145       0.00072872
Cl       4.60420398      14.48662024       4.43430050       0.00348002      -0.00677118       0.01008838
Cl       2.82218335      13.91987002       2.22032880       0.00858968      -0.00413203       0.00541884
Cl       2.84688491      12.17792598       4.53931191      -0.00326666      -0.00200254       0.00612825
Cl       5.09984773      12.19986776       2.71956605       0.00369790      -0.00895825       0.01412785
C        3.84484516      13.20003548       3.47090227       0.00312376      -0.00561501       0.00885211
Cl       7.43727807       9.19180391       0.60895924      -0.00454336       0.00128756       0.00487354
Cl       5.02860844       8.44551990       2.03372465      -0.01059893      -0.00510093      -0.01008967
Cl       6.12874934       6.67397151       0.01564755       0.00200386       0.00109369      -0.00789841
Cl       4.88030606       9.17924128      -0.76788813       0.00247818       0.00163041      -0.00857797
C        5.85740120       8.37761356       0.47093942      -0.00269388      -0.00024923      -0.00575487
Cl      -0.34402112      10.55310748      13.66710156       0.00214136      -0.00832492      -0.00255468
Cl       1.30667053       8.98826689      15.45957198       0.00130355      -0.01163864      -0.00474627
Cl      -0.94430941       7.75242352      14.12382448      -0.00590123      -0.00535738      -0.00166085
Cl      -1.39959778       9.68217923      16.23085615       0.00358951      -0.00376047      -0.00178716
C       -0.34477687       9.24753635      14.87045993       0.00076829      -0.00765491      -0.00210383
Cl      12.33353759      18.37285278       1.99668686      -0.00127229       0.00107795      -0.01037557
Cl      14.19920241      17.90746298      -0.19219088       0.01479830      -0.01768588       0.01184520
Cl      14.67646514      16.71863682       2.39599576       0.00147431       0.01092270       0.02482627
Cl      14.96383437      19.58477875       2.00420564      -0.00568112       0.00909890       0.00218710
C       14.02997197      18.11848940       1.57198173       0.00255051       0.00167157       0.00768110
Cl       2.81896411      18.01425304       5.16618220      -0.00518513      -0.00064853      -0.00079945
Cl       1.46389042      15.78479802       6.42656519       0.00272226      -0.00501561      -0.00085622
Cl       0.70401450      18.49365428       7.10564994       0.00311369      -0.00782958       0.01009777
Cl       3.26105574      17.45385838       7.97516004       0.00759250      -0.00758457      -0.00423044
C        2.05164680      17.43040141       6.67475115       0.00195108      -0.00542957       0.00153496
Cl       5.58986840       0.95715681       3.51409730       0.01130775      -0.01188317       0.02922237
Cl       7.18305383      -0.48017920       1.55710932      -0.01083343      -0.00562385       0.00823796
Cl       8.40167891       0.49299512       4.00304818       0.01870915      -0.00272912      -0.00823337
Cl       7.58109998       2.36764627       1.94637002      -0.01359870      -0.00443956       0.00343683
C        7.19976071       0.82882213       2.75343588       0.00148751      -0.00578061       0.00817361
Cl      11.64629455       1.05010509       9.36762955      -0.01277250      -0.00806415      -0.01159573
Cl      12.90907150       2.19714503       7.02557458       0.00568508      -0.00423225       0.00056827
Cl      14.23637016       2.32806883       9.60207459      -0.01587310      -0.00554933       0.01136538
Cl      11.87271672       3.93114608       9.10564338      -0.01333493      -0.00770658      -0.00703185
C       12.66311017       2.37612467       8.77223740      -0.00901024      -0.00653153      -0.00143874
Cl       4.96409362      -1.83222189      17.70524472      -0.01483376       0.02244369      -0.01062578
Cl       7.55040115      -1.12337473      16.59938608      -0.00810421       0.00025162      -0.00967206
Cl       5.17693564       0.34599557      15.80027027       0.00153534       0.01221088      -0.01936500
Cl       5.56227668      -2.38955630      14.91705343      -0.01534615       0.00683886      -0.00687301
C        5.81495099      -1.25375540      16.24440761      -0.00834221       0.01056680      -0.01169930
Cl       1.93675586       9.10846970       7.09655787       0.01003948      -0.00772876      -0.00073639
Cl      -0.63333673       9.67547834       5.86857053       0.01019657       0.00341764       0.00477320
Cl      -0.23134821       7.20941665       7.33883219       0.00339869       0.00056013       0.00171098
Cl       1.07436479       7.60639162       4.77541125      -0.00047712      -0.00262009      -0.00019979
C        0.52991285       8.40121472       6.27132491       0.00590437      -0.00151187       0.00134316
Cl       4.86580096       4.85936729       3.43854602      -0.00238702      -0.00300835       0.00323236
Cl       6.45578588       4.18125996       5.76577567       0.00514653       0.00647932       0.00097701
Cl       5.58579706       6.92325221       5.34053724       0.00050724       0.00309661      -0.00482629
Cl       7.61894714       5.76734824       3.63679095      -0.00260687       0.00151124      -0.00702660
C        6.13440670       5.42640903       4.54921412       0.00036184       0.00190493      -0.00207880
Cl      18.34606751      12.25453624       3.05441053      -0.00487986       0.00568354       0.00092465
Cl      16.21215046      13.91379727       4.10156592      -0.00088125       0.01524461      -0.00683519
Cl      16.56367093      13.64132306       1.23328842       0.00360534       0.00726482      -0.00543475
Cl      18.47668366      15.14464078       2.79068774       0.00679135       0.00392520      -0.00674943
C       17.41074798      13.74197059       2.78737888       0.00129433       0.00817227      -0.00494019
Cl       1.85368183       7.28614053      11.47386522       0.00168535      -0.00412433       0.00602101
Cl       3.02222915       9.87717046      10.90423561      -0.01665362       0.00239879      -0.00200502
Cl       4.25565185       7.47760907       9.84923335       0.00315732       0.00746790       0.01043245
Cl       4.37789148       8.03526749      12.69118679      -0.00643864       0.02084631       0.00806037
C        3.38066864       8.17286542      11.22682929      -0.00489271       0.00658947       0.00567889
Cl       9.18977946      18.27238755       7.39052046      -0.00421146       0.00683409       0.00858115
Cl       8.18416550      15.81868542       8.55583574      -0.00592250       0.00058946      -0.00638199
Cl       9.05153528      15.86141699       5.78807467       0.00634244       0.01231802      -0.00169954
Cl       6.60957294      17.22218449       6.56959859       0.00187290       0.00661841      -0.00820698
C        8.25466748      16.79372682       7.07811690      -0.00013519       0.00677341      -0.00194040
Cl      14.16076875       7.48827664      10.81994482      -0.00372365       0.00304121      -0.00709877
Cl      16.91861474       8.31447005      10.50575220      -0.00447649       0.00686434      -0.00038482
Cl      15.19839303       9.69797420      12.39093938      -0.01163723       0.00628415      -0.00674146
Cl      14.78347250      10.01661893       9.53969103      -0.00489195       0.00254840      -0.00739557
C       15.26599985       8.88165823      10.82315753      -0.00591458       0.00468300      -0.00507094
Cl       9.15531376      -0.32967395      12.36976709       0.00219568       0.00859556      -0.02088794
Cl       8.69201863       1.62753162      14.46173302      -0.00145534      -0.00422983      -0.00953117
Cl       9.34606553       2.49426226      11.77561170       0.00886862       0.01244023      -0.00150982
Cl      11.36828360       1.23857749      13.41325561       0.00098246      -0.00203411      -0.00420122
C        9.63695932       1.26317173      13.00663489       0.00229640       0.00377686      -0.00904808
Cl       7.72948373       9.96794110       4.50682948       0.00301377       0.00053060      -0.00115785
Cl       5.83788256      10.45494869       6.64768536      -0.00375924      -0.00328830      -0.00655487
Cl       7.65428127      12.55597892       5.81692042      -0.00640401       0.00055635      -0.00204115
Cl       8.67342758      10.25371767       7.23651481      -0.00455564       0.00319378       0.00052372
C        7.48131495      10.81120013       6.05037709      -0.00313925       0.00030483      -0.00208716
Cl       3.02435177       5.23383445       7.13088513       0.00595066      -0.00186729      -0.00267004
Cl       1.18184950       3.91479907       5.32836799      -0.00551045       0.00065488       0.00670782
Cl       0.94510141       3.52360471       8.19275929       0.01235142       0.00034966       0.00829327
Cl       3.17848157       2.36522396       6.74862512       0.00076154      -0.00207615      -0.01241246
C        2.09074352       3.75867355       6.85588877       0.00320806      -0.00022791       0.00042682
Cl      17.31012561       3.60532951      14.63741967      -0.00348282       0.00377356      -0.00726938
Cl      17.56999069       4.94899098      12.08171648      -0.01454243      -0.00076914      -0.01112878
Cl      14.94037471       4.28738782      13.10832200      -0.00896871       0.00061339       0.00079327
Cl      16.71111648       2.18658678      12.17912785      -0.01228354      -0.00185177      -0.00143473
C       16.62965546       3.75356096      13.00508442      -0.00950714       0.00036201      -0.00473422
Cl      13.89020447      11.47292655       5.77956325      -0.00334990       0.00334218       0.01876050
Cl      11.45605536      12.87277169       6.49709075      -0.00621369       0.00480624       0.00609568
Cl      11.36532371      10.70152227       4.57227492       0.00153062       0.00147069       0.01027933
Cl      12.59364302      13.22237298       3.85744357       0.00502829      -0.00013208       0.01042327
C       12.31639988      12.06647992       5.17534401      -0.00069701       0.00246475       0.01131962
Cl       8.26149879       5.17722245      10.30033365      -0.00988799       0.00059736      -0.00453933
Cl       7.90251966       8.00376814      10.81049141      -0.00065705       0.00090325       0.00044692
Cl       7.43814790       6.92372489       8.15454028      -0.00225502       0.00702208      -0.00147960
Cl      10.13673119       7.10712241       9.19896229      -0.00252604      -0.00364685       0.00078493
C        8.42976231       6.80714636       9.61788037      -0.00365016       0.00127132      -0.00110117
Cl      11.25376856      14.30654301      15.98812008       0.01587832      -0.00015801       0.02741773
Cl      11.00676820      16.88396341      17.30617316       0.01492575       0.00926012       0.00710195
Cl      11.23800624      16.74829661      14.42806415      -0.00725687      -0.01378024       0.00574225
Cl      13.52469823      16.09836130      16.09737154       0.00880140       0.00965298      -0.00725540
C       11.75649494      16.00188436      15.95200106       0.00800741       0.00148121       0.00813066
Cl      16.39777251      13.93952608      13.11200944      -0.00043458       0.00267141       0.00040799
Cl      16.04153762      15.81269433      10.92713112       0.00594354      -0.00268847      -0.00621462
Cl      13.82857954      15.23856530      12.69814135      -0.00137085      -0.00736243      -0.01777771
Cl      14.74783970      13.21891563      10.84230847       0.02193394      -0.00976986      -0.00838745
C       15.25454272      14.55178615      11.89510504       0.00589648      -0.00408307      -0.00832991
Cl      15.09106495       7.28991823       1.17717464       0.00931710       0.00700700      -0.00344819
Cl      15.26870637       9.38803572       3.17308586      -0.00557569       0.00778757      -0.00389826
Cl      16.01514129       9.94495417       0.43615745       0.00373366       0.00854617      -0.00134650
Cl      17.68721899       8.22925340       2.06608544       0.00269425       0.01447664       0.00680168
C       16.01351661       8.71518655       1.71425276       0.00288792       0.00970927      -0.00043331
Cl      15.50584331       3.10337806      18.51531490      -0.00409955      -0.00043137      -0.00390577
Cl      14.03393985       5.08492853      17.03578010       0.00518758      -0.00146984      -0.01467557
Cl      12.61451431       3.19643267      18.72625317      -0.00412607       0.00249602      -0.01385242
Cl      13.85976212       2.28406491      16.27466177       0.00050266      -0.00114897      -0.00792789
C       13.98453678       3.42297087      17.62276270      -0.00066896       0.00032559      -0.00961447
Cl      13.07660341       8.94532424      17.44333518      -0.00875341      -0.00287986       0.00627233
Cl      14.20606879      11.36783094      16.31624728       0.00166547      -0.01589245      -0.01212925
Cl      12.40866045      11.52250275      18.59034534       0.00609040       0.00823814      -0.01296949
Cl      11.38509157      10.78464486      15.97802188      -0.00109953      -0.00542401      -0.00670749
C       12.76993623      10.65732130      17.08687148      -0.00084165      -0.00446825      -0.00702041
Cl      15.71211965       2.52365467       4.60968295       0.00584567       0.00505292       0.00252818
Cl      17.11511483       1.63486000       6.97232765       0.00131210       0.00695748       0.01084390
Cl      18.18609576       1.06344978       4.32969112       0.00537100      -0.00078142       0.00903213
Cl      15.82630120      -0.31013386       5.26512541      -0.00209665       0.01150724       0.00984612
C       16.71037640       1.21837550       5.29244614       0.00373040       0.00793216       0.00973586
Cl      16.34151993       6.19063529       4.80706408       0.00107491      -0.00091196       0.00120509
Cl      14.87444068       7.80820035       6.71591847       0.00170346       0.00194007      -0.00105029
Cl      15.55754937       5.07646967       7.37310710      -0.00080574       0.00278795       0.00270611
Cl      13.55531924       5.61796921       5.34582840       0.00069565       0.00129971       0.00129116
C       15.08684765       6.17561927       6.05845150       0.00071603       0.00131196       0.00088140
Cl       1.58180976      13.88313640      14.13247053      -0.01527107       0.00129297       0.01069182
Cl       2.90747438      14.61602049      16.60853630      -0.01067898      -0.00016516       0.00829497
Cl       3.38631109      12.01526879      15.43496826      -0.00722453       0.00323629       0.00117166
Cl       0.80996512      12.62933274      16.62648262      -0.00549310      -0.00497627       0.00985441
C        2.16252723      13.28940766      15.70759336      -0.00963525      -0.00024866       0.00770969
Cl       4.36349429      14.41330101      11.55471334       0.00124002      -0.00275630       0.00526579
Cl       7.25852717      14.37755218      11.70170493       0.00117651      -0.00759414       0.01675259
Cl       5.88502694      12.78341984       9.69673680       0.00690224       0.00972649       0.00000972
Cl       5.73966984      12.04250605      12.49429807      -0.00562038      -0.01143062      -0.00708532
C        5.80506817      13.40158775      11.36026669       0.00102333      -0.00252956       0.00405458
Cl      18.74442062      11.41585797       9.90515989      -0.01387964      -0.00098324       0.00692004
Cl      20.20407899      12.59558099       7.69737124       0.02058166      -0.00725550       0.02345830
Cl      19.41092289      14.23721280       9.94767966       0.00928776      -0.00755733       0.01784918
Cl      17.41064488      13.23892378       8.09448350       0.02023023       0.00958379      -0.00420555
C       18.94126909      12.87223670       8.91405102       0.00943258      -0.00182447       0.01079816
Cl       1.47111807      -1.50349366      15.11390766       0.02470291      -0.01633799      -0.02109259
Cl      -1.17712288      -0.50536964      14.55104997       0.01497889      -0.02043391       0.00979093
Cl       0.28660501      -1.93228352      12.50132672       0.00016690       0.00637028      -0.01501060
Cl       1.13093481       0.72971264      13.29591656      -0.00431457       0.00152463       0.00279149
C        0.43360625      -0.80286408      13.87677157       0.01011127      -0.00783715      -0.00438443
Cl       3.74359779       0.88952025      10.76753803       0.00321621       0.00921565      -0.01807121
Cl       6.06595087       2.09979901       9.52229309       0.01424640       0.00724011      -0.00010940
Cl       5.69537593       2.29248561      12.39208752       0.00343961      -0.01250518      -0.00070941
Cl       3.96056193       3.77515918      10.60386375       0.01855615       0.00960362       0.00439726
C        4.85986420       2.26463944      10.82627137       0.00970441       0.00318933      -0.00391617
Cl      14.60042518      15.25225955       7.28821800       0.00060952       0.00669575      -0.00523766
Cl      12.27593133      16.04283898       8.83275816      -0.00375021      -0.01157452      -0.00261474
Cl      12.71454963      17.15733259       6.19072028      -0.00754370       0.00487636       0.00414664
Cl      14.43279930      17.92207267       8.40152206      -0.01233596      -0.00077504       0.00985298
C       13.50746947      16.59698937       7.68249962      -0.00565058      -0.00032169       0.00115259
