197
Lattice="13.669716061849593 0.0 0.0 0.0 13.669716061849593 0.0 0.0 0.0 13.669716061849593" Properties=species:S:1:pos:R:3:forces:R:3 energy=-175513.390625 stress="-0.0014471770264208317 -0.0006880343134980649 0.000394063739804551 -0.0006880343134980649 0.00047201267443597317 0.00032242802262771875 0.000394063739804551 0.00032242802262771875 -9.515499550616369e-05" pbc="T T T"
Ca      10.94232174      13.04392713       2.25410189      -0.01340406       0.00220862       0.00277045
O       11.93925926      11.34369901       0.94153070      -0.00413889       0.01513934      -0.00422305
O       11.32643111      11.49124755      -1.24622449      -0.00264812       0.01995659      -0.00622559
O       11.47048645      13.31618528       0.07803398      -0.01371326       0.01535857       0.00304516
C       11.55351638      12.07808212      -0.19881300      -0.00631075       0.02072257       0.00062144
O        7.63072635       1.18027760      11.63787378       0.00612479       0.00092553       0.00360300
O        7.21491483       3.28978312      12.28129001       0.01066098       0.00786948       0.00549765
C        5.38772164       1.73089243      12.08879246       0.00599414       0.00485262      -0.00370219
C        6.81344051       2.18529932      12.01574866       0.00267142      -0.00693905      -0.00043467
H        5.15328005       1.04959880      11.27351903       0.00550263       0.01021719      -0.00885428
H        5.25395239       1.18596635      13.02663368       0.00284595      -0.00205691      -0.00796345
H        4.73347006       2.59904947      12.06745670       0.00707082       0.00564107       0.00082204
H        8.53907430       1.51085932      11.69541672       0.00602943      -0.00203255       0.00590608
O        5.71077778       9.12746875       8.07051451      -0.00183776      -0.00001973      -0.00103407
O        4.36285310      10.91361357       8.16878422      -0.00428784      -0.00303817       0.02208024
C        6.72873240      11.24078764       8.29244918      -0.00328231      -0.00004470       0.00385892
C        5.49251789      10.42664984       8.18118771      -0.00256270      -0.00094121       0.00926038
H        7.42251845      10.80400117       9.01187402       0.00043064       0.00022276       0.00050540
H        7.22666001      11.20871411       7.31894005      -0.00694296       0.00027588       0.00192806
H        6.48164631      12.26562192       8.55235706      -0.00259235      -0.00042304       0.00576257
H        4.85792422       8.66086316       7.84068622      -0.00254273       0.00018490       0.00298008
O       10.34989501       9.06765520      11.67019915       0.00294375       0.01772183       0.00264770
O        9.23217281      10.16827570      10.06673549       0.01907101       0.00474083      -0.01622379
C        8.93634364       7.80372910      10.26683022       0.00693733       0.00902486       0.00606164
C        9.49862621       9.13979854      10.65651105       0.00989117       0.01135969      -0.00480473
H        9.71022958       7.25938256       9.72667948       0.00480318       0.00359313       0.00879295
H        8.67977254       7.20825275      11.13918438       0.00684856       0.01628977       0.01055595
H        8.07249738       7.93884764       9.62066647       0.00640412       0.00652273       0.00614319
H       10.68637167       9.97084058      11.90710880       0.00404335       0.01845327      -0.00376675
O        9.43138221      11.42409529       2.27945593      -0.01025677      -0.00342774      -0.00382212
O       10.07313504       9.49835541       1.36900354       0.00576884       0.00484562      -0.00928366
C        7.82421313       9.70535353       2.18729083       0.00453210      -0.01677409      -0.00807218
C        9.20970521      10.20884679       1.92486230      -0.00068921      -0.00246796      -0.00631188
H        7.46924986      10.10381509       3.13512982      -0.00042896      -0.02031681      -0.00849730
H        7.18857289      10.08725552       1.38650571       0.00186139      -0.02334439      -0.00886790
H        7.78237379       8.61883400       2.16368427       0.01516286      -0.01709682      -0.00733143
H       11.44570598      10.48360023       0.95018355       0.00142290       0.01319316      -0.00831527
O       12.71629034      12.93272435       6.40004132      -0.00245434      -0.01314746      -0.00376630
O       11.95229104      13.11387211       4.31808249      -0.00797750      -0.00542057      -0.00007455
C       13.43486504      11.30926701       4.86513957       0.00045809      -0.00201535      -0.01510011
C       12.65172969      12.52967861       5.15062363      -0.00476128      -0.00709813      -0.00577688
H       13.75056371      11.27008847       3.82876790      -0.00364091       0.00536363      -0.01666602
H       14.28500907      11.20615006       5.53508479       0.00322013      -0.00285682      -0.01893014
H       12.76157667      10.46123750       5.04115970       0.00429586      -0.00448212      -0.01616585
H       11.93621536      13.50783875       6.72620777      -0.00055581      -0.01119304      -0.00269447
O        7.11605869       6.97995358      13.02413167      -0.00707287       0.01730669      -0.00052267
O        7.37984863       9.20351780      12.86089622      -0.01885331       0.01379383      -0.02127241
C        5.39495929       8.19732930      11.96298135      -0.01367223      -0.00057273      -0.00851879
C        6.71889335       8.21059208      12.66017438      -0.00961810       0.01591295      -0.00986257
H        5.56535113       7.91463109      10.92120433      -0.01306619      -0.00417992      -0.00733463
H        4.72447835       7.45743614      12.39744364      -0.00773053      -0.00261323      -0.00388432
H        4.96844800       9.19611003      11.97899071      -0.02021621      -0.00337170      -0.01280910
H        8.01848502       7.04548523      13.41884854      -0.00596991       0.02262451      -0.00254768
O        8.64677278       5.60496848       7.22548880       0.02142087      -0.00198257      -0.00918484
O       10.54050359       4.84196517       8.14065146       0.01223636      -0.00855260       0.00192711
C        8.44504112       4.03584964       8.98527675       0.00486028       0.00624532      -0.00539744
C        9.32436391       4.84896488       8.08839063       0.01478982      -0.00168242      -0.00409341
H        8.38250611       4.52105834       9.96271423       0.00224824       0.01095928      -0.00799489
H        7.43948087       3.91941417       8.58928933       0.00679687       0.01001611      -0.01097175
H        8.90994500       3.06311149       9.13804775      -0.00124155       0.00462738       0.00097360
H        9.28073985       6.04883423       6.62162925       0.02640504      -0.00447762      -0.00761382
O        3.06527926       3.48634118      10.00173590       0.00387928      -0.01001352      -0.01223442
O        4.93687409       3.06981419       8.84583171       0.00390673      -0.00352192      -0.01279095
C        4.59308783       5.26720941       9.79222071       0.00099398      -0.00737786      -0.00554441
C        4.26185192       3.84713379       9.48319353       0.00297770      -0.00750935      -0.01123816
H        4.03334895       5.90961458       9.10898139      -0.01635921      -0.00458391       0.01248398
H        4.29699799       5.51379496      10.80852562       0.01917345      -0.01853745       0.00200096
H        5.65607022       5.43653357       9.64787030      -0.00315189      -0.00002294      -0.02422934
H        2.91062294       2.57255466       9.72414285       0.00565970      -0.01027459      -0.01422286
O        1.08917902       2.85342413       5.01041131       0.00008705       0.01031256      -0.00613773
O       -0.00669353       4.74127112       5.52972581      -0.00161773       0.00878805      -0.00127581
C        0.88999225       3.39695537       7.30066049      -0.01103268      -0.00359048      -0.00419497
C        0.60631760       3.75436156       5.88048006      -0.00237158       0.00248677      -0.00315028
H        1.76252938       2.74991145       7.37263421      -0.01083049      -0.00335371      -0.00308932
H        1.00947939       4.29668277       7.89995748      -0.01539789      -0.00703132       0.00137655
H        0.02406524       2.86435441       7.70063406      -0.01307318      -0.00679953      -0.01365501
H        0.92586572       3.17794813       4.10405129       0.00746772       0.01787651      -0.00591016
O       12.01677664      12.37233162       9.04397580      -0.00521374      -0.00117522       0.00105852
O       10.87111079      13.87147651       7.82078558       0.00358472       0.00002909      -0.00545096
C       10.06884133      13.25839375       9.99952524      -0.00097758       0.01356210      -0.00372249
C       11.00481926      13.21544183       8.85473957      -0.00036915       0.00348994      -0.00262269
H        9.66289872      12.25395263      10.14940747      -0.00526888       0.01596421       0.00018912
H       10.61315261      13.48176784      10.91891689      -0.00070840       0.01564848      -0.00440812
H        9.27472097      13.97068979       9.80374266       0.00271367       0.01631711      -0.00801069
H       12.56998859      12.34641273       8.24523347      -0.00444824      -0.00725314       0.00198996
O        5.42616177       9.21566381       4.88080870       0.00022686      -0.00481266       0.00051574
O        7.56213648       9.39515304       5.56015648      -0.00677335      -0.00143576      -0.00407696
C        6.70831447       7.25211200       4.88746291       0.00724392      -0.00075388       0.00454848
C        6.64050666       8.72701764       5.15183767       0.01124585       0.00652486       0.00515682
H        6.61494141       6.72089978       5.83631034       0.00324243       0.00160962       0.00546598
H        5.90016218       6.93645305       4.23096503       0.01187439      -0.00363940       0.00128015
H        7.67925796       7.00059024       4.46650841       0.01036240       0.00082023       0.01091502
H        5.36365236      10.17562270       5.05460233      -0.00171918      -0.00492948       0.00101624
O        4.20046696       5.45885912       6.33089052      -0.00074422       0.00491548       0.00676779
O        2.83099838       5.50728185       4.56551792       0.00685823       0.00399539       0.00198069
C        4.38868817       3.68763940       4.80220940       0.00534195       0.00460219       0.00788745
C        3.72501447       4.96723918       5.20398827       0.00249147       0.00484821       0.00396064
H        5.45035384       3.87138154       4.62619519       0.00597805       0.00528335       0.01254825
H        4.32150762       2.97195824       5.62230650       0.00274631       0.00496642       0.00796294
H        3.93440412       3.28587938       3.90130108       0.00896668       0.00392956       0.00651290
H        3.80081336       6.34385473       6.56321536      -0.00171643       0.00454551       0.00567891
O        2.48291516      12.62337277       3.92532060       0.01519284      -0.00995636      -0.00459731
O        3.85242109      11.36735736       5.17010637      -0.01765305      -0.02456474       0.02809440
C        3.20492704      13.53314787       5.98049110      -0.00024646      -0.00206047      -0.00349188
C        3.24435091      12.40019730       5.00161324      -0.00697440      -0.00403094       0.00694761
H        3.16204600      14.49465550       5.47285413      -0.00066317      -0.00613722      -0.01151615
H        2.28300265      13.43947574       6.56086012       0.00112315       0.00300374      -0.00054032
H        4.04816711      13.46688707       6.66116332       0.00004427       0.00442121      -0.00342223
H        2.41346305      11.76747669       3.42680876       0.00904550      -0.01368380       0.00074280
O       10.23793059       6.95642065       5.29285269       0.01953921      -0.00570077       0.01591772
O       11.44981872       8.80340825       4.93313587       0.01804662      -0.00405657       0.01346940
C       10.30133860       8.55793322       7.03107611      -0.00118217       0.00606015       0.00573605
C       10.72592166       8.16021444       5.65910361       0.01077855      -0.00330633       0.01435632
H        9.21389876       8.60808894       7.08462132      -0.00193772      -0.00654482      -0.00022460
H       10.65521270       7.81195135       7.74433370       0.00343829       0.01732686       0.01490502
H       10.71778976       9.52721641       7.28509586      -0.01423988       0.01323357      -0.00157766
H       10.68204703       6.67558938       4.45432514       0.02422619      -0.00845780       0.01850444
O       11.95944599       6.62278620       9.64493041       0.00212502      -0.00398344       0.00462660
O       14.06990504       5.87046344       9.59890332       0.00386465       0.00365257      -0.00251886
C       13.58250513       7.95748323      10.70067299      -0.00048085      -0.00435877       0.00887966
C       13.26469862       6.70872850       9.94358683       0.00253254      -0.00212920       0.00245693
H       13.38282506       8.82410240      10.06679223      -0.00304933      -0.00191861       0.01329437
H       12.92944557       8.04077290      11.56896939       0.00008322      -0.01047854       0.00991642
H       14.62590548       7.95186757      10.99865509      -0.00033763      -0.00353236       0.00822121
H       11.77404240       5.82019642       9.11572174       0.00320339      -0.00237811       0.00087950
O        1.46450250       4.27812445       2.58399145       0.00986871       0.00835977       0.00242275
O        1.81813027       6.06481507       1.28206340       0.00860456       0.00693583      -0.00577088
C        0.63811475       4.21614784       0.33548160       0.00165257       0.00257057       0.00605029
C        1.35986416       4.95925454       1.41566802      -0.00072345      -0.00757641      -0.00378171
H        0.45857059       3.17408003       0.58635692       0.00490593      -0.00217366       0.00565905
H       -0.30767726       4.72990447       0.14484824      -0.00381133      -0.00442623       0.01178218
H        1.22332615       4.29625272      -0.58075603      -0.00764239       0.00191509      -0.00000200
H        2.00220345       4.82523034       3.22023933       0.00878994       0.00527379      -0.00170833
O        8.45781045       3.10243204       5.66840942      -0.01975700      -0.00796799       0.00434953
O        7.84205874       1.54866415       4.18700496       0.01786132      -0.03398464       0.01731753
C        7.07397791       1.35993044       6.44431602      -0.01193208      -0.01396134       0.00660783
C        7.81278716       2.00952105       5.33001745      -0.00329692      -0.01833761       0.01091224
H        7.81366717       1.01601788       7.17209811      -0.01593837      -0.02095778       0.00735569
H        6.43252687       2.07479449       6.96075871      -0.00890639      -0.01128881       0.00601868
H        6.51311781       0.51011887       6.06663312      -0.01503554      -0.01060638       0.00355956
H        8.97154078       3.42697620       4.87637174      -0.00275855      -0.01572161       0.01220712
O        2.25608288       9.67928929       7.48080509      -0.00519481      -0.00063625       0.01426467
O        3.52545291       7.85214171       7.29252509      -0.00319752       0.00150234       0.00592917
C        1.20703698       7.67766939       6.79228260      -0.00225872       0.00250652       0.00074290
C        2.42353885       8.42326002       7.20160101      -0.00424328       0.00152491       0.00743888
H        0.86203486       7.09749643       7.65189746      -0.00277642      -0.00363275      -0.00366464
H        0.41507004       8.34103678       6.45621546      -0.00261079       0.00341623       0.00356118
H        1.46660305       6.96308576       6.01617222       0.00031102       0.00808337      -0.00334406
H        3.14054642      10.13245035       7.75642226      -0.00605866      -0.00140081       0.01636869
O        7.44003277      -0.58228595       2.10206104      -0.01929390      -0.01156023      -0.00336939
O        6.45435746      -1.25064090       4.00429980      -0.03493652      -0.01958561      -0.01418054
C        5.40871507       0.45701944       2.67437139      -0.00923604       0.00563288      -0.00037670
C        6.47620133      -0.53555424       3.02830783      -0.02222997      -0.00910479      -0.00833917
H        5.81951053       1.31008627       2.13987325       0.00102627       0.00396715       0.00461751
H        4.68040158      -0.04131438       2.02994017      -0.01682994       0.01942723      -0.00202958
H        4.88988551       0.78131528       3.57149408      -0.00470085       0.00563061       0.00234935
H        8.07993021      -1.31709966       2.32064855      -0.02132675      -0.01313657      -0.00489432
O       13.92233044       6.87186811       3.85836438       0.00400901      -0.00201285      -0.00415504
O       11.86680623       6.35545415       3.15887857       0.00203615       0.00653285       0.00656584
C       12.96660896       8.28133617       2.22790059       0.00157648       0.00045574       0.00099939
C       12.83512509       7.09725713       3.10915450      -0.00304699      -0.00239575       0.00279121
H       11.99453217       8.75538194       2.15179543      -0.00059374      -0.00642467      -0.01219820
H       13.71683835       8.97568317       2.59459110      -0.00722219       0.00511184       0.00817237
H       13.24761282       7.93258815       1.23290201       0.01659380      -0.00020291       0.00573713
H       13.78163698       6.05667330       4.39755109       0.00386243      -0.00241512      -0.00210895
O        4.22684830       3.60673165       1.12047483       0.00522554      -0.00523883       0.00515503
O        4.25514631       5.08993974      -0.55704259       0.00272939      -0.01077235      -0.00682729
C        5.05757832       5.75223047       1.62424450       0.00419474      -0.00340027      -0.00341892
C        4.49564131       4.83355826       0.59398411       0.00626016      -0.00942050       0.00836319
H        4.23041001       6.12373973       2.23366879       0.00459042      -0.00180124      -0.00404647
H        5.75939866       5.22374157       2.26708666       0.00512241      -0.00084458      -0.00136086
H        5.54779733       6.58699662       1.13652719       0.00394227      -0.00544401      -0.00708412
H        3.82951556       3.08650331       0.40817928       0.00490850      -0.00937362       0.00801128
O        9.98801795       1.59039100       2.87534183       0.00463018      -0.00092995       0.01254210
O       10.03372051       3.68543430       3.65760583       0.01979497      -0.01031435       0.04261407
C       12.05474035       2.76465515       2.78333538      -0.00086540       0.00217795      -0.02177601
C       10.60975332       2.75280875       3.13720809       0.01257789      -0.00787145       0.01162010
H       12.56575155       2.06463586       3.45189148       0.02026605       0.01050974      -0.02924244
H       12.21565283       2.42338038       1.76021811      -0.02429187      -0.00625755      -0.02218106
H       12.44925367       3.76601273       2.92802166      -0.00392789       0.00496936      -0.03861298
H        9.04901902       1.63638580       3.30775407       0.00932604      -0.01005442       0.02808833
O        9.65114689       7.06036936      14.02102324      -0.00772835       0.01413882      -0.00225019
O       11.79887375       6.78738682      13.41296103      -0.01012456      -0.00044322       0.00997422
C       10.23958921       5.03772703      12.93486471      -0.01382953       0.00887591       0.00462797
C       10.66452179       6.37877120      13.45980584      -0.00446737       0.00926280       0.00460259
H       10.45315125       4.29213570      13.70560865      -0.01592679       0.00836413       0.00484073
H        9.17752629       4.97858416      12.70764528      -0.01360935       0.01324750       0.00389218
H       10.83981436       4.79411025      12.06026691      -0.01492091       0.00724881       0.00458559
H        9.92471506       7.96094549      14.36118450      -0.00251660       0.01414034      -0.00097554
O        2.87237618       8.09063304       3.09119197       0.00526905      -0.00363943      -0.00681388
O        2.04364463      10.16538657       2.95347661       0.00485867      -0.00616968      -0.00469524
C        4.16928727       9.67004757       1.95220650       0.00764477       0.00263213       0.00317514
C        2.93129716       9.35781157       2.72458353       0.00280768       0.00037321      -0.00263977
H        5.02342797       9.15131799       2.37611693       0.00567581      -0.00225691       0.00052182
H        4.02429447       9.31306143       0.92992639       0.00966683       0.01253551      -0.00052300
H        4.34683650      10.74167627       1.93574328       0.00932236       0.00244969       0.01354123
H        1.99651990       7.85344151       3.45453344       0.00484473      -0.00394909      -0.00878154
