191
Lattice="13.596996410764438 0.0 0.0 0.0 13.596996410764438 0.0 0.0 0.0 13.596996410764438" Properties=species:S:1:pos:R:3:forces:R:3 energy=-449650.28125 stress="0.0011729913530871272 -0.00031837345159146935 -0.0003502599283820018 -0.00031837345159146935 -0.0005710197729058564 -0.0005114327068440616 -0.0003502599283820018 -0.0005114327068440616 -0.0019605096895247698" pbc="T T T"
Ca      15.05044656      11.93101429      -0.40821382      -0.00005722      -0.00130378       0.00360291
Br       8.80300518      10.75377972       4.65206032       0.00920060       0.01184666       0.01303772
O        9.94559780      11.73078937       4.03412103       0.00997365       0.00905633       0.00165260
O        8.10718035       9.87965071       3.47011266       0.02648968      -0.01302254       0.01303029
O        9.51303336       9.73763358       5.71165393      -0.00187612       0.03787482       0.03014600
O        7.66759486      11.62738789       5.42525800      -0.00637108       0.01893622      -0.02282333
Br       6.87937226      12.14038701       0.23974316      -0.01835035      -0.00403946      -0.04211831
O        6.30744233      10.61157825       0.23223847      -0.00935918       0.01522553      -0.01767343
O        7.66795547      12.44314901       1.61473084       0.00446731      -0.00562878       0.01776922
O        7.86153519      12.32600563      -1.04008750      -0.00536954       0.01023215       0.00895154
O        5.59567354      13.14587181       0.10021132       0.00479257       0.00992495       0.00159142
S        1.05155379       1.58118317      11.67668892      -0.00136442      -0.00223386       0.00359422
O        1.01896298       0.51111584      12.75901130      -0.00030079      -0.00028786       0.00625908
C        2.68206956       1.54991957      10.94349037       0.00025076       0.00089113       0.00761193
C        1.18247559       3.11962887      12.57292631      -0.00743580       0.00095615      -0.00127369
H        2.70904974       0.70552596      10.26003327       0.00514523      -0.00211938       0.01137617
H        3.42314328       1.41251911      11.73054953      -0.00111574       0.00779692       0.00990263
H        2.86012556       2.48852235      10.41118779      -0.00264843      -0.00094151       0.00359564
H        1.29547038       3.92993614      11.85189074      -0.01081664      -0.00122276      -0.00393231
H        2.03556340       3.05583725      13.24866954      -0.00734425       0.00663495      -0.00063241
H        0.25400781       3.24583137      13.12512329      -0.00799060      -0.00025653      -0.00194798
S        4.35022607       1.77634729       3.73810081       0.00382033      -0.00052321       0.00137460
O        4.35352062       3.17962593       3.21471400       0.00176867      -0.00435030       0.00734407
C        5.83289039       0.95837681       3.13983576       0.00643474       0.00113946       0.00094619
C        3.18002593       0.84194430       2.71770868       0.00658965      -0.00275081      -0.00075859
H        6.68412943       1.46980946       3.58362643       0.00449762       0.00192250       0.00306296
H        5.87950744       1.00686435       2.05409020       0.00607168       0.00500776       0.00097835
H        5.83551657      -0.08353827       3.46432025       0.00815583       0.00091425      -0.00220770
H        3.16588408      -0.18970330       3.06977226       0.00791182      -0.00331100      -0.00396913
H        3.49836771       0.87892017       1.67573242       0.00704706       0.00089036      -0.00042896
H        2.20069277       1.29877619       2.84868678       0.00563297      -0.00427049      -0.00007594
S        7.53433578       5.77678937       1.48234838       0.00093579      -0.00212443      -0.00196469
O        6.06724471       6.08436917       1.52612550       0.00376415      -0.00247067      -0.00708637
C        7.83484813       4.48788350       2.70149541      -0.00221165       0.00147849       0.00372308
C        8.35212481       7.11821866       2.35098856      -0.00049198      -0.00011683      -0.00276655
H        7.42311844       3.56640017       2.30195123      -0.00070611       0.00013892       0.00466861
H        7.35255385       4.77320180       3.63512884      -0.00723366       0.00457533      -0.00006987
H        8.90992700       4.35966113       2.82017296      -0.00324960       0.00245246       0.00907535
H        9.42638589       6.93028925       2.37785604      -0.00102878       0.00017057       0.00247831
H        7.95176563       7.22399203       3.35791021      -0.00561853       0.00285867      -0.00531428
H        8.15139770       8.03028582       1.79336669       0.00219698      -0.00159881      -0.00645588
S       11.29245909       1.83356665       7.93797673      -0.00318962      -0.00158197       0.00189841
O       10.46469457       2.15572860       6.74325367      -0.01170617       0.00162297      -0.00579190
C       11.58079527       3.35754474       8.84519510      -0.00643163      -0.00049579      -0.00320950
C       12.98731990       1.59540444       7.34683458      -0.00744426       0.00119247      -0.00630975
H       10.63343062       3.64446062       9.29628584      -0.00533128      -0.00276893       0.00063063
H       11.88081625       4.13889805       8.14833758      -0.00977096       0.00049211      -0.00285766
H       12.32328807       3.19598304       9.62544294      -0.00287990      -0.00000663      -0.00491810
H       13.64951985       1.42272079       8.19606295      -0.00601143       0.00067347      -0.00712079
H       13.29561170       2.47451296       6.78077762      -0.00869962       0.00152554      -0.00597765
H       12.97149958       0.71782363       6.70375621      -0.00817631       0.00164090      -0.00680310
S        9.96110309       2.25590878      13.47725650       0.02098680       0.00771499      -0.00821626
O        8.70765160       2.23777943      14.28193022      -0.00780308       0.00948835       0.01172924
C       10.08247137       3.90609992      12.76095778       0.00607625       0.00733119       0.00241283
C        9.61689740       1.38530850      11.93734581       0.00182304       0.00898072       0.00341308
H       10.27122430       4.59380714      13.58419657       0.00889944       0.00811463       0.00011572
H        9.12248287       4.13858788      12.29585694       0.00880992       0.00892946       0.00047273
H       10.91407759       3.95786922      12.05733495       0.00851922       0.00449159       0.00052136
H       10.50127092       1.42725919      11.29958712       0.00378458       0.00658224       0.00185952
H        8.75417461       1.84668284      11.45612177       0.00437512       0.01083928       0.00208577
H        9.38023033       0.35600042      12.19997392       0.00034235       0.00937761       0.00180095
S       10.38573116       6.11042986       5.69943712       0.00139689       0.00241196      -0.00330877
O       10.39184314       5.74248006       7.15040730       0.00177057       0.00717747      -0.00356400
C       11.17759494       4.74817512       4.81845025       0.00752568       0.00294739       0.00117314
C       11.70454549       7.30758107       5.46172859      -0.00422341       0.00835112      -0.00690928
H       10.55870619       3.86485948       4.96140395       0.01107991       0.00112994       0.00494224
H       12.16143182       4.57384101       5.25581151       0.00835162       0.00938348       0.00156137
H       11.27628110       5.01051997       3.76487524       0.00605813      -0.00091887       0.00013080
H       11.89450329       7.44645993       4.39872257      -0.00336270       0.00526596      -0.00720605
H       12.60359472       6.91439325       5.93894594      -0.00282364       0.01572333      -0.00427619
H       11.37727513       8.23897563       5.91881427      -0.01010057       0.00841796      -0.01060548
S        3.78332384      10.64950808       2.10822636       0.00036961      -0.00461140       0.00444013
O        2.85692661      10.83218293       0.90857851       0.00154024       0.00511975       0.00751919
C        4.54322394       9.03706657       1.98420378      -0.00103727      -0.00443101      -0.00875142
C        2.65536774      10.26969651       3.44608757       0.00091347      -0.01450360       0.00219625
H        4.99003659       8.97090458       0.99921249       0.00249608       0.00612923      -0.00789219
H        3.82323871       8.24515407       2.17327002      -0.00257060      -0.00463271      -0.01942175
H        5.34673892       9.02243148       2.72288502      -0.00393614      -0.01438839      -0.00604647
H        3.23945131       9.92662422       4.30055679      -0.00032789      -0.02510589      -0.00150611
H        1.96486375       9.49210080       3.12150143      -0.00116183      -0.00887321      -0.00582148
H        2.11581572      11.18339213       3.69219313       0.00314853      -0.01569304       0.01122866
S        3.51099125      11.24013173      10.26401585      -0.00442541      -0.00410482       0.00087845
O        2.50825023      11.79434919      11.29251268      -0.00542551      -0.00383905       0.00226492
C        4.06703426       9.69358900      10.96060897      -0.00057022      -0.00130886       0.00324208
C        5.02931983      12.15083434      10.51926327      -0.00737625       0.00063923      -0.00126123
H        3.23376300       8.99534470      10.92421139       0.00140086      -0.00354617       0.00524142
H        4.38767554       9.88504044      11.98551830       0.00097734       0.00124210       0.00220746
H        4.90591078       9.35608510      10.35286314      -0.00031304      -0.00003589       0.00251946
H        5.83761797      11.53696825      10.12447711      -0.00515234       0.00139952       0.00071074
H        5.14299214      12.30392892      11.59093684      -0.00752763       0.00374241      -0.00158513
H        4.98317488      13.10381764       9.99590091      -0.00922473      -0.00125912      -0.00370316
S        5.57220099       3.73933633      11.90255809       0.00450158       0.00374711      -0.00026917
O        6.94249257       4.33078558      11.72192110       0.00305676       0.00620025      -0.00013749
C        4.51459026       5.09960422      12.41937484       0.00011405       0.00202942      -0.00465637
C        5.57241812       2.87534706      13.48003410       0.00467369       0.00817211       0.00265890
H        4.38250295       5.73563103      11.54907564       0.00058810       0.00091451      -0.00614333
H        4.99030831       5.60805762      13.25978492      -0.00288889       0.00411040      -0.00458783
H        3.54441232       4.69821600      12.70521791       0.00026044       0.00035513      -0.00731538
H        4.58940317       2.42266861      13.62008965       0.00783332       0.00001719      -0.00082289
H        5.77259233       3.57402194      14.29018993      -0.00501227       0.01225241       0.00115602
H        6.32896614       2.09559965      13.43051008       0.01074144       0.01411901       0.00719264
S        4.32636851      10.79272850       6.69411631      -0.00087968      -0.00565705       0.00334597
O        4.71512141      10.10584717       7.96338735      -0.00332755      -0.00141603       0.00132835
C        4.83523436      12.51141943       6.83922158       0.00132881      -0.00494331      -0.00172475
C        2.53740533      11.07491167       6.78154256      -0.00080448      -0.00073558      -0.00015171
H        5.92265498      12.50927370       6.85764072       0.00126764      -0.00683756      -0.00148160
H        4.44461886      12.96095141       7.74981933       0.00167602      -0.00266878      -0.00295931
H        4.48803660      13.06127759       5.96252269       0.00278329      -0.00638205      -0.00306766
H        2.23178045      11.73824322       5.97436576       0.00131753      -0.00192730      -0.00123090
H        2.28869976      11.50755621       7.74834623       0.00050673       0.00216406      -0.00079928
H        2.06246660      10.10261292       6.66275807      -0.00393656       0.00056757       0.00239355
S       11.66702663       6.59923494      10.45767734       0.02256882      -0.02219605       0.00890279
O       12.60322223       5.53061094      10.96737714       0.04225564      -0.00608289       0.00173938
C       12.52092779       7.43157317       9.11576159      -0.00381601      -0.00748461       0.00210500
C       11.74580414       7.95748103      11.63554268       0.00635502      -0.02050197       0.00736570
H       12.52918045       6.73527462       8.28224847      -0.00325008      -0.00401136      -0.00053266
H       13.53157741       7.67599284       9.44707683      -0.00440852       0.00635186      -0.00755742
H       11.94984510       8.32107488       8.84927224      -0.01855575      -0.01434857       0.01192344
H       11.28991997       8.83006609      11.16807881      -0.02071529      -0.03306617       0.01295385
H       12.79125412       8.12769553      11.89630791       0.00454502       0.00646529      -0.00798137
H       11.17751799       7.66562293      12.51566933       0.02765902      -0.03414855       0.01544708
S       12.06374133      10.14265710       0.88342800      -0.00482196       0.00324261       0.00018817
O       13.12716773      11.03255536       0.22876760       0.00284421      -0.01544952      -0.00543338
C       10.55318931      11.08995435       0.90528275       0.00853306       0.02419111       0.00480042
C       12.44948774      10.14255801       2.63740973       0.00089851       0.00553487      -0.00283211
H       10.24090657      11.24428620      -0.12631939       0.00476198       0.02325056       0.00594720
H       10.68387842      12.03010717       1.43544986       0.02809139       0.02447113      -0.00151159
H        9.80312055      10.49246120       1.42883962       0.00257827       0.03957674       0.01333313
H       13.03186227       9.24844581       2.85846783       0.03720543       0.03004411      -0.01286782
H       11.52200976      10.16991673       3.20808787       0.00347313      -0.04464282      -0.00301815
H       13.01339031      11.05275411       2.83968452      -0.04195876       0.02592084       0.00648779
S        7.94078540       8.39513071      10.74737506       0.00025046       0.00275385      -0.00094390
O        7.15796690       9.48017353      10.07558332       0.00148213      -0.00228691       0.00288832
C        7.79563745       6.93563929       9.70245576       0.00859372       0.00314194      -0.00439015
C        6.91485062       7.78732978      12.09438365       0.00126064      -0.00595754      -0.00328267
H        8.42378547       7.08867449       8.82656247       0.01045567       0.00796901      -0.00242667
H        6.74639591       6.82396299       9.42183295       0.00967106       0.00230415      -0.00806930
H        8.12123995       6.05966091      10.26192153       0.00896720       0.00241102      -0.00687672
H        7.33526264       6.85862037      12.47958266       0.00121360      -0.00616757      -0.00597222
H        5.90850545       7.60334478      11.72043255       0.00171971      -0.00508820      -0.00542654
H        6.89576110       8.56892519      12.85288996      -0.00068112      -0.00777376      -0.00102721
S        6.35960219       2.49646038       8.00963398      -0.00635174      -0.00424695       0.00191724
O        5.89747368       1.32307386       8.81402975      -0.00706398       0.00036967       0.00118876
C        7.16638773       1.82696054       6.54197132      -0.00569260      -0.00552252       0.00196463
C        7.85934482       3.11344593       8.78991823      -0.00498742      -0.00366166       0.00032309
H        6.39362941       1.34077260       5.95156852      -0.00599951      -0.00559888       0.00242800
H        7.93187157       1.11004951       6.83508469      -0.00704722      -0.00632067       0.00347485
H        7.62483283       2.63834824       5.97675327      -0.00440825      -0.00699475       0.00149727
H        8.33861285       3.84726423       8.13937505      -0.00369905      -0.00609743      -0.00093020
H        8.52065676       2.26006389       8.94754502      -0.00678629      -0.00454886       0.00263277
H        7.57462524       3.56567625       9.74104620      -0.00438941      -0.00100692      -0.00057761
S        2.96372359       5.16264025       8.34706022      -0.00522119      -0.00534022       0.00118434
O        3.50489043       4.56704975       9.61055375      -0.01281351      -0.00600272       0.00437820
C        2.83104704       6.93882326       8.61977005      -0.00424121      -0.00525528       0.00011805
C        1.19801796       4.80507984       8.39666507      -0.00545323      -0.00349102      -0.00880985
H        3.83217352       7.36467081       8.59515278      -0.00347802      -0.00700088       0.00743637
H        2.35291737       7.09439363       9.58750866      -0.01102323      -0.00390902      -0.00352228
H        2.26296373       7.38135747       7.80354308       0.00271697      -0.00462129      -0.00430736
H        0.69775077       5.25334891       7.53825791      -0.00030927      -0.00189790      -0.01077428
H        0.76523600       5.16704926       9.33225653      -0.00925012      -0.00436534      -0.00995329
H        1.11322015       3.72161300       8.34250082      -0.00624824      -0.00318140      -0.01040959
S       10.46274582      11.13731060       9.45598220      -0.00132924       0.00511956       0.00536299
O       10.39069858       9.66419248       9.20043738       0.00202641       0.00019062       0.02323377
C        9.03799054      11.89818950       8.67826714      -0.00739050      -0.01027718       0.00252652
C       11.72118480      11.75978602       8.32418203      -0.00957122      -0.00584099      -0.00858778
H        8.17100963      11.48594477       9.19168305      -0.00400537      -0.00884736       0.00938684
H        9.00976936      11.64219500       7.62030923      -0.00833030      -0.02188019       0.00591582
H        9.09820857      12.97657653       8.83237353      -0.01151034      -0.00849936      -0.00911927
H       11.80477206      12.83633850       8.46253776      -0.01292564      -0.00400329      -0.02150996
H       11.43835874      11.50772520       7.30174721      -0.01387969      -0.01909866      -0.00377673
H       12.65712902      11.27587415       8.60050256      -0.00628065       0.00093346      -0.00770047
S        5.33215322       7.12913965       5.17375430       0.00541687       0.00490841       0.00232899
O        3.95451813       7.45379666       5.67620762       0.00489223       0.00757384      -0.00367659
C        5.84279832       5.60847278       6.00263284      -0.00182100       0.00251627       0.00285614
C        6.48621825       8.22257240       6.00748783       0.00538087       0.00151277       0.00744414
H        5.24644455       4.79314864       5.59631621      -0.00285530       0.00493451       0.00043012
H        5.67948808       5.70718970       7.07569876      -0.00640070       0.00245906       0.00242056
H        6.90037166       5.44029630       5.79768892      -0.00192998      -0.00052493       0.00772953
H        7.50535900       7.88573290       5.81979532       0.00499132      -0.00052069       0.00961560
H        6.25979657       8.26364923       7.07256300       0.00187871       0.00091308       0.00671014
H        6.36550481       9.21085012       5.56854245       0.00867358       0.00201479       0.00740786
S        1.83105483       6.62272270       3.14917431       0.00802338      -0.00204058      -0.00137335
O        0.41069434       7.08695184       3.00421711       0.00921321       0.00655016       0.00225821
C        2.24700196       5.68692389       1.66745760      -0.00217911      -0.00690299      -0.00082648
C        1.82851426       5.22019941       4.27338647       0.00363006       0.00079870       0.00157699
H        2.25348814       6.39446982       0.84006123      -0.00303057      -0.00862440      -0.00232981
H        1.49268343       4.91639295       1.50492878      -0.00477432      -0.00535200       0.00418094
H        3.23985142       5.25392847       1.80389429      -0.00285566      -0.00953441      -0.00334936
H        2.77857088       4.69209989       4.18220685       0.00230758      -0.00183941       0.00206306
H        0.99532849       4.56975770       4.00116484       0.00210254       0.00186288       0.00387630
H        1.71683718       5.61743543       5.27959976       0.00545464       0.00336400       0.00059904
