199
Lattice="12.679552433581533 0.0 0.0 0.0 12.679552433581533 0.0 0.0 0.0 12.679552433581533" Properties=species:S:1:pos:R:3:forces:R:3 energy=-170657.015625 stress="0.0022975774481892586 0.00026832049479708076 0.0005099659319967031 0.00026832049479708076 0.0020451294258236885 9.493017205386423e-05 0.0005099659319967031 9.493017205386423e-05 0.0009681723895482719" pbc="T T T"
Ca      10.67140736      13.89237954       0.62367846       0.00485785      -0.00185550      -0.00832298
O       11.76517082      12.26641366       5.86381925      -0.00342259       0.00948668      -0.00323951
O       11.69266377       9.66624147       6.22569412       0.00739168       0.01352942       0.01428509
O       12.70310610      10.64400717       4.01473250       0.00214392       0.00301267       0.00511765
O       10.13540089      10.79807646       4.43945162       0.00031865      -0.00501459       0.01002687
Mn      11.56820130      10.84285921       5.14778405       0.00151545       0.00856398       0.00999499
O        5.92071317      10.42450116      10.31128771      -0.00266564       0.00135469      -0.00409096
O        7.36205281      12.46384342      11.14173767      -0.00154279      -0.00394768       0.00127888
O        6.41163732      12.42905578       8.70353491       0.00741619       0.00000411      -0.00171292
O        8.33975345      10.79851676       9.38458309       0.00221884      -0.00523597       0.00433722
Mn       7.00536675      11.52702669       9.87866539       0.00012773       0.00044839       0.00021729
N        4.69529879       5.95892190       4.17019921       0.00038046      -0.00271877      -0.00221492
H        4.01522605       5.20481509       4.24090911       0.00839412      -0.01427016       0.00734012
H        4.56678295       6.43888575       3.27796491      -0.01220292      -0.01543729      -0.00915752
H        4.44827733       6.62413124       4.89540555      -0.00369819      -0.00246769      -0.01339409
N        1.34696280       4.92662521       2.84737678      -0.01555927      -0.00937322      -0.00174642
H        2.03602953       4.44944271       3.43029820      -0.02017920      -0.01782495      -0.00295077
H        0.45626235       4.64309118       3.24675194      -0.02331197      -0.01315317      -0.00492120
H        1.45514160       5.91984656       3.05551649      -0.01721559      -0.01680583       0.00192872
N       12.07145196       1.63237754       8.26637595      -0.00000895       0.00074330       0.00154315
H       12.50120504       1.17878260       7.46387459      -0.00335072      -0.00819385       0.00397322
H       11.10754369       1.31339045       8.26474208      -0.00124487       0.00230632       0.00716146
H       12.52251566       1.21204089       9.07687252      -0.00012866       0.00846780       0.00370835
N        9.66579744       9.09465987       1.08176561       0.00444603       0.01192245      -0.00494504
H       10.22581489       8.63753618       1.79890568       0.01413439       0.00922746      -0.00447261
H        9.55534643       8.41835647       0.33377627      -0.00549116       0.01278345       0.00382945
H        8.74555582       9.21633380       1.49389836       0.01256312       0.01626763       0.00913064
N        4.23854648       4.41762075       7.68624407       0.00685738      -0.00237353      -0.00718254
H        5.09017214       4.64916008       7.17344714       0.00352129       0.00131613       0.00300218
H        4.54190160       3.86043722       8.48534237      -0.00636967       0.00208201      -0.00261983
H        3.88032749       5.29148758       8.05609894      -0.00630420       0.00411315      -0.00913591
N       10.30119151      11.79742787      12.00600527       0.01067603      -0.00886035      -0.00891829
H        9.35622280      11.95016815      11.64618997      -0.00146109      -0.02359204       0.00249021
H       10.22178519      10.97549633      12.61088678       0.02368918      -0.01399500      -0.01137229
H       10.83217196      11.49292768      11.18586212       0.00029410       0.00463634      -0.01131816
N        9.63545796       7.33264811       6.58332453       0.00262865       0.00314277       0.01057094
H        8.82416696       7.93031980       6.41289615       0.00287476       0.00589050       0.01475695
H       10.41752356       7.98253464       6.64543965       0.00805376       0.00374871      -0.00146462
H        9.50888220       6.95450839       7.51676029       0.01309802       0.00741290       0.00841426
N       11.87974343       6.16499160       0.80440201       0.00835112      -0.02283047      -0.01231499
H       11.61516731       6.84334474       1.52000706       0.00105123      -0.04667635       0.00255943
H       12.31571983       6.69170027       0.05442977      -0.00296698       0.00967327       0.00306118
H       12.64390052       5.63718397       1.22442349       0.01805278      -0.02182680      -0.03287757
N        9.69902632       2.26345592      11.20723090       0.00028631      -0.00346392      -0.00068384
H       10.43800549       2.54023124      10.56594021      -0.00407147      -0.00346163      -0.00249873
H        9.12996916       3.10335174      11.32582426      -0.00261834      -0.00694834      -0.00118486
H        9.09800406       1.64528932      10.66457625       0.00072108      -0.00881879       0.00096616
N       10.04374200       6.56027862      10.69479998       0.00252253      -0.00400011      -0.00351860
H       10.45378612       6.32464078      11.59505195       0.01083377      -0.01197238      -0.00945277
H       10.33400513       7.50275945      10.46038969      -0.01426777       0.00098066       0.00822601
H       10.46410931       5.93580690      10.00268644       0.00799321       0.00990677      -0.01437255
N       12.29940810       0.53960411       2.38352432      -0.00452921       0.01454835       0.00692791
H       12.26608148       1.19233257       3.16815684      -0.01097099       0.01413348       0.00845066
H       13.25085651       0.61896833       2.01931294      -0.00410600       0.01688505       0.01483670
H       12.25702311      -0.38842098       2.80354347      -0.00284792       0.01524446       0.00967612
N        9.88520356       3.38437584       1.56351584      -0.00429350      -0.00265014      -0.00804661
H       10.32579318       4.20366602       1.14468617      -0.01164874      -0.00285852      -0.02107929
H        8.90867178       3.38602979       1.26914069      -0.00984055      -0.00020870      -0.00240115
H        9.88815762       3.56402961       2.56591967       0.00324851      -0.00417169      -0.01532604
N        1.17925131       6.38272721       9.87961457      -0.00309706      -0.00643850      -0.00182402
H        1.41531783       5.53919291      10.39263796      -0.00655707      -0.01471084      -0.00962029
H        0.28620245       6.69885725      10.23990663      -0.00683866      -0.00916632       0.00718117
H        1.86612319       7.11222793      10.10104631      -0.00607566      -0.01443037       0.00083984
N        4.44012819       8.34822869       7.25633566      -0.00501624      -0.00543457       0.00517000
H        3.59404718       7.78324109       7.16354856      -0.00049449      -0.00397986       0.00130121
H        4.53937270       8.56697868       8.24258684      -0.00794770      -0.00752661       0.00857845
H        5.22772571       7.75320344       7.02273705      -0.00086677      -0.00588997       0.01037490
N       11.41622317       4.80522312       8.38483764       0.00091621      -0.00588669      -0.01106028
H       11.09044086       5.05959477       7.45825953       0.00301335       0.00390387      -0.00629064
H       11.68371639       3.81956071       8.34407591      -0.00203385      -0.00542144      -0.01568537
H       12.26881772       5.33548922       8.55031375       0.00604886      -0.00920583      -0.00551807
N        1.20523368      -0.06594697      10.47050268       0.01311443       0.00173679      -0.00223929
H        1.65178539      -0.67941423       9.79273959       0.01086886      -0.00034560      -0.00017545
H        0.30290210      -0.50157840      10.64019126       0.00659814       0.00505039      -0.00630405
H        1.74502422      -0.12652984      11.32813474       0.00689930      -0.00128026      -0.00159170
N        2.81465682       0.70102280       7.63123612      -0.00283553       0.00646891       0.00495334
H        2.52149936       1.52698308       8.13940994      -0.00614525      -0.00415160       0.00577956
H        3.47248917       1.01037957       6.91787881       0.00856576       0.00450431       0.01673136
H        3.36608040       0.14646883       8.27836612      -0.00789627      -0.00524874       0.01217575
N        8.90441454      12.63441418       1.96307196       0.01523343       0.00042510       0.00406769
H        9.30468313      11.97086725       2.62682914       0.02034366       0.00643355       0.00542085
H        8.37904871      12.07966078       1.29260821       0.01999035      -0.00692825       0.00389872
H        8.20070689      13.16062783       2.48032001       0.01212804      -0.00135211      -0.00027375
N        5.30992698       2.37625279       9.94883527      -0.00544618      -0.00524351      -0.00985587
H        6.24193822       2.11268999       9.63580518      -0.00431491       0.01583965      -0.01800350
H        4.70866032       1.63471740       9.60507996       0.00613002      -0.01569672      -0.00981081
H        5.32820110       2.27812143      10.95859655       0.00363486      -0.01328710      -0.01039635
N        1.96895312       7.99629550       3.88168549      -0.00251889       0.00880031       0.00513560
H        2.77579233       8.05407284       3.27128401      -0.00000293       0.01086219      -0.00493313
H        2.31452956       7.76294376       4.80783789       0.00181060       0.02726469      -0.00190397
H        1.55640582       8.92304936       3.94748185      -0.01041586       0.00699672      -0.01128130
N        0.13874176       2.36618249      12.65488286      -0.00099626       0.01411897       0.00864286
H        0.20000987       3.20017766      13.23577930      -0.01579031       0.00349288       0.01771300
H        0.38810705       2.68949940      11.72098456       0.00000477       0.02961030       0.00943087
H        0.93914365       1.79735085      12.95589841       0.00345014       0.01756597       0.00132262
N        6.93684199       2.43009410      12.99432201      -0.00858057       0.00202194       0.00559248
H        7.16098404       3.14867939      12.30190255      -0.01236246       0.00476491       0.00186199
H        5.96094919       2.56794117      13.24955562      -0.00773915      -0.00896404       0.00039044
H        6.99515193       1.52984447      12.52386968       0.00467487       0.00422496       0.00698625
N       11.51510263       7.81541165       3.48292127      -0.01177800       0.00680627      -0.00781527
H       11.72455913       8.80975047       3.43211838       0.00628493       0.00616874      -0.00467797
H       12.42809290       7.40229882       3.67016284      -0.02072960      -0.00802964      -0.00886206
H       10.97237906       7.70629734       4.33503805      -0.01528667       0.01496562      -0.01194333
N        1.77596441       6.60842210       6.80428097      -0.00362971       0.00156692      -0.00692041
H        0.92088017       6.98527937       6.41014061      -0.00018628       0.00014659      -0.02165235
H        1.59013463       6.44673540       7.79792611      -0.01723499       0.00520373      -0.00959983
H        1.92768221       5.70349460       6.37201746       0.00312026       0.00289819      -0.00258572
N        4.11605208       4.03591904       1.10417075      -0.00658392       0.00226992      -0.00409018
H        3.19975580       4.26944542       1.48244290      -0.01473166      -0.00251608      -0.00463794
H        4.15620930       4.48277283       0.19477417      -0.00752604      -0.00188468      -0.00126750
H        4.78381570       4.53573198       1.68183736      -0.01461417       0.00522765      -0.00104762
N       11.44450871      10.93606350       9.18925909      -0.00360365       0.01594458      -0.00036409
H       10.44411761      10.82305200       9.03449376      -0.00196285      -0.00210085       0.00217903
H       11.87905875      10.07635826       8.86939799       0.00871867       0.00666245       0.02599157
H       11.75000619      11.63071021       8.51337017      -0.00852325      -0.00435614      -0.01384439
N        2.44309486      12.59536530       4.23714465      -0.01470896       0.01249685       0.01103958
H        1.71419768      13.07177002       4.75969871      -0.00459529      -0.00802506       0.03084831
H        3.23990080      12.56400875       4.86563907       0.00077365       0.00665191      -0.00304981
H        2.09910784      11.64373042       4.14663797      -0.00445234       0.00824135      -0.00106925
N        2.87543757       3.28389881       5.03904682       0.00119855      -0.01018004       0.00135279
H        1.89144721       3.04989005       5.12780563       0.00891875      -0.01069062       0.00089531
H        3.21914672       3.54713669       5.96677823       0.00096448       0.00190116       0.00539618
H        3.34295847       2.41708291       4.79550396       0.01039879      -0.00907015       0.01687702
N        8.45261333       3.14656469       8.20088900       0.00028862      -0.00335766      -0.00044107
H        7.65938799       3.70201594       7.89184329       0.01223645       0.00713242      -0.01132631
H        8.80767663       2.71100443       7.35342806      -0.00305690      -0.01974473       0.01215767
H        9.16156866       3.80495583       8.50942406       0.01122268      -0.00728634      -0.00383059
N        7.42208440       8.33822778       3.62609897      -0.00641894      -0.00665541       0.00569443
H        7.34609255       8.66639314       4.59118392       0.00310252      -0.00067285       0.00619476
H        8.41661572       8.20699919       3.47423464      -0.00166392      -0.02465940       0.00786481
H        7.00867272       7.41049831       3.61109495      -0.01904790       0.00939700       0.00482807
N        1.83817766       3.13983721      10.01969491       0.00311574      -0.00367722       0.00647758
H        1.50568211       3.42621081       9.10591065      -0.00312011      -0.00450386      -0.00378051
H        1.71206065       2.12963021      10.08140686      -0.00854730      -0.00100070       0.00526843
H        2.83710705       3.31796816      10.03473780      -0.00473720      -0.01081715      -0.00147477
N        8.73772295      13.41699109       5.87907334      -0.00198677      -0.01312964       0.00734847
H        8.26867029      12.74014771       5.27965837      -0.01768442      -0.00761338       0.00470233
H        8.32846184      13.27441012       6.79883467      -0.01192180      -0.01511511       0.01126683
H        9.70130076      13.09844271       5.94557676      -0.01634212      -0.01968015       0.00660361
N        1.88191133      10.39544419       7.72728928      -0.01212613      -0.00839876      -0.00975672
H        2.71367749       9.97872785       7.31613833      -0.00812738       0.00443485      -0.00906063
H        1.87906337      11.37222838       7.43618086      -0.01441493      -0.00024156      -0.00151529
H        1.08559809       9.95375720       7.27869379      -0.00643837      -0.00216396      -0.01708066
N        7.31361880       9.65907632       6.54058796       0.00530558      -0.00800088       0.00329118
H        6.31497491       9.66896540       6.73185928       0.00492232      -0.00271194       0.00104256
H        7.48286700      10.47465219       5.95604702       0.00866645      -0.01251560      -0.00569089
H        7.77236590       9.85088833       7.42678668       0.00522222      -0.00147699      -0.00058751
N        9.73230863       5.20682713       4.12352135      -0.00584513       0.00244996       0.00462023
H        8.75506268       5.26979498       3.85498553       0.00858213      -0.04770807      -0.00759618
H       10.24220371       5.74058637       3.42486675      -0.01192279       0.01769130      -0.00356059
H        9.79768977       5.76052803       4.98182129      -0.03045404       0.01170983      -0.00574728
N        2.63712797       0.90731244       1.21509762       0.00232291       0.00234591       0.00292383
H        3.21198529       0.22207686       0.71788397       0.00707505       0.00617452       0.00065052
H        2.70715584       0.66127396       2.20699111      -0.00158215      -0.00308943       0.00041860
H        3.11483331       1.80103302       1.11661130       0.00301462       0.00293826       0.01109891
N        4.85512240       7.76736872       1.59171817       0.00215847       0.00975925       0.00454155
H        5.33190152       7.41248537       0.76558306      -0.00628375       0.00763036       0.00495420
H        5.53808372       8.34114064       2.08100929      -0.00757303       0.00681165       0.00205886
H        4.13784806       8.39082929       1.24077371      -0.00501808       0.01824772      -0.00441572
N        4.20723032      11.13810055       0.06544794       0.00762179       0.01346448       0.00215782
H        4.74874366      10.94893566      -0.77440237       0.01738074       0.01448715       0.00357758
H        3.48370651      10.42951743       0.12890072       0.00666560       0.02834254      -0.00494863
H        4.83044687      11.00068781       0.85203743       0.00834255       0.00212531       0.00723810
N        6.78194367       1.90803888       3.28451024       0.00643101       0.01209721       0.00649868
H        7.44887164       2.16282745       4.00502749       0.01525272       0.00480440       0.00330375
H        5.88516452       2.31278166       3.52658462       0.01381299       0.02080498       0.01490387
H        7.06135326       2.31222107       2.39105642       0.00184842       0.00882550       0.00429177
N        6.40947782      11.53657528       4.17220283       0.01120701      -0.00903791      -0.00991151
H        5.49573526      11.31690478       4.55055447       0.00735135      -0.00790446      -0.00697909
H        6.68915374      10.75593091       3.58801262       0.01054380      -0.01085773      -0.00512329
H        6.31699931      12.37266143       3.60096058       0.01078070      -0.01085992      -0.00805122
N        5.41106194       1.25464172       6.12493252       0.00875965       0.00063986       0.00950451
H        6.10874333       1.01050533       5.43213072      -0.00050411      -0.00313141       0.00021093
H        5.68818259       0.75757552       6.96935911       0.01808790      -0.00559538       0.00595376
H        5.53154528       2.24225787       6.33021971       0.01639446      -0.00392148       0.00975495
N        7.47656984       4.70848169      11.01125943      -0.00208655       0.00563118      -0.00662127
H        6.83896547       5.37081866      11.44452923       0.00007218       0.01795964      -0.02285345
H        6.99026577       4.30601312      10.21784868       0.00342196       0.00413361      -0.00916964
H        8.23756624       5.28710105      10.65860725       0.00968492      -0.00796995      -0.00164530
N        1.16480734      10.19779235       0.49988724       0.00687388       0.02755840       0.01576307
H        0.64297509      10.45933344      -0.32970801      -0.01953967      -0.00277222       0.01195906
H        1.50011395      11.06992494       0.89848061      -0.02597752       0.00562388       0.00480289
H        0.49151095       9.82272382       1.15904277      -0.00067349      -0.00754564       0.02678483
N        6.99255234       7.81023521      11.76831759      -0.00385333       0.01024264       0.00106554
H        7.28356485       8.32798663      12.58876212      -0.00796675       0.00048674      -0.00171554
H        6.61008795       8.51043391      11.13625318      -0.00055063       0.01261826      -0.00161598
H        7.84229145       7.45998545      11.33246227       0.00089302       0.01021641      -0.00327766
N        2.80261707       8.94608509      10.42371910       0.01189972      -0.00243436      -0.00177634
H        2.32318671       9.21577011      11.27746323       0.01464616       0.01337751      -0.00205810
H        2.42456093       9.51761518       9.66491078       0.00202344      -0.01633605      -0.00779381
H        3.77132424       9.22659295      10.53964695       0.00791368      -0.00056724      -0.01366729
N       11.79581853       2.74300917       4.96700020       0.00586428      -0.00109772      -0.00163923
H       10.98927962       3.31749049       4.72611549       0.01670523       0.00934454      -0.00054286
H       12.19610091       3.17566056       5.79326152      -0.00256336      -0.01585047       0.01886000
H       11.43645729       1.84714012       5.28498354       0.00357733      -0.00073811      -0.02277343
N        6.89484212       4.77243791       5.89230923       0.00763488       0.00595845       0.00056820
H        7.43213377       3.97782381       5.56635240       0.01489409       0.00962621      -0.01049504
H        7.56541542       5.51704901       6.05056885       0.00638758       0.00204421       0.01508906
H        6.27581903       5.08136387       5.13613788       0.01379306       0.01308277       0.00342054
