187
Lattice="14.063264876449411 0.0 0.0 0.0 14.063264876449411 0.0 0.0 0.0 14.063264876449411" Properties=species:S:1:pos:R:3:forces:R:3 energy=-329465.71875 stress="-0.00037996360333636403 -9.761697583599016e-05 4.487387377594132e-05 -9.761697583599016e-05 -0.0006614284939132631 0.00048299528134521097 4.487387377594132e-05 0.00048299528134521097 -0.0014917637454345822" pbc="T T T"
Ce      15.02783688      12.99313244      -0.20998528      -0.00390452       0.00371903      -0.00033227
N        2.46234432      14.71335354      13.40696551      -0.01701590       0.01565439       0.00515831
C        2.40316347      14.99795906      14.55146931      -0.01960275       0.01256633      -0.00718856
N       13.70286203      12.73159478      11.95598189      -0.01377374      -0.00654227       0.00627708
C       12.97392061      13.45892835      12.53475679      -0.00949013      -0.00846350       0.00368565
N       10.38682895      13.33432597      10.05538692      -0.02036750      -0.01962978      -0.03527474
C        9.82146889      13.06886413       9.06522086      -0.02103192       0.00045416      -0.04074216
O       10.17395056       9.55892682       0.98796919      -0.00087166      -0.00203079      -0.00373416
C       11.39323122      10.23561221       1.19808419      -0.00219738       0.00059748      -0.00454985
C       10.37702447       8.19592844       0.65687802       0.00163239      -0.00121737      -0.00517331
C       11.10788583      11.70157031       1.41405072      -0.00517443      -0.00021780      -0.00406959
C        9.03781982       7.54028854       0.42968120       0.00284290      -0.00354037      -0.00497730
H       11.91343727       9.80162569       2.06851438      -0.00065650       0.00159217      -0.00505254
H       12.04405044      10.09371234       0.31935578      -0.00262155       0.00220877      -0.00505194
H       11.00286539       8.12863884      -0.24541843       0.00111642       0.00095492      -0.00560576
H       10.92531882       7.70429720       1.47231217       0.00312220      -0.00108112      -0.00611761
H       12.04243065      12.24070479       1.60717468      -0.00626940       0.00232373      -0.00641565
H       10.64216622      12.14145528       0.53266505      -0.00832431      -0.00156451      -0.00303656
H       10.45894731      11.84593407       2.27726205      -0.00366297      -0.00173863      -0.00271747
H        9.17015688       6.48847880       0.17398922       0.00466735      -0.00299250      -0.00602790
H        8.41466743       7.60499468       1.32321666       0.00332932      -0.00549057      -0.00460327
H        8.51383009       8.02814107      -0.39193122       0.00140137      -0.00375696      -0.00410761
O       10.52562980       3.18687295       2.91060799       0.00026596      -0.00384983      -0.00393316
C       11.78825462       3.73774042       2.59560662       0.00139952      -0.00427252       0.00011462
C       10.60620565       1.78969342       3.13620808      -0.00075936      -0.00371853      -0.00290567
C       11.61149245       5.20815025       2.31803709       0.00326641      -0.00400025       0.00056820
C        9.22898626       1.26264728       3.44731335      -0.00184834      -0.00349882      -0.00825268
H       12.48747599       3.57505182       3.42947869      -0.00131232      -0.00524697       0.00202501
H       12.20797892       3.22592047       1.71697191       0.00366850      -0.00395989       0.00113207
H       11.02047479       1.30026290       2.24129933       0.00284429      -0.00399013      -0.00099397
H       11.29685373       1.59284877       3.96817496      -0.00426647      -0.00346879      -0.00007379
H       12.56587988       5.66894910       2.05993328       0.00433676      -0.00478257       0.00327545
H       10.92106350       5.35035941       1.48723553       0.00556424      -0.00285692      -0.00108175
H       11.20387116       5.71689025       3.19235210       0.00161518      -0.00408439      -0.00028749
H        9.25544716       0.18012713       3.56882551      -0.00149605      -0.00303304      -0.00513741
H        8.85341928       1.69551996       4.37213974      -0.00660770      -0.00146593      -0.01122512
H        8.53814161       1.50812993       2.64056207       0.00192894      -0.00606143      -0.01218547
O        7.55084431       7.55881306       3.96767073       0.00269112      -0.00256059      -0.00151920
C        7.59776924       6.17496995       4.28079536       0.00629705      -0.00284520      -0.00389957
C        8.81375039       8.17514350       4.18526900       0.00107238       0.00046384      -0.00147803
C        6.23700000       5.56919281       4.04010593       0.00794256      -0.00569300      -0.00507963
C        8.69002977       9.66299818       3.97761580      -0.00290361       0.00011927      -0.00099997
H        8.35527072       5.67792655       3.65592036       0.00757861       0.00012131      -0.00450793
H        7.90793536       6.04986219       5.32838270       0.00638976      -0.00410097      -0.00410813
H        9.16262630       7.93871554       5.19686997       0.00191462       0.00111200      -0.00167054
H        9.54848616       7.75051103       3.48359999       0.00200102       0.00274038      -0.00186825
H        6.25655507       4.50139623       4.25796321       0.01036816      -0.00569102      -0.00554124
H        5.48532673       6.03711046       4.67721041       0.00661185      -0.00754198      -0.00539501
H        5.93729093       5.70203860       3.00044947       0.00835078      -0.00557999      -0.00516200
H        9.66420069      10.13230671       4.12281836      -0.00409657       0.00269416      -0.00200022
H        8.35663439       9.88604347       2.96548716      -0.00460760      -0.00081274      -0.00060210
H        7.99355317      10.10241779       4.69242593      -0.00315927      -0.00175252      -0.00027055
O       10.74683109       7.28417285       6.85674974       0.00265422       0.00134378       0.00109339
C       11.73342806       6.43545615       6.30690076       0.00448195       0.00368935       0.00125363
C       11.16514352       8.64276100       6.92646036       0.00071028       0.00178948       0.00254165
C       11.17718643       5.03563366       6.21561047       0.00682881       0.00309777      -0.00118776
C       10.07714017       9.45344548       7.58144921       0.00084436      -0.00056979       0.00528318
H       12.02648172       6.80692857       5.31162164       0.00534178       0.00553849       0.00228363
H       12.63554779       6.45854085       6.93645431       0.00351435       0.00421101       0.00251275
H       12.10524908       8.70688041       7.49110938       0.00139901       0.00235783       0.00119564
H       11.37567775       9.01383559       5.91082175      -0.00108001       0.00370571       0.00298893
H       11.93587162       4.34974823       5.83678375       0.00883651       0.00451785       0.00052678
H       10.84017690       4.69023990       7.19192595       0.00487738       0.00190299      -0.00236732
H       10.32148125       5.00363877       5.54131513       0.00878718       0.00254906      -0.00364196
H       10.34946917      10.50812873       7.62119544      -0.00038332      -0.00038713       0.00515656
H        9.14835778       9.34668995       7.02046343      -0.00021869      -0.00120860       0.00723442
H        9.89742952       9.10798673       8.60018259       0.00343522      -0.00169697       0.00531219
O        3.84078592       9.67856031       3.29531630      -0.00883947      -0.00038588       0.00086749
C        4.34577879      10.30612556       4.46661218      -0.00635152       0.00133955      -0.00118423
C        4.12305443       8.28317235       3.33561127      -0.00554110       0.00034863       0.00073463
C        4.07985855      11.78955792       4.43131076      -0.01173509       0.00043148       0.00022627
C        3.60026647       7.60286351       2.09377294      -0.01252285      -0.00141767       0.00489846
H        3.86735007       9.86197038       5.34232694      -0.00130740      -0.00030744       0.00059336
H        5.42312615      10.10422676       4.55289176      -0.00533527       0.00522973      -0.00546475
H        5.20619348       8.14095693       3.43147317      -0.00465375       0.00236879      -0.00588948
H        3.65548015       7.85175161       4.23477422       0.00103444       0.00030424       0.00402403
H        4.36963485      12.22683293       5.38671090      -0.01083649       0.00089938      -0.00039408
H        4.65372021      12.28300065       3.64550826      -0.01537360       0.00299107      -0.00070217
H        3.01839365      11.98982675       4.27276238      -0.01280311      -0.00337874       0.00300735
H        3.82350531       6.53631172       2.14147957      -0.00548298      -0.00008951       0.00144327
H        2.51729586       7.70577113       2.00988898      -0.01394637      -0.00794942       0.01539114
H        4.06195344       8.01805635       1.19921016      -0.02275376       0.00239384       0.00134476
O        6.72260859      11.05055379      11.66644294       0.00148639       0.00546759      -0.00151944
C        5.64242860      10.65899203      10.84607320       0.00180680       0.00869980      -0.00339680
C        7.95412680      10.50510312      11.19317438       0.00181997       0.00973179      -0.00532423
C        4.39804003      11.41964324      11.24184229      -0.00052705       0.00030673       0.00539325
C        9.08261999      10.96155756      12.07802120       0.00190267       0.00821030      -0.00474188
H        5.87846041      10.85588561       9.79784482      -0.00005841       0.01846248      -0.00192088
H        5.47261592       9.57233186      10.94542283       0.00597257       0.00733763      -0.01266924
H        7.87340932       9.40379481      11.19349782       0.00403104       0.00968534      -0.00937404
H        8.12760702      10.83630873      10.16139910      -0.00065262       0.01390463      -0.00426859
H        3.58398273      11.17892503      10.55621545      -0.00031833       0.00379375       0.00389977
H        4.09832039      11.14465743      12.25240768       0.00151590      -0.01020101       0.00321494
H        4.58130771      12.49334237      11.19565302      -0.00410026       0.00132512       0.01497332
H       10.01803984      10.52593421      11.72137690       0.00208722       0.01006106      -0.00618327
H        9.19880061      12.04226085      12.01721863       0.00074192       0.00835583      -0.00192276
H        8.92443177      10.64999478      13.10969007       0.00250075       0.00523982      -0.00552447
O        4.11002396      10.49165762       0.48642377       0.00124472       0.00576691      -0.00472960
C        3.13932937      11.42967448       0.79924511       0.00484079       0.00585591       0.00749198
C        5.44266171      11.01106210       0.65680761       0.00354302      -0.00148445      -0.00074963
C        1.80012188      10.71877748       0.99280642       0.00198891       0.00752363      -0.00653608
C        6.40523692       9.85864663       0.62744600      -0.00227490      -0.00624037      -0.00550212
H        3.38993521      11.98540865       1.71306508       0.00471806      -0.01153992       0.01769474
H        3.13283378      12.18422801      -0.03731198       0.00812857       0.02110785       0.02152298
H        5.65845179      11.72522158      -0.14516610       0.00769376       0.00144297       0.00305572
H        5.48977781      11.53304934       1.61956042       0.00543058      -0.00665714       0.00195655
H        1.07880012      11.29071921       1.60649851       0.00466864       0.00041689       0.00325236
H        1.32651493      10.40018116       0.04768336       0.00046919       0.02652783      -0.01275102
H        2.00134283       9.82437934       1.58253984      -0.00257517      -0.00553250      -0.02512491
H        7.42703828      10.23144300       0.69348944      -0.00044306      -0.01218542      -0.00204923
H        6.23032519       9.18214670       1.46487274      -0.00717646      -0.00953916      -0.00922565
H        6.31398132       9.31137847      -0.31044432      -0.00390813      -0.00108250      -0.00828639
O        5.76452928       3.37983882      12.54300340       0.00126436       0.00606687       0.00740391
C        4.88506209       3.48622814      13.65198308       0.00551671       0.00409433       0.01107082
C        7.07881246       3.04030735      12.95638966       0.00135487      -0.00247455      -0.00035337
C        3.49129431       3.80942511      13.17247489       0.00694805       0.01728390       0.01625413
C        7.96507004       2.87312782      11.74710010      -0.00520891      -0.00634796      -0.00496933
H        4.88644867       2.53899511      14.20978737       0.00024817       0.00006837       0.00419986
H        5.25254083       4.26715326      14.33600871       0.01198344      -0.00344288       0.01617318
H        7.46595252       3.82901309      13.62046895       0.01122952      -0.00404727      -0.00445974
H        7.04868746       2.11086807      13.54366831      -0.00137939      -0.00103903       0.00160664
H        2.79856290       3.79801130      14.01492732       0.00862549       0.01933977       0.01769181
H        3.44598699       4.79046325      12.70300585       0.01456654       0.01976936       0.02079563
H        3.15404935       3.06597260      12.45331011      -0.00047727       0.02361281       0.01327084
H        8.98663992       2.65208573      12.05769880      -0.00524290      -0.01306706      -0.00951925
H        7.62681242       2.05280163      11.11556534      -0.01030821      -0.00183272      -0.00817855
H        7.98046769       3.78605070      11.15105894      -0.00193549      -0.00365047      -0.00066490
O        5.10475457      10.27013766       7.54415854      -0.00320493      -0.00059876      -0.00123208
C        4.54646953       8.98344832       7.69852741      -0.00053340      -0.00130665       0.00074221
C        6.52342520      10.23203770       7.41270512      -0.00339520       0.00256950      -0.00275038
C        3.04765192       9.11295361       7.83418247      -0.00049961      -0.00367603       0.00164294
C        7.04106648      11.64286621       7.30495174      -0.00590783       0.00443304      -0.00790365
H        4.80678180       8.35703443       6.83056872      -0.00003243      -0.00179106       0.00131461
H        4.97562590       8.49265291       8.58596505       0.00108141       0.00060427       0.00092983
H        6.95507220       9.72120922       8.28572885      -0.00219768       0.00526665      -0.00052994
H        6.78513433       9.63082111       6.52904403      -0.00250027      -0.00075588       0.00000122
H        2.58641138       8.12630038       7.88211121       0.00116954      -0.00434162       0.00347311
H        2.78383365       9.66188381       8.73851204      -0.00062541      -0.00265938       0.00087829
H        2.62745278       9.65019348       6.98391205      -0.00180941      -0.00565393       0.00112119
H        8.12974814      11.67909505       7.35555695      -0.00567394       0.00469992      -0.00303721
H        6.70770172      12.10952239       6.37630814      -0.00169774       0.01704559      -0.00642912
H        6.68073867      12.24442330       8.13957975      -0.00757614       0.00360524      -0.00795828
O       12.38919988      11.69267227       6.90613281       0.00782543      -0.00765102       0.00130761
C       12.64058578      12.24350060       5.63911791       0.00516906      -0.00092447       0.00370574
C       13.54588857      11.28375858       7.60726024       0.00971865       0.00079517       0.00265348
C       11.36122910      12.87514416       5.14598348       0.00147146      -0.00736815       0.00549884
C       13.15618500      11.02944684       9.04275024       0.00897318      -0.00154072       0.00193292
H       13.43870031      12.99930000       5.71002807       0.00027621       0.00367215       0.00724517
H       12.99295278      11.46385550       4.93935956       0.01024649       0.00410724       0.00070888
H       13.97331114      10.38296294       7.13485341       0.01692343       0.00373751       0.00353563
H       14.30828261      12.07529891       7.54952228       0.00412363       0.00610697       0.00418047
H       11.52087199      13.32861600       4.16723309      -0.00270835      -0.00965323       0.00384888
H       10.57061281      12.12838725       5.06117750       0.00498031      -0.01145369       0.00972944
H       11.02222458      13.63375741       5.85224991      -0.00083683      -0.00739321       0.00434549
H       14.03312360      10.74510553       9.62581205       0.01031035       0.00989780       0.00520367
H       12.70832909      11.92400586       9.47499094      -0.00248140      -0.00554326      -0.00166629
H       12.41718088      10.23088185       9.11109518       0.01818193      -0.01005828       0.00145526
O        8.22926891       4.79664248       7.96011955       0.00729728      -0.01155623       0.00646780
C        7.76267622       5.75952955       8.88750753       0.00692829      -0.00590405       0.00137571
C        7.17401906       4.06858658       7.36374578       0.00525901      -0.00804222       0.00393075
C        8.94795707       6.33357156       9.62208637       0.00445050      -0.00411814       0.00391227
C        7.75242071       3.08329609       6.38012313       0.00365183      -0.01049033       0.00672767
H        7.21017049       6.54980428       8.35376908       0.01172480      -0.00733376      -0.00533915
H        7.05782638       5.28756512       9.58756437       0.00230536      -0.00039017       0.00096878
H        6.60477480       3.54238561       8.13838101       0.00585181      -0.00499669       0.00515148
H        6.47744747       4.76149040       6.86443967       0.00828540      -0.00481352       0.00563303
H        8.62343499       7.10854409      10.31813805       0.00215072      -0.00132955      -0.00075196
H        9.45913273       5.55179324      10.18485175       0.00086640      -0.00165720       0.00937639
H        9.65032635       6.76557407       8.91148974       0.00778629      -0.00683901       0.00629860
H        6.95023306       2.51279274       5.90883449       0.01158816      -0.02811784       0.01111907
H        8.31148020       3.59937503       5.59907618       0.01423688      -0.01381105       0.01304708
H        8.42063202       2.38351108       6.88350342       0.00391935      -0.00238110       0.01261374
O        2.77831265       5.63258887      10.01510248      -0.00659931       0.00426430      -0.00168245
C        4.14804160       5.26483870      10.01730358      -0.00787142      -0.00034136      -0.00399284
C        2.54728935       6.89420238      10.60786231      -0.00180817       0.00265098       0.00358730
C        4.25333347       3.82478794       9.57907289      -0.01288436      -0.00104982      -0.00247620
C        1.08624759       7.23200927      10.43939605      -0.00135756       0.00711169       0.00941750
H        4.71084857       5.93066051       9.34470386      -0.00694865      -0.00305218      -0.00587770
H        4.57226383       5.38607509      11.02218740      -0.00557896      -0.00072842      -0.00506103
H        2.81914284       6.86590038      11.67432334       0.00103498      -0.00242861       0.00260234
H        3.18577751       7.65585195      10.13827990      -0.00121713       0.00294706       0.00502411
H        5.25893269       3.44918639       9.76035204      -0.01298775      -0.00277342      -0.00567219
H        3.56574446       3.21349072      10.16054101      -0.01222941       0.00110242       0.00064084
H        4.00921825       3.71441851       8.52211865      -0.01632819      -0.00212133      -0.00147437
H        0.86219742       8.20761962      10.87169357       0.00227947       0.00498410       0.01596929
H        0.81967623       7.25422109       9.38212898      -0.00448468       0.01440812       0.01042181
H        0.46607119       6.48093139      10.92895561      -0.00161213       0.00573310       0.00675695
