196
Lattice="13.945394743742174 0.0 0.0 0.0 13.945394743742174 0.0 0.0 0.0 13.945394743742174" Properties=species:S:1:pos:R:3:forces:R:3 energy=-1131818.75 stress="-0.0009388245525769889 -0.0002888669114327058 -0.000355938114807941 -0.0002888669114327058 -0.0007979305810295045 0.0001668194236117415 -0.000355938114807941 0.0001668194236117415 -0.0016804286278784275" pbc="T T T"
Ce      14.33357436      12.17306526      -1.94830060       0.00513609       0.00081331      -0.01370171
I        1.89874342       9.70698043      10.29228427       0.00249663       0.00583410      -0.01108158
O        3.11789451       8.96703093      11.37415434      -0.00268847      -0.00232588      -0.01352215
O       -0.05326936      13.87048540      11.56028533      -0.00555328       0.00005400      -0.00917357
O        0.32961757       9.80965951      11.29517450       0.00143439       0.00379288      -0.01539196
O        2.17602660      11.52702826      10.62897707       0.01252130       0.00237623       0.00881009
I        5.37275255      10.98578832       3.53991670      -0.01025757      -0.00494446      -0.02562205
O        4.65791749      12.54499690       4.05438876       0.00364038      -0.00605386      -0.01038603
O        4.14850340       9.73818546       3.95850650      -0.00178617       0.00688246       0.00232600
O        5.48689391      10.86793201       1.75001410       0.00684570      -0.01339102       0.03011489
O        6.89312266      10.55803202       4.37341289      -0.00506496      -0.00226423       0.01176661
I        8.55198045      13.53918505       3.86607030       0.00283678       0.01006003      -0.00953914
O        9.14127344      15.20770415       3.57662408       0.00857508      -0.00008416      -0.02384904
O        7.92383008      13.46548900       5.53742335       0.00956255       0.01780488      -0.01454633
O        7.25579236      13.15884190       2.68552568       0.00864249       0.00075249      -0.00401187
O        9.90073559      12.37824573       3.66447679       0.00676942       0.00384003      -0.00142923
S       11.00631555       2.15380163       9.34796933      -0.00545561       0.00249288       0.00182915
O       10.29214993       1.96571212       8.04547748      -0.00812501       0.00380531       0.01003659
C       11.29391866       3.91743769       9.50365636       0.00218792       0.00194019       0.00284967
C       12.70237873       1.63798198       9.13504876      -0.00597346      -0.00096424      -0.00162843
H       10.32192489       4.39182573       9.60498136       0.00407527       0.00535744       0.00675305
H       11.79447779       4.28497098       8.60565178      -0.00107905      -0.00003509       0.00022143
H       11.86289164       4.11952157      10.40945416       0.00668418      -0.00001131      -0.00051928
H       13.24957883       1.79643065      10.06443064      -0.00199129      -0.00017589      -0.00523165
H       13.15536854       2.17129363       8.29992896      -0.00901561      -0.00314850      -0.00483146
H       12.69033261       0.57162358       8.93503067      -0.00880095      -0.00129473       0.00077598
S        9.10058156       3.18465556      13.63809385      -0.00451761       0.00189352      -0.00088167
O        8.49300134       4.21397156      14.53647503      -0.00310969       0.00674784      -0.00388443
C       10.86322706       3.55868273      13.53683427      -0.00537324      -0.00120023       0.00569775
C        8.70233612       3.67938134      11.95065268       0.00288109       0.00293621      -0.00121254
H       11.29179221       3.35293272      14.51472229      -0.01062456       0.00094217       0.00779779
H       10.97633785       4.60952598      13.26820349       0.00040419      -0.00277245       0.00371908
H       11.32242979       2.91284453      12.78782519      -0.00172924      -0.00327259       0.01057010
H        9.05970566       2.90346150      11.27123069       0.00711596       0.00348976       0.00047299
H        9.14827718       4.64996136      11.72774523       0.00076538       0.00214204      -0.00097760
H        7.61712952       3.73964959      11.89400257       0.00306992      -0.00030553      -0.00844510
S       11.21254318       4.53342166       5.31094728       0.00100142      -0.00786528      -0.00291586
O       11.63975148       5.26714381       6.55283511       0.00515842      -0.00966847      -0.00334203
C        9.57803179       3.88509652       5.62572496      -0.00015676      -0.00342557      -0.00114664
C       12.05792748       2.94247842       5.30881330      -0.00423858      -0.01038909      -0.00438522
H        8.88264454       4.72326783       5.65691815       0.00140341      -0.00178264      -0.00201094
H        9.62342170       3.35799125       6.58054132      -0.00081015      -0.00182283      -0.00013131
H        9.32336324       3.18715132       4.82503615      -0.00140998      -0.00322086      -0.00018364
H       11.66269679       2.35097365       4.48205736      -0.00562224      -0.00783300      -0.00573348
H       11.84734967       2.44644946       6.25627733      -0.00627275      -0.01064863      -0.00534627
H       13.12302727       3.12098609       5.17656231      -0.00367792      -0.01356709      -0.00356265
S        2.43898551       7.29037381       0.38641466      -0.00217134       0.01500511      -0.00055408
O        2.51638901       5.79664032       0.34301666      -0.00259405      -0.00162029      -0.00082398
C        4.12507297       7.89985695       0.25310063       0.00264484       0.00026192      -0.00366493
C        2.17735732       7.70324121       2.12575091       0.01010146       0.00226955       0.00673926
H        4.43224461       7.72164202      -0.77460619      -0.00554825       0.01068476      -0.00707299
H        4.75408416       7.34719507       0.95100611       0.00581342      -0.01304957      -0.01239257
H        4.15978763       8.96671187       0.46998548       0.01076262       0.00155324       0.00976105
H        2.56024884       8.69103910       2.37153294       0.00529826       0.00996442       0.00418163
H        2.69766120       6.95004289       2.71806962       0.02252336       0.00457343       0.00368096
H        1.10626864       7.64495086       2.30987014       0.01050352      -0.00725773       0.01223155
S        6.69252619      12.22462190      10.29452615      -0.00743169      -0.00636411       0.00481427
O        7.51061957      13.06958865      11.22293562      -0.00326002      -0.00598741       0.00132275
C        5.09252558      13.00304708      10.10267389      -0.00660330      -0.00392765       0.01020877
C        6.10878705      10.81526376      11.25379470      -0.00238395      -0.00529450       0.00896138
H        5.22428228      13.93039072       9.54634744      -0.00559045      -0.00484732       0.00908083
H        4.68107073      13.21124681      11.08908589      -0.00379611      -0.00232479       0.01096793
H        4.44844570      12.30826893       9.56912457      -0.01031742      -0.00246760       0.01313423
H        5.33654625      10.29374500      10.68953199      -0.00419030      -0.00844343       0.01426940
H        5.70830853      11.18515020      12.19765861       0.00129019      -0.00516634       0.00982812
H        6.96018851      10.16158108      11.43830623       0.00015254      -0.00330461       0.00611618
S        2.41907691      11.96683889       0.71232537       0.00125200      -0.00646704       0.00946024
O        1.21665239      12.75768032       0.16967566       0.00730932      -0.01285166      -0.01557513
C        1.93972174      11.57162553       2.38030148      -0.02047516       0.01542718       0.00665212
C        3.67608602      13.21988285       0.97251448       0.00028992      -0.00345719       0.00147161
H        0.99700743      11.03140663       2.31497405      -0.01517746       0.00567237      -0.00372856
H        1.83111561      12.50157202       2.93430516      -0.03633674       0.01661578      -0.00266428
H        2.68877888      10.92849572       2.84186861      -0.02194776       0.02710189       0.02188132
H        4.65913634      12.77412618       0.84946823      -0.00124657      -0.01195511       0.01210441
H        3.56219405      13.62007705       1.97599834      -0.00036041       0.00963750      -0.00053629
H        3.46307888      13.97779772       0.22120357       0.00861525      -0.01750164      -0.00507209
S        4.84428922       3.38750067      12.23280574       0.00097251      -0.00178599      -0.00329165
O        3.39566676       3.10954162      11.98683419       0.00008392      -0.00177997      -0.00533207
C        5.67795527       1.79334969      12.20070925      -0.00041792      -0.00157005       0.00648275
C        5.02504506       3.70657386      13.99325783      -0.00521439       0.00593694      -0.00451577
H        5.81360466       1.53058362      11.15593081      -0.00386781      -0.00994387       0.00831908
H        5.02289069       1.07705156      12.69498339       0.00291289       0.00187536       0.01505698
H        6.63717616       1.82971409      12.71267557       0.00176179       0.00335371       0.00180256
H        6.07612897       3.90647143      14.21392729      -0.00522141       0.00636411      -0.00282286
H        4.66339450       2.83609950      14.54186996      -0.00613797       0.00816348      -0.00199634
H        4.39293465       4.56886298      14.20709736      -0.00468104       0.00623304      -0.00991652
S        4.43829329       9.69561215       7.27087338       0.00055934       0.00068051      -0.00268364
O        3.96843829      10.36411671       8.54324127       0.00395834       0.00267512      -0.00288832
C        3.93521727       7.97991842       7.47133247       0.00108416       0.00015497      -0.00476344
C        6.20394867       9.42311003       7.46273106      -0.00050908       0.00381307      -0.00007236
H        2.86998443       7.91699573       7.25839596      -0.00042802       0.00300741       0.00205536
H        4.12287394       7.73040696       8.51572291       0.00669962      -0.00328743      -0.00639212
H        4.50605305       7.32869140       6.81219046      -0.00472621       0.00139040      -0.01042770
H        6.54942023       8.81256101       6.62834001       0.00160836       0.00354247       0.00075714
H        6.38483289       8.93692444       8.42210606       0.00023129       0.00627277       0.00002067
H        6.68307558      10.39877400       7.41674673      -0.00244478       0.00442392      -0.00105487
S       10.11658233       7.57572986      10.07283966       0.00428456       0.00564241      -0.01030302
O       10.22011940       6.45275402      11.05790768      -0.00077415       0.00907874      -0.00792742
C        9.26975463       6.94306960       8.61013806       0.00996579       0.00314394      -0.01233512
C       11.73855688       7.78788445       9.33040725       0.00736278       0.00287021      -0.00499696
H        8.31134657       6.55987005       8.95384590       0.00587296       0.00938464      -0.01714188
H        9.86000480       6.16391497       8.12768726       0.00882886      -0.00150181      -0.00546526
H        9.09969951       7.76589115       7.91657817       0.01850070       0.00084250      -0.01684192
H       11.67325619       8.56403283       8.56693868       0.01037170       0.00022210      -0.00761535
H       12.05758935       6.84760389       8.88232552       0.00845625       0.00128368      -0.00062688
H       12.42672942       8.09691214      10.11607157       0.00467509       0.00518327      -0.00349569
S        9.50989996       8.45733756       1.61109765       0.00500119      -0.00355923      -0.00031340
O        9.03177443       7.94096259       2.93218473      -0.00106287      -0.00914788       0.00079548
C        8.71041990      10.04252945       1.35274153       0.01441330       0.00141984       0.00861551
C        8.62679823       7.52804135       0.34605962      -0.00142437       0.00686377      -0.00163805
H        9.07715452      10.72880358       2.11489904       0.01657651      -0.00283466       0.00989434
H        7.62977603       9.93581184       1.43845021       0.01264668       0.00692098       0.00686029
H        8.98727503      10.40846505       0.36470965       0.01507293       0.00310755       0.00963571
H        8.98338653       7.82208970      -0.64135177      -0.00256002       0.01192942      -0.00110350
H        7.55512652       7.70470256       0.44738082      -0.00003058       0.01030438       0.00215775
H        8.84594819       6.47247463       0.50575098      -0.00488691       0.00566004      -0.00866236
S       11.35074810      11.88113294       7.56480340      -0.01200879      -0.00457680       0.00290716
O       10.89067445      12.50710720       8.85212941      -0.01528788      -0.00645673       0.00428748
C       11.56348095      13.22159461       6.39311076      -0.00948674      -0.00125873       0.00819772
C        9.87618951      11.15100214       6.83852883      -0.01138818       0.00067124      -0.00233167
H       12.50264182      13.70795630       6.65488602      -0.00946069      -0.00242952       0.01144239
H       10.72276222      13.90535601       6.51441500      -0.00850643      -0.00164852       0.00698045
H       11.59739904      12.81152409       5.38441099      -0.00614684       0.00062180       0.00708989
H       10.07071923      10.86320141       5.80621857      -0.00525757      -0.00287252      -0.00099216
H        9.07157685      11.88556071       6.86227128      -0.00843549       0.00277844      -0.00994093
H        9.63163366      10.27551300       7.43993235      -0.01828782       0.00299686      -0.00250518
S        5.68077279       2.90195503       7.87964568       0.00107205       0.00300765       0.00596416
O        5.03965115       2.23520758       9.05988855       0.00505912       0.00011879       0.00722563
C        6.95333308       1.78858541       7.28547485      -0.00588048       0.00102735      -0.00317603
C        6.76851843       4.17107817       8.54053441       0.00958711      -0.00374347       0.00453976
H        6.46226486       0.89362218       6.91144874      -0.01062220       0.00351003      -0.00247692
H        7.64325786       1.54299126       8.09257933      -0.00228253      -0.00254049      -0.00777966
H        7.49626765       2.25181592       6.46334182      -0.00911652       0.00194462      -0.00490600
H        7.23166698       4.68851772       7.70174065       0.00744788      -0.00358070       0.00319238
H        7.49761303       3.70690331       9.20449321       0.01164303      -0.00928016      -0.00205222
H        6.13372356       4.85906521       9.09698573       0.01646328      -0.00278554       0.01042978
S        1.87913744       6.11574497      10.74283708       0.02430987       0.00831342      -0.00495732
O        1.18410803       7.16807445       9.88886323       0.02134562       0.00247300      -0.00579727
C        2.87941050       5.15570329       9.60169073       0.00937179      -0.00433299      -0.00711459
C        0.67304582       4.82316543      11.06071016       0.01169550       0.02549100       0.00279163
H        3.76912258       5.73870816       9.37891737       0.01164210      -0.01295538      -0.01909894
H        2.29514979       4.98749210       8.69673174      -0.00014126      -0.00471101      -0.00037609
H        3.15309129       4.21743554      10.08483686       0.00612972      -0.00422448      -0.00587493
H        1.20753055       4.03062970      11.58764373      -0.00463620       0.01775277       0.00589556
H        0.26296480       4.46847691      10.11522107       0.00803126       0.03175727       0.00309585
H       -0.10692989       5.24399095      11.69135131       0.01718898       0.04142165      -0.00177343
S       11.42633925      12.12014010      11.60385846      -0.00519960      -0.00721570      -0.00246966
O       12.12211169      11.83403236      12.94234543       0.00236052      -0.00551070      -0.00789154
C       10.55410813      13.65401368      11.79810390      -0.00063992      -0.00361168      -0.00136362
C       10.05537103      10.99328259      11.46492576      -0.00762779      -0.00713599       0.00584712
H       11.32266097      14.41940805      11.87385121       0.00546101      -0.00786825      -0.00205039
H        9.93999154      13.59481034      12.69615506       0.00282165       0.00143733      -0.00008991
H        9.93076820      13.79961711      10.92017604      -0.00316648      -0.00260387       0.00070000
H        9.63149667      11.16203631      10.47749404      -0.00833805      -0.00967081       0.00573173
H        9.32821321      11.21231944      12.24380724      -0.00660931      -0.00670996       0.00749865
H       10.45905764       9.98860444      11.54871519      -0.00523806      -0.00566919       0.00822926
S        6.14950527       5.58425755       4.56102735      -0.00050592       0.00111061      -0.00458598
O        6.88858544       5.81255843       5.85149848      -0.00320268      -0.00261039      -0.00141919
C        7.35168238       5.22290505       3.27679158       0.00107569      -0.01336332       0.00210971
C        5.70910273       7.21274692       3.96722390       0.01527983       0.00244564      -0.01028019
H        7.74911122       4.22281407       3.42807011      -0.00538831      -0.01403362       0.00981256
H        8.13435413       5.98369254       3.29818461       0.00542428      -0.01806211      -0.00183982
H        6.83924409       5.24957424       2.31534843       0.00391445      -0.01687709       0.00026927
H        5.24801804       7.12891092       2.98487882       0.01795065       0.00251284      -0.01145431
H        6.60778630       7.83106423       3.92272588       0.02047676      -0.00493242      -0.01019367
H        4.97972213       7.64556056       4.64466579       0.01634464       0.01000931      -0.01469703
S        3.45562017       2.07911887       2.87899465      -0.00920534      -0.01306331       0.00812817
O        2.59598088       1.20279833       3.72874485      -0.00062346      -0.00214422      -0.00713646
C        5.13589119       1.95992058       3.52034415      -0.00563854      -0.00578103       0.00880948
C        3.11798181       3.78375126       3.35447566      -0.00542507      -0.00716835       0.00136587
H        5.43790394       0.91812896       3.40395258      -0.00686580      -0.00701898       0.01382193
H        5.14441111       2.24487293       4.57304147      -0.01076735      -0.00287806       0.00800708
H        5.79670769       2.60184127       2.93722097      -0.00382291      -0.00911868       0.00970864
H        3.75250896       4.44782501       2.76857361      -0.00342751      -0.00738955       0.00634961
H        3.29151784       3.90738860       4.42343885      -0.01028195      -0.00863440       0.00240596
H        2.07841240       3.97301381       3.09704456      -0.00507541      -0.00793466      -0.00154470
S        1.61456754      13.92543634       6.49339328      -0.00562131      -0.00315571       0.00328326
O        0.70443658      13.85437692       7.68195767      -0.00617337      -0.01092857       0.01159191
C        1.64165994      12.27662818       5.79553697      -0.00377215      -0.00031006       0.00171003
C        3.29799332      13.87866193       7.11706450      -0.00632995       0.00075597       0.00123501
H        0.71983584      12.10833162       5.24577685      -0.00626516      -0.00388502       0.00636226
H        1.67853176      11.57402699       6.62804150       0.00594020      -0.00367303      -0.00299338
H        2.51336111      12.17125921       5.15112968      -0.00719310       0.00720974      -0.00494043
H        3.97668074      13.81324406       6.26514936      -0.00876541       0.00304843      -0.00173748
H        3.39211704      12.99967374       7.75414708      -0.00106795       0.00125973       0.00001633
H        3.47436873      14.78196212       7.69781560      -0.00557109      -0.00004289       0.00182156
S       12.97807070       8.62475348       5.69254776      -0.00107789       0.01044810       0.00204599
O       13.97235678       9.73696877       5.64470493      -0.02153099      -0.00376856       0.01342243
C       13.90098163       7.12490037       5.29501869      -0.00261265       0.00454956       0.00606221
C       12.01180808       8.71249602       4.17731486       0.00197458       0.00097592      -0.00531340
H       14.37590992       6.77816027       6.21052191      -0.00040686       0.01175041       0.00782864
H       14.64843999       7.40174711       4.55244271      -0.00283536       0.00602789       0.00577620
H       13.22587375       6.35597144       4.93251456       0.00259897       0.00084542       0.00991601
H       11.25750625       7.92586942       4.16722724       0.00427176       0.00156736      -0.01253453
H       12.67120067       8.64308863       3.31169577       0.00994988       0.00467941       0.00102072
H       11.51152041       9.68028739       4.18152558       0.00187258       0.00134456      -0.00696797
