190
Lattice="13.769251197236617 0.0 0.0 0.0 13.769251197236617 0.0 0.0 0.0 13.769251197236617" Properties=species:S:1:pos:R:3:forces:R:3 energy=-394219.46875 stress="-0.0011798182968050241 0.00014737655146745965 -0.0003187871479894966 0.00014737655146745965 -0.001236216863617301 0.0001337537687504664 -0.0003187871479894966 0.0001337537687504664 -0.00013198370288591832" pbc="T T T"
Ce      17.28924088      10.82095321       3.57692036      -0.00000581      -0.02696456      -0.00145665
S        5.89862991      11.04299770       8.98416068      -0.00570548      -0.01367953       0.00381929
F        7.80121899      12.67895168       8.08360451      -0.00885190      -0.00347897       0.01637725
F        7.88919908      10.68929106       7.23828414       0.01008748      -0.00429104       0.02059397
F        8.56906148      11.03145450       9.26700219      -0.00915009       0.00321157       0.02579415
O        5.76365239       9.60736517       8.78568062       0.00783408      -0.01572657       0.01234094
O        5.11586573      11.83733819       8.04411155      -0.00429690      -0.02500725      -0.00571990
O        5.91129745      11.50369192      10.34864995      -0.01989812      -0.00455284       0.00192046
C        7.62982644      11.37582852       8.38546353      -0.00367475      -0.00390470       0.01684535
S        5.67934006      10.35474910       0.74125959       0.01036134       0.00697404       0.00026411
F        3.55052758      11.91283687       0.55855959      -0.00763330      -0.00665946       0.00669588
F        5.27594197      12.67184361      -0.53224182      -0.01270027       0.01137973       0.01149336
F        5.21280857      12.75032132       1.64756397      -0.01028013      -0.00880805       0.01153818
O        7.07850706      10.59752519       0.86770440      -0.00939505       0.00044106      -0.00577129
O        5.16943443       9.50468191      -0.28397717      -0.00246023      -0.00073591      -0.01902902
O        5.01917621      10.06610436       2.08228618      -0.00068960      -0.01262286      -0.00997692
C        4.90671042      12.02096749       0.53414368      -0.00788794      -0.00062954       0.00600970
S        1.48088258      12.12697225       5.46605904       0.00931625      -0.01852106      -0.04088546
F       -0.78590169      11.92180887       4.06535263      -0.01102385      -0.00853872      -0.00652415
F       -0.48707874      10.35459333       5.51935725       0.00010335       0.00122723       0.00473210
F        0.73197136      10.39594821       3.71096193      -0.02074912      -0.01529282      -0.00883406
O        2.37162638      11.02597241       5.85097066      -0.00839755      -0.00007308      -0.01491341
O        0.92448519      12.94904491       6.48279461      -0.00107157       0.01848286      -0.01953173
O        2.08385335      12.78046343       4.27813344      -0.00512131      -0.02161688      -0.03127086
C        0.11028878      11.16916812       4.67576356      -0.00702664      -0.00711727      -0.00937738
O        6.78855300       1.09280033      10.27306792       0.00113741       0.00213832      -0.00005883
C        7.95293951       1.82935437       9.96400174       0.00192511      -0.00072314      -0.00331606
C        5.60781150       1.79867180       9.95655849       0.00176352       0.00043197      -0.00563005
C        9.15735575       0.97790795      10.28996919       0.00044373       0.00091118       0.00575599
C        4.42470720       0.87576946      10.12059380       0.00193810       0.00091279      -0.00244783
H        7.94778505       2.09241536       8.89387212       0.00434857      -0.00853685      -0.00517726
H        7.96604387       2.77274063      10.53174230       0.00168739       0.00325996      -0.01011115
H        5.52087170       2.68000459      10.61726880       0.00055691       0.00375867      -0.01040596
H        5.66330378       2.17533225       8.92251702       0.00336925      -0.00487833      -0.00741130
H       10.07663516       1.51245121      10.04427851       0.00138199      -0.00001946       0.00803395
H        9.17092369       0.72203406      11.35035268      -0.00429024       0.00685615       0.00723587
H        9.12856019       0.05079526       9.72164954       0.00269470      -0.00167131       0.00990610
H        3.49748045       1.41285387       9.90768786       0.00204185      -0.00020254      -0.00537372
H        4.50761899       0.02275504       9.44879160       0.00241466      -0.00233728       0.00180493
H        4.38129215       0.49162159      11.13981783       0.00146686       0.00562356      -0.00075695
O       11.92053003      10.74904310       8.76183231      -0.00048175       0.00030896      -0.00140870
C       12.54203580      10.10810132       9.85665646      -0.00637742       0.00120729       0.00262928
C       12.09482981      12.15379172       8.79041175      -0.00068185      -0.00001204      -0.00180924
C       12.14569823       8.65260454       9.84782771      -0.00446968       0.00085133       0.00019915
C       11.35989151      12.74764204       7.61446615      -0.00168103      -0.00018956      -0.00116625
H       13.63567282      10.22189302       9.78829430      -0.00616974       0.00305397       0.00900145
H       12.22479773      10.58632499      10.79592552      -0.01313455       0.00076503       0.00037724
H       11.69720380      12.55439201       9.73492215       0.00026128       0.00010194      -0.00169569
H       13.16590067      12.40051342       8.74876210      -0.00053579       0.00047351      -0.00264830
H       12.60060663       8.13077359      10.68980421      -0.00928357       0.00131420       0.00312184
H       11.06239346       8.55954330       9.92069587      -0.00475192      -0.00008388      -0.00624317
H       12.47192851       8.17164757       8.92515201       0.00164568       0.00123271       0.00226901
H       11.45351597      13.83399364       7.61796884      -0.00400909      -0.00006303       0.00007229
H       11.77135403      12.36737976       6.67980098      -0.00081297       0.00157600      -0.00148231
H       10.30338107      12.48853476       7.65640892      -0.00117609      -0.00241645      -0.00145609
O        4.40939038       9.28921852       5.03832604       0.01913866      -0.01617642       0.00841232
C        5.60505009       9.91230255       5.61514228       0.02726236      -0.02306083      -0.00074470
C        3.85984173       8.18149214       5.79843981       0.01950812      -0.01843238       0.00511169
C        5.68888445      11.35347701       5.13599738       0.01758908      -0.02344635      -0.00060727
C        2.51815481       7.83368023       5.20010169       0.01987407      -0.01233238       0.00125545
H        5.49522799       9.88185828       6.69678536       0.04061545      -0.02821961       0.00038502
H        6.46643726       9.32915234       5.29153234       0.02259341      -0.02297828      -0.01344358
H        4.56999376       7.35493135       5.73431461       0.01644412      -0.02129737       0.00475064
H        3.78663963       8.50969018       6.83724556       0.01864429      -0.02290025       0.00642318
H        6.51628681      11.84522072       5.64924920       0.01861653      -0.01489928      -0.01015331
H        5.91188611      11.45167846       4.05727242       0.00786682      -0.02519486      -0.00257425
H        4.81384178      11.94287783       5.46796239       0.01471490      -0.03198040       0.00583293
H        2.18121075       6.87212588       5.58762013       0.00798772      -0.00640620       0.00556880
H        1.76303297       8.57531438       5.45936879       0.02588262      -0.00316150      -0.00755274
H        2.57713961       7.73481771       4.11056686       0.02532782      -0.02061696       0.00226204
O        8.43739415       2.84753928       4.75717041      -0.00362647       0.00276878       0.00515777
C        8.10147997       1.70537224       3.99602720      -0.00721049       0.00276229       0.00651068
C        9.78946376       3.21245281       4.53666156      -0.00468364       0.00289446      -0.00010675
C        6.69399253       1.28286039       4.32785668      -0.00649190       0.00431354       0.01175423
C       10.16963987       4.35990390       5.43676389      -0.00092757       0.00195602      -0.00049531
H        8.20074306       1.93176721       2.92199304      -0.01074332       0.00240719       0.00622940
H        8.81017851       0.89180433       4.21733355      -0.00695443       0.00252193       0.00429180
H       10.43339335       2.34716487       4.72344173      -0.00357071       0.00294507      -0.00373457
H        9.93078540       3.48606807       3.48015181      -0.00909169       0.00414671      -0.00034291
H        6.41626718       0.43428734       3.70110062      -0.01033482       0.00316495       0.01492511
H        6.61554627       0.99028353       5.37539321      -0.00313995       0.00638679       0.01249316
H        5.99295681       2.09714332       4.14157880      -0.00604649       0.00491728       0.01278086
H       11.21101479       4.63049884       5.26055421      -0.00110921       0.00069581      -0.00307498
H        9.54599287       5.23221602       5.24500722      -0.00024307       0.00287126       0.00171460
H       10.05330800       4.08489282       6.48547836       0.00151965       0.00149606      -0.00038347
O       12.60628799       2.07271494       3.82603073      -0.00174225       0.00395149       0.00209766
C       12.98536693       1.29792630       4.95417391       0.00254425       0.00373289      -0.00022745
C       12.37996680       1.25364793       2.69268434       0.00316454       0.00389320       0.00087637
C       13.01816210       2.14860466       6.20186193      -0.00027290       0.00050110       0.00182697
C       12.14686659       2.12889759       1.48733775       0.00047181       0.00406089       0.00184679
H       12.27371685       0.47124952       5.08842169       0.00688380      -0.00018463      -0.00138348
H       13.96991273       0.85709250       4.76372225       0.00440496       0.00871918      -0.00251388
H       13.24700687       0.59556621       2.53015429       0.00644386       0.00819677       0.00141843
H       11.51122220       0.60245805       2.87812913       0.00627524      -0.00030845      -0.00018242
H       13.38928241       1.54723257       7.03122940       0.00233157       0.00000203       0.00033216
H       13.67929367       3.00700842       6.08649094      -0.00394422       0.00346000       0.00383200
H       12.02480629       2.51699361       6.45528894      -0.00176457      -0.00445859       0.00302188
H       11.95387261       1.51422042       0.60725017       0.00188833       0.00435326       0.00141279
H       11.28668824       2.77967305       1.64698713      -0.00114140       0.00143321       0.00306162
H       13.01809364       2.75420937       1.28906022      -0.00122295       0.00651051       0.00244819
O        1.31241534       4.01349296      12.10231520      -0.00138819       0.00024064       0.00047138
C        1.90851426       5.27113802      11.84560067       0.00014338      -0.00176716      -0.00515633
C        2.28437887       3.02538781      12.40751494      -0.00251698      -0.00100321       0.00034107
C        0.81909364       6.30199932      11.69295297       0.00205693       0.00064895      -0.00249771
C        1.59943688       1.68497176      12.50906191      -0.00436088       0.00004113       0.00094201
H        2.58511632       5.53847004      12.66753615       0.00469112      -0.00133703      -0.00903887
H        2.52397927       5.21287425      10.93562602      -0.00438392      -0.00525434      -0.00781840
H        3.05425789       3.00641369      11.62157398      -0.00290954      -0.00240120       0.00000465
H        2.78079294       3.28294064      13.35309650      -0.00182079      -0.00130814      -0.00008100
H        1.25304718       7.28304045      11.49304815       0.00359850      -0.00136383      -0.00866385
H        0.15932034       6.03980366      10.86546731      -0.00328931      -0.00041761       0.00219741
H        0.22538302       6.36751005      12.60518621       0.00740536       0.00563231       0.00052851
H        2.33018165       0.89983110      12.70681247      -0.00569421      -0.00086905       0.00189205
H        0.86508531       1.68947765      13.31570405      -0.00464673       0.00160957       0.00056195
H        1.08891971       1.44505313      11.57596993      -0.00426502       0.00025957       0.00088675
O        3.33494573       2.81893751       2.22964906       0.00589208       0.00792280       0.00133281
C        4.06474682       1.70674098       1.75529435       0.00394744       0.00778693      -0.00223181
C        2.29187099       2.42523030       3.11012903       0.00526813       0.00635153      -0.00036803
C        5.25874101       2.19539576       0.96994683       0.00452405       0.00689779      -0.00152975
C        1.61437997       3.66093396       3.63736422       0.00677228       0.00485629       0.00515369
H        4.38927503       1.10149102       2.61178829       0.00250491       0.00467305      -0.00429398
H        3.41498613       1.06953429       1.13435398       0.00275576       0.01121065      -0.00432572
H        1.57688478       1.78111893       2.57579980       0.00433707       0.00955263      -0.00274569
H        2.71283443       1.82861860       3.93210250       0.00431323       0.00247669      -0.00267100
H        5.86245457       1.35801040       0.62091053      -0.00047603       0.00554180      -0.00692477
H        4.94402066       2.76992698       0.09830904       0.00512990       0.01232821       0.00186485
H        5.88081158       2.83579897       1.59718512       0.00922945       0.00088365      -0.00014396
H        0.82519246       3.38740040       4.32867510       0.00871736       0.00242170       0.00649521
H        2.34032758       4.29637977       4.14495719       0.00806355       0.00286532       0.00578640
H        1.15748840       4.22715772       2.82811843       0.00453392       0.00779998       0.00854710
O        7.79481279       8.24707944       3.32200427       0.00046211       0.00377172       0.00765761
C        7.75952105       6.84069952       3.15841147      -0.00284606       0.00438800       0.00438458
C        9.08878821       8.70271074       3.69096365       0.00314277       0.00097126       0.00193852
C        6.38242736       6.43190486       2.70060413      -0.00464606       0.00832815       0.00633065
C        9.09166625      10.21206490       3.70958546       0.00555257       0.00090492       0.00623629
H        8.51851796       6.53691717       2.42117465      -0.00511822       0.00487569       0.00195545
H        8.01489241       6.34556177       4.10608378      -0.00182708       0.00148086       0.00255805
H        9.35615211       8.29477627       4.67727449       0.00804981      -0.00197525      -0.00066501
H        9.82579758       8.32532570       2.96753359      -0.00179449       0.00192097      -0.00330538
H        6.32966365       5.34836486       2.58367134      -0.00754127       0.00875765       0.00450100
H        5.62821413       6.73195354       3.43039116      -0.00273312       0.00878441       0.00810251
H        6.14194369       6.90056628       1.74560081      -0.00504946       0.01037812       0.00749949
H       10.08496960      10.58029065       3.97085843       0.00944091      -0.00138734      -0.00578049
H        8.81059981      10.60273576       2.73241097      -0.00570673       0.00389802       0.01071465
H        8.39442424      10.59011013       4.45720755       0.01629481       0.00055166       0.01629393
O        8.04017547       4.87287977      12.21976597       0.00035893       0.00793162       0.00190848
C        6.95480815       5.54227188      12.83990786       0.00201893       0.00930676       0.00303474
C        9.04328594       4.51627369      13.15156530       0.00275278       0.01055706       0.00020586
C        5.95078589       5.93774248      11.78673852      -0.00116104       0.00589974       0.00480238
C       10.22510911       3.94654823      12.40641953       0.00103199       0.00933878      -0.00145012
H        6.49589066       4.88281590      13.59236057       0.00445800       0.01147032       0.00626406
H        7.32825029       6.43177871      13.36736515       0.00314951       0.01100278      -0.00074711
H        9.34159830       5.40495569      13.72735455       0.00384498       0.01190537      -0.00264084
H        8.64148532       3.78379891      13.87009644       0.00491101       0.01204574       0.00281322
H        5.12946756       6.49203264      12.24204259       0.00042417       0.00746635       0.00568676
H        6.41080742       6.57867354      11.03554727      -0.00355539       0.00354286       0.00143485
H        5.54316148       5.05417584      11.29290580      -0.00278137       0.00442956       0.00894697
H       11.04401064       3.73290075      13.09301327       0.00223222       0.00961336      -0.00273107
H        9.95352918       3.02306531      11.89844921      -0.00043176       0.00903840       0.00006487
H       10.57785441       4.65956437      11.66137657      -0.00009413       0.00838773      -0.00278386
O        4.92902978       4.65242005       7.46462138      -0.00730663       0.00816688      -0.00172061
C        3.80820117       4.65737841       8.32400800      -0.00521529       0.00237259       0.00087555
C        6.06926438       5.24929922       8.07120498      -0.00710279       0.00768480      -0.00142765
C        2.68735855       3.88504817       7.67171630      -0.00442958       0.00039896       0.00191912
C        7.22832763       5.13721450       7.11662245      -0.00772485       0.00989773      -0.00240588
H        4.07709523       4.19940879       9.28763984      -0.00132151       0.00069204      -0.00108874
H        3.50323372       5.69481694       8.53678540      -0.00802673       0.00071514       0.00448693
H        5.85609569       6.29925208       8.31941118      -0.00735034       0.00696456       0.00092728
H        6.29654479       4.72946486       9.01186992      -0.00634017       0.00582117      -0.00270027
H        1.80612876       3.88059940       8.31508414      -0.00247252      -0.00434621       0.00438726
H        2.41805081       4.33096109       6.71348462      -0.00877528       0.00193404       0.00395843
H        2.99014616       2.85293327       7.49316639      -0.00147640       0.00192930      -0.00167633
H        8.12222485       5.57586158       7.56125034      -0.00777812       0.00971285      -0.00223325
H        7.43347866       4.09567533       6.86972439      -0.00721873       0.01055983      -0.00447257
H        7.01485870       5.66184876       6.18386422      -0.00848989       0.01162918      -0.00118938
O        1.72025564       7.99095819       1.18442935      -0.00575681       0.00134149      -0.00229227
C        3.01749222       7.39819295       1.08292637      -0.00543513       0.00290978      -0.00524950
C        1.72037561       9.32919943       0.77144552      -0.00886279       0.00191453      -0.00112779
C        2.93946247       5.98574070       1.58395132      -0.00130118       0.00134337      -0.00900853
C        0.30691778       9.82871466       0.61551498      -0.01018614      -0.00581452      -0.01182408
H        3.35589495       7.45267760       0.04117116      -0.00695176       0.00609960      -0.00553346
H        3.73851989       7.98164883       1.67289849      -0.00497195       0.00205603      -0.00482720
H        2.26223245       9.95422423       1.53673061      -0.01898816       0.00424290       0.00399379
H        2.30762481       9.45980074      -0.14676943      -0.00305179       0.00555651       0.00322810
H        3.88746502       5.46679752       1.44831017      -0.00073317       0.00388242      -0.01440145
H        2.69950571       5.96432605       2.64475120       0.00333520      -0.00270284      -0.00812583
H        2.16712437       5.42607117       1.05678182      -0.00189270       0.00091463      -0.00761235
H        0.30968360      10.89711932       0.39563759      -0.01813441      -0.00542250      -0.00947273
H       -0.18494223       9.30605451      -0.20369271       0.00158642      -0.00716028      -0.01797217
H       -0.27033166       9.65821646       1.52269892      -0.01523462      -0.01330606      -0.01661572
