196
Lattice="13.496239120226075 0.0 0.0 0.0 13.496239120226075 0.0 0.0 0.0 13.496239120226075" Properties=species:S:1:pos:R:3:forces:R:3 energy=-435019.4375 stress="-0.002108924090862274 0.0009418528934475034 0.0004278883134247735 0.0009418528934475034 -0.002152844564989209 -2.7980890990875196e-05 0.0004278883134247735 -2.7980890990875196e-05 -0.0022733104415237904" pbc="T T T"
Ce      13.83481552      12.29998991      -0.00887524      -0.00625396       0.00491753       0.01014772
O        4.02742249      12.44412388       1.62626082      -0.01385409       0.03085530       0.00996318
O        2.49198170      11.48136239       0.36498612      -0.01856618       0.01278001       0.03521317
O        2.09550237      13.51793926       1.11981573      -0.01291133       0.02739897      -0.00433359
C        2.86267310      12.50561183       1.02888788      -0.01484469       0.02497444       0.01490971
H        4.24070795      13.24931875       2.14701904      -0.00286109       0.03571975      -0.00178230
O       13.77609094      11.76262815      11.61026113       0.01413079      -0.00103844       0.01139101
O       10.37558800      12.87334672      10.51490411       0.00313957       0.00279005       0.00797828
O       11.95969729      13.89404078       9.16084475       0.00495076       0.00136672       0.00853992
C       11.15868704      13.40443593       9.83528995      -0.00267104      -0.00237442       0.01275629
H       14.02194814      11.13759481      10.85193479       0.01606537      -0.00330943       0.01459551
O        7.12371370      13.34373722       7.99075142      -0.01761761      -0.00710762      -0.01935852
O        7.62365561      11.79712016       6.46586655      -0.00333595      -0.01705587      -0.00393629
O        5.64682957      11.72218532       7.50146929      -0.01401281      -0.00887012      -0.02355814
C        6.76514749      12.22068604       7.25218467      -0.01107049      -0.01181006      -0.01564515
H        6.31912904      13.58527603       8.46416601      -0.02295350      -0.00399296      -0.02980827
O        7.77837701       3.71982187       8.37716310      -0.00686692      -0.00586813      -0.00866312
O        7.17724304       4.80539114       6.53119338      -0.01092419      -0.01606834      -0.01299411
O        8.88361853       3.33371145       6.44307619      -0.00827205      -0.01358151      -0.00779104
C        6.57789413       4.41187269       8.73234285      -0.00760225      -0.00592399      -0.01119000
C        6.34792800       5.35511533       7.55867131      -0.00583705      -0.00848684      -0.01287854
C        8.03843571       3.89525306       7.05542172      -0.00920480      -0.01170743      -0.00963038
H        6.73851302       4.93850225       9.66793493      -0.00895254      -0.00424501      -0.01204428
H        5.77606657       3.67731475       8.82766037      -0.00744584      -0.00592914      -0.01093117
H        5.32076322       5.36133033       7.20114406      -0.00625926      -0.00380974      -0.01092935
H        6.68744375       6.36748211       7.77839790       0.00061595      -0.00998956      -0.01646125
O        2.11259363       5.80650773      10.68953655      -0.00832239      -0.01171777       0.01609186
O        4.23002508       5.13017190      10.76696787      -0.00545225      -0.00414622      -0.01686567
O        3.75868874       7.33443106      10.67394951      -0.01425973      -0.00620949      -0.00596375
C        2.01813320       4.37542885      10.80974461      -0.00160879      -0.01267360       0.00661350
C        3.46870473       3.91243689      10.67792846      -0.00173631      -0.00652230      -0.01283541
C        3.40362825       6.19721989      10.70795392      -0.00974566      -0.00712335      -0.00250355
H        1.36538995       4.00936499      10.02281705      -0.00832841      -0.00900842       0.01064444
H        1.57807644       4.14643477      11.78019271       0.00981373      -0.02196077       0.00926110
H        3.78861803       3.25080703      11.48132716       0.01023331      -0.00853491      -0.01973477
H        3.66601380       3.44837020       9.71276890      -0.01174180      -0.00116803      -0.01708332
O        2.03829122       4.31349059       4.94146467      -0.00377217      -0.00298922      -0.00553095
O        2.20470801       2.85728035       6.61330247       0.01057056       0.01223135       0.00565767
O        4.06927728       3.81280699       5.79315853       0.00174141       0.01429763      -0.01031301
C        0.68499458       4.11368892       5.43102672      -0.00153172      -0.01005584      -0.00246343
C        0.81218003       2.81811767       6.19746605       0.01000225      -0.00092572       0.01046029
C        2.88100450       3.66672788       5.78612912       0.00281566       0.00852362      -0.00387270
H        0.00064601       4.07949849       4.58793857      -0.00084993      -0.02479839      -0.00215569
H        0.42008009       4.95459504       6.07126942      -0.00941436      -0.00599599      -0.01175493
H        0.17857214       2.75205753       7.07557733       0.01302227       0.00372824       0.01246715
H        0.67734741       1.94212463       5.56399166       0.01363520      -0.00796559       0.02023393
O       12.36640920      11.38536664       7.29313987      -0.00039747       0.00638194      -0.02097702
O       10.23836922      11.70713920       7.84628537       0.00857168       0.01766369       0.00471996
O       11.54600963      10.46824774       9.18169543       0.01907472       0.01549315      -0.00880349
C       11.88768363      12.38571944       6.36285214      -0.00581843       0.01240890      -0.01164201
C       10.37879793      12.38365282       6.57574890      -0.00334394       0.01398633       0.00174467
C       11.39812157      11.13303844       8.19323455       0.01019590       0.01295012      -0.00791430
H       12.18688753      12.07918347       5.36154811      -0.01457839       0.01757951      -0.01548797
H       12.36552968      13.32720867       6.62021039      -0.00220490       0.00999933      -0.00949779
H        9.93711838      13.37207958       6.66402992      -0.00167090       0.01426697       0.00356011
H        9.80691065      11.81948221       5.84253167      -0.01108021       0.01203987       0.00958854
O        7.91471814      10.64396148       3.70766665      -0.01276705       0.00441627      -0.00547022
O        6.56156322       9.60731502       2.27830606       0.00960198       0.00344449      -0.02527638
O        5.75772700      10.22923864       4.27865533      -0.01871175      -0.00040428      -0.03603965
C        8.64063941      10.56364713       2.47794951       0.00485423       0.00771910       0.00542548
C        7.85532186       9.53563393       1.67255818       0.01739452       0.00928780      -0.00833595
C        6.66106819      10.17285507       3.50760387      -0.00842887       0.00194507      -0.02364320
H        9.66158823      10.25579042       2.69944978       0.00144827       0.00754338       0.01966413
H        8.63780929      11.55215320       2.01090632       0.01182457       0.00898284       0.00851019
H        7.75460889       9.78258049       0.61926057       0.03010054       0.01306470      -0.00824219
H        8.23379224       8.52137331       1.80826355       0.01886487       0.01004916      -0.00762592
O        3.72283590       3.37737950       0.79419923      -0.00582749      -0.00868684      -0.00813427
O        3.98187104       5.57513228       0.54323825      -0.01083758      -0.00743882       0.00291651
O        5.71603495       4.19367933       0.14714151      -0.01166320      -0.00189082      -0.01581317
C        2.45425783       3.92395423       1.19811393      -0.00092703      -0.01217043       0.01135218
C        2.62613987       5.43287323       0.99310352      -0.00883734      -0.01231936       0.00739717
C        4.58095335       4.36825831       0.46818209      -0.00939661      -0.00571086      -0.00787783
H        2.28292980       3.66489975       2.24098649       0.01652841      -0.01178679       0.01387116
H        1.67490225       3.49197188       0.57277630      -0.00881377      -0.01512142       0.02417454
H        1.96492650       5.84695711       0.23046466      -0.01281068      -0.01767193       0.00827414
H        2.52013818       5.98145686       1.92732206      -0.00829791      -0.01033157       0.00608024
O        1.21773329      13.10138395       5.48120712       0.00865301      -0.00521068      -0.00166130
O        2.76850675      12.16764518       6.77624570      -0.00896740      -0.01355481       0.01248623
O        1.14530756      13.42211862       7.71419237      -0.00866729      -0.00293887      -0.00297022
C        1.98393861      12.24331900       4.62203409       0.01393804      -0.00673938       0.00459403
C        3.25517707      12.03093050       5.42179176       0.00370520      -0.01679188       0.01764101
C        1.67924298      12.93996234       6.76379725      -0.00376141      -0.00730541       0.00213313
H        2.13350496      12.76947344       3.68082015       0.02938931      -0.00429405       0.00908351
H        1.41863839      11.31938332       4.45572359       0.01088569      -0.00241825      -0.00563148
H        3.72543153      11.06103105       5.30555978      -0.00338168      -0.02001604       0.02078331
H        3.99679799      12.81017903       5.25646090       0.01154158      -0.02343184       0.02471150
O        9.66207898       6.83579709       6.05408711      -0.00659901      -0.00660186      -0.00140139
O       11.67000489       7.78268710       5.88051145      -0.01662381       0.01546445       0.01199359
O       11.48845918       5.55968575       5.64234070       0.00730574       0.01657617      -0.00738586
C        9.41310552       8.25855734       5.99843380      -0.02153462      -0.00890811       0.01233598
C       10.78404011       8.84320646       6.27199139      -0.02828282       0.00346801       0.01773681
C       10.96668545       6.60966782       5.84742566      -0.00373119       0.00871491       0.00035121
H        8.67928913       8.52670119       6.75148163      -0.02372590      -0.02426831       0.01496625
H        9.04042657       8.49778892       5.00339900      -0.02436402      -0.00291987       0.01512110
H       11.01822606       9.72310349       5.67640868      -0.03755122       0.00881979       0.02278057
H       10.94819398       9.04507023       7.32687596      -0.03181690       0.00003826       0.01900035
O       13.04971926       4.93427028       8.89486097      -0.00671756      -0.00621796       0.00397588
O       10.85910739       5.25496204       8.66349267      -0.00517607      -0.00478655      -0.00550108
O       11.77736693       3.31805772       7.97384254      -0.00176910      -0.00078130      -0.01152319
C       12.76316054       6.09487641       9.69845591      -0.01013333      -0.00936954       0.00730962
C       11.35083695       6.45650223       9.27713841      -0.00792992      -0.00766407       0.00179896
C       11.87140311       4.39818630       8.46768127      -0.00403586      -0.00336546      -0.00473055
H       13.49074347       6.86657222       9.47364128      -0.00898573      -0.00889924       0.01338591
H       12.81492545       5.80900168      10.74806255      -0.01508507      -0.01361853       0.00610298
H       10.70433823       6.69786414      10.11094102      -0.01249585      -0.01100028      -0.00077412
H       11.32428089       7.26484236       8.54682545      -0.00370133      -0.00502804       0.00477493
O        8.06678652       6.79213826       3.56271745       0.00786202       0.00606543      -0.00708919
O        7.45224418       4.65544426       3.53455392       0.01473668       0.00484958      -0.01851258
O        9.59552435       5.20829232       3.08182360       0.01432717       0.01248297      -0.00634789
C        6.77203603       6.75812497       4.20944566       0.00645420      -0.00137848      -0.01038373
C        6.23865374       5.40706022       3.78226997       0.01146922       0.00015378      -0.02035022
C        8.47688182       5.50348126       3.37373767       0.01230431       0.00840995      -0.01041438
H        6.18000376       7.59053668       3.85563720       0.00554323      -0.00025472      -0.00568689
H        6.92954023       6.82407093       5.28399472       0.00366092      -0.00891625      -0.00973701
H        5.65590347       4.89317903       4.54008922       0.00996628      -0.00521332      -0.02548549
H        5.68385907       5.47207335       2.84517752       0.01619701       0.00393171      -0.02269191
O        2.59416232       9.63979005       8.55165213       0.01230770       0.00482641       0.01237759
O        0.61557785       8.73982907       8.13221645       0.01960202      -0.01008649       0.01134866
O        0.92367253       9.90460525      10.01776342       0.00808436      -0.00700009       0.01068389
C        2.80963858       8.85923223       7.35425004       0.01820773       0.00023709       0.01630001
C        1.39668448       8.43847360       6.95275191       0.01938409       0.00994343       0.00639927
C        1.35249282       9.47426297       8.97358705       0.01342110      -0.00455508       0.01164126
H        3.44468256       8.01301175       7.61017774       0.00882488      -0.00409999       0.02521020
H        3.31619745       9.48645075       6.62953947       0.03004827      -0.00593746       0.01972803
H        0.98739951       9.01223819       6.12143859       0.02117532       0.02708516       0.01767844
H        1.30151177       7.37574025       6.74370599       0.01768309       0.01463431      -0.01376735
O        7.39467104       1.12592320       4.24025177      -0.01971862       0.04493812      -0.00552924
O        5.53364370       0.84109156       3.04828147       0.00379793       0.00159634      -0.02797174
O        5.45222664       0.75677138       5.30572895      -0.02668440       0.01697849      -0.02937114
C        7.81896823       1.33735656       2.88490067       0.00105602       0.01326483      -0.00295635
C        6.53869668       1.16434894       2.06042355       0.00944063       0.01860085      -0.01592851
C        6.08752328       0.89619550       4.31075480      -0.01519987       0.02084511      -0.02152097
H        8.57714925       0.59152612       2.64513814      -0.00813916      -0.00278199       0.02091830
H        8.24136283       2.33717726       2.81998526       0.01775150       0.00463641      -0.01564384
H        6.23458949       2.07682348       1.55063016       0.00917561       0.02399182      -0.00557768
H        6.59589703       0.34487806       1.34725394       0.01875791       0.02854335      -0.02598214
O        9.65480180      13.30012931      13.45523482       0.00912637      -0.01389831       0.00830582
O        9.17284302      11.28377432      12.63530249       0.01607186      -0.00759643      -0.00989355
O        7.52150271      12.76535904      12.97342662       0.01397038      -0.01218370      -0.00318819
C       10.92514334      12.65788424      13.33804626       0.01180741      -0.01138843       0.00555311
C       10.60009193      11.24833128      12.80384461       0.01484621      -0.00873286      -0.00297327
C        8.67587666      12.47211379      13.00175667       0.01411635      -0.01146884      -0.00206562
H       11.36727159      12.63800627      14.34813456       0.01008489      -0.01615526       0.00627649
H       11.52424050      13.26267623      12.63546156       0.01072076      -0.00482547       0.00974503
H       11.05001069      11.03296973      11.83747158       0.01973324      -0.00413261      -0.00153694
H       10.82760299      10.46551912      13.52232846       0.01132558      -0.01168387      -0.00534633
O       13.13989421       9.07380715       3.07081863       0.00791031      -0.00330454       0.00042236
O       11.64728819       8.82510715       1.46907724      -0.00182962      -0.01356204       0.01155615
O       12.87313119      10.70150481       1.56558927       0.00091453      -0.01451808      -0.00890242
C       12.80430325       7.64159338       3.07650614       0.00442535      -0.00168169       0.01578403
C       11.49742096       7.62931190       2.32653973       0.00061476      -0.00578541       0.02235904
C       12.56618160       9.59324654       2.01298940       0.00254097      -0.01092571       0.00011084
H       12.75699229       7.31451114       4.10439400       0.00822359       0.00897940       0.01912844
H       13.59546028       7.12825976       2.53018574       0.00062257      -0.00928023       0.01765069
H       11.37833348       6.76825436       1.68424853      -0.00651438      -0.01142094       0.03150757
H       10.61472411       7.77503089       2.94768845       0.00469711       0.00237957       0.02599601
O        9.15560544       5.41567013      13.66065978       0.00640479       0.00058183      -0.00130311
O       10.73585452       6.72986122      12.80503086       0.00192025       0.00541243      -0.00121245
O       11.33130745       4.89081146      13.95668618       0.00786436       0.00663823      -0.00286651
C        8.44132196       6.41378532      12.90215277       0.00234598      -0.00098127       0.00081052
C        9.51189467       7.46671833      12.65651830      -0.00030041       0.00072795      -0.00375327
C       10.47357946       5.58553469      13.50068476       0.00557816       0.00529200      -0.00171429
H        7.60188613       6.75794046      13.50199053       0.00415173      -0.00162576       0.00360844
H        8.08709430       5.96451145      11.97922264      -0.00067931      -0.00180358       0.00270820
H        9.48495212       7.89778501      11.65928708      -0.00249420      -0.00404018      -0.00562090
H        9.50416214       8.26370857      13.40214197      -0.00212238       0.00376511      -0.00768700
O        4.23366603       7.78821201       2.75569660       0.00774439      -0.00331210      -0.00991112
O        2.27325308       8.50283958       3.51748202       0.01639856       0.00032129       0.00787359
O        3.61658532       7.30243483       4.87012033       0.02877723       0.00221321      -0.00331563
C        3.77077986       8.72668430       1.76206366       0.00006688      -0.00434707      -0.00680038
C        2.31228584       8.89125888       2.13258430       0.00452375       0.00140622       0.00778694
C        3.40720626       7.81898640       3.81534728       0.01842716       0.00018337      -0.00189114
H        3.93879232       8.29607321       0.77886359      -0.01203295      -0.00738062      -0.00720572
H        4.32975021       9.64987682       1.87504559       0.00422889      -0.00597411      -0.01513377
H        1.96434327       9.91379337       2.05206699       0.00770850       0.00254530       0.01235090
H        1.65806681       8.23275143       1.55526462      -0.00295506       0.00389615       0.01423861
O        9.91057210       1.96423421      10.78800318      -0.01021178      -0.00087166      -0.00402004
O        8.86457184       3.82458062      11.37058656      -0.00098702       0.00312211      -0.00231147
O       11.11113916       3.82982921      11.16059824      -0.00126553      -0.00706536      -0.00508894
C        8.49790265       1.67952007      10.62998266      -0.01148014       0.00286722       0.00320655
C        7.87952198       2.77664842      11.46755541      -0.00463846       0.00741845       0.00238997
C       10.05913835       3.26614191      11.10080691      -0.00451803      -0.00232488      -0.00396051
H        8.30112708       0.67995003      10.99920404      -0.01246043       0.00493833       0.00789995
H        8.25678698       1.75159769       9.57166300      -0.01616856      -0.00003116       0.00419408
H        6.93317304       3.15673309      11.09653886      -0.00407892       0.01062995       0.00460903
H        7.77326617       2.50261215      12.51836536      -0.00277963       0.01048180       0.00317192
O        6.72959958       7.95306439      10.47846197      -0.00527376       0.01071413       0.00541788
O        8.21413678       8.89207581       9.11957013      -0.00871401       0.00295001      -0.00306031
O        8.39381686       6.71121498       9.62558167      -0.01553810       0.00301087      -0.00258774
C        6.19324195       9.26665600      10.17615834      -0.00159514       0.01241309       0.00725166
C        7.39987849       9.98952150       9.61097956      -0.00282025       0.00679791      -0.00255770
C        7.82640475       7.76327611       9.72862764      -0.01062509       0.00512934      -0.00011789
H        5.79597243       9.69112916      11.09303460       0.00737963       0.01586935       0.00938961
H        5.39079782       9.15032541       9.44962174      -0.00718266       0.01449706       0.01340336
H        7.15294410      10.62814022       8.77348829      -0.00470386       0.00427333      -0.00366610
H        7.98161812      10.52335618      10.36240012       0.00311714       0.00779490      -0.00825101
