190
Lattice="14.207266371160303 0.0 0.0 0.0 14.207266371160303 0.0 0.0 0.0 14.207266371160303" Properties=species:S:1:pos:R:3:forces:R:3 energy=-354113.0 stress="-0.00018782305414788425 0.00033174526470247656 -0.0006265945557970554 0.00033174526470247656 -0.0010757989948615432 -0.0005390105652622879 -0.0006265945557970554 -0.0005390105652622879 -0.0013683843426406384" pbc="T T T"
Ce      15.96496039      13.90131237       1.77625349       0.01524982       0.00030157       0.00678095
O        9.41296141      13.93327326      11.09370578       0.02377129       0.02371337      -0.01699483
N        7.27843531      13.85599415      12.19917025       0.02084041       0.02668715      -0.03362644
C        8.33365017      13.89562709      11.64499542       0.01411822       0.02474007      -0.02132745
O       13.90863848      13.63338397       0.91465069       0.01454931       0.01793434      -0.00083661
N       12.22884208      12.62121560       2.34656330       0.01798803       0.00359896      -0.01364350
C       13.02084843      13.10924439       1.63994328       0.01463085       0.00990626      -0.00571400
O       14.03989167      13.65125930       5.69717174       0.00709641       0.01483846       0.01585753
N       15.11867043      14.41430601       3.71130641       0.01496468      -0.00257125       0.01085955
C       14.55540612      14.02183903       4.71532391       0.01265957       0.00667966       0.00975861
C       12.24692912       3.86827403       4.48896506      -0.00309367      -0.00014639       0.00201822
C       12.65981402       3.20775861       3.33667406      -0.00490630       0.00438758      -0.00113935
C       11.26631263       3.30071686       5.29493801       0.00213423      -0.00585321       0.00412832
C       12.09473668       1.98411375       2.99588880      -0.00142701       0.00317945      -0.00226571
C       10.70577848       2.07577640       4.95383693       0.00561798      -0.00704117       0.00306572
C       11.12060144       1.41202457       3.80575614       0.00369106      -0.00241433      -0.00017901
H       12.67302096       4.82949000       4.75048977      -0.00587153       0.00076742       0.00272877
H       13.42151948       3.64891632       2.70346513      -0.00937093       0.00923914      -0.00296192
H       10.92467346       3.82336716       6.17930643       0.00343394      -0.00939321       0.00663307
H       12.40314277       1.46911661       2.09490524      -0.00307575       0.00684265      -0.00482761
H        9.93437487       1.64671604       5.58059625       0.00953941      -0.01152112       0.00474627
H       10.69641620       0.45354917       3.53516181       0.00637163      -0.00324589      -0.00109758
C        8.20877657      10.93082897       1.45307407       0.00499270       0.00524038      -0.00149442
C        9.07000165      10.78123361       0.37256876      -0.00223605       0.00555752      -0.00707639
C        7.98463202      12.19446550       1.98629068       0.01175857       0.00475069       0.00227383
C        9.69056289      11.88854568      -0.18739226      -0.00273722       0.00515599      -0.00833005
C        8.61046844      13.30380321       1.43100132       0.01107689       0.00435400       0.00092246
C        9.45277751      13.15104914       0.33893724       0.00391698       0.00469092      -0.00455866
H        7.72083648      10.06314522       1.87864178       0.00534220       0.00557557      -0.00035354
H        9.25768827       9.79200051      -0.02475801      -0.00795507       0.00612196      -0.01087163
H        7.32970402      12.31258490       2.84293687       0.01815077       0.00472772       0.00697674
H       10.34946576      11.77956464      -1.03961171      -0.00744733       0.00479827      -0.01187819
H        8.44164463      14.28650952       1.85010361       0.01651980       0.00369419       0.00451420
H        9.92040101      14.01294380      -0.11688521       0.00346891       0.00459608      -0.00528596
C        7.57648417       4.31721222       4.14094287       0.00525182      -0.00795973       0.00106254
C        8.73035593       4.82138284       3.55531378       0.00402521      -0.00812523      -0.00123237
C        6.94820340       3.20102957       3.60463900       0.00043344      -0.00395096      -0.00144407
C        9.25771814       4.20343990       2.42780582      -0.00190878      -0.00424369      -0.00602260
C        7.47325252       2.58617636       2.47574589      -0.00553528      -0.00012109      -0.00631780
C        8.63057701       3.08654325       1.88986232      -0.00676432      -0.00024029      -0.00854456
H        7.15853037       4.80487225       5.00678329       0.01034057      -0.01133623       0.00542483
H        9.21388155       5.69605811       3.97316663       0.00792348      -0.01140147       0.00089374
H        6.04361642       2.81594373       4.06098846       0.00148311      -0.00390857       0.00045010
H       10.16366458       4.58362487       1.97532207      -0.00290172      -0.00448337      -0.00800364
H        6.97591130       1.72888795       2.04284304      -0.00878892       0.00273103      -0.00814706
H        9.04564184       2.60161718       1.01501112      -0.01151227       0.00283603      -0.01240291
C       12.55128178       6.06083581       7.51214668       0.00224148      -0.00093210       0.00680880
C       13.24604521       7.13896533       6.97446919       0.00193754      -0.00205078       0.00427000
C       11.18457999       6.16481994       7.74832238       0.00230400      -0.00073402       0.00649410
C       12.57665000       8.31786145       6.67181957       0.00181979      -0.00294498       0.00165666
C       10.51561662       7.34392177       7.43967819       0.00220633      -0.00154829       0.00405989
C       11.21069978       8.41909321       6.89958293       0.00192736      -0.00258142       0.00182112
H       13.06892957       5.13711994       7.74168097       0.00257386      -0.00007001       0.00908883
H       14.31030738       7.06242888       6.78602070       0.00181913      -0.00225776       0.00444425
H       10.63937623       5.33061599       8.17209675       0.00243862       0.00011201       0.00825014
H       13.11843298       9.16077113       6.26509704       0.00160003      -0.00392579      -0.00050772
H        9.45295114       7.42716752       7.63195852       0.00224286      -0.00131194       0.00374283
H       10.69412009       9.34331038       6.67398190       0.00179369      -0.00320187       0.00005958
C        5.71630984       8.55771203       0.65377242      -0.00976809       0.00263880       0.00380168
C        6.59995175       7.51303634       0.90317395      -0.00539371       0.00691548       0.00577649
C        4.40840939       8.47779341       1.11517549      -0.01013450      -0.00343606       0.00154855
C        6.17961947       6.39954713       1.62010311      -0.00129334       0.00524919       0.00546620
C        3.98493567       7.36372287       1.83064523      -0.00605018      -0.00506909       0.00117053
C        4.87270341       6.32779296       2.08925274      -0.00167578      -0.00071460       0.00316058
H        6.04448364       9.42239656       0.09200313      -0.01283154       0.00377879       0.00382168
H        7.61821507       7.56397514       0.53271123      -0.00513364       0.01163610       0.00750550
H        3.71960662       9.28716441       0.91523833      -0.01373997      -0.00702178      -0.00014692
H        6.86219856       5.58149911       1.80511091       0.00222816       0.00868459       0.00728357
H        2.96524572       7.31127813       2.19353358      -0.00643998      -0.00994225      -0.00089123
H        4.55263327       5.45726567       2.64801253       0.00142241      -0.00199626       0.00277036
C        7.12699198       9.06695434      11.36572807      -0.00167696      -0.00192043       0.00252244
C        5.87205558       8.50404426      11.57380298       0.00008715      -0.00840586      -0.00544847
C        7.24824672      10.43233297      11.13595468      -0.00613737       0.00098662       0.01806160
C        4.73984649       9.30866318      11.54538507      -0.00259358      -0.01222470       0.00102895
C        6.11512275      11.23657826      11.09156400      -0.00853238      -0.00204936       0.02606498
C        4.86366336      10.67140711      11.29734334      -0.00684614      -0.00908434       0.01668621
H        8.00957007       8.43748825      11.38871264       0.00034431       0.00095508      -0.00349411
H        5.78034192       7.44418925      11.77654295       0.00340208      -0.01085608      -0.01781211
H        8.22253827      10.88497357      10.99590931      -0.00761054       0.00572985       0.02387133
H        3.76173097       8.87265937      11.71346282      -0.00133060      -0.01734188      -0.00610799
H        6.22890989      12.30074156      10.93235150      -0.01006693       0.00027421       0.03843144
H        3.98139831      11.29898528      11.24538624      -0.00946423      -0.01246601       0.02131833
C        3.12627504      12.03138026       3.24657472       0.01321159      -0.00937991      -0.00583699
C        4.05355058      12.36824095       2.24727236       0.01080310      -0.00945411      -0.00805660
C        1.91226893      11.41017791       2.89840722       0.00993832      -0.00388344      -0.00355994
C        3.76128573      12.10774501       0.89935285       0.00467578      -0.00309106      -0.00781497
C        1.62049998      11.14273805       1.55265420       0.00361189       0.00294857      -0.00339230
C        2.53875116      11.50856187       0.55319257       0.00105871       0.00329917      -0.00549091
H        3.34814972      12.22864893       4.28898396       0.01793300      -0.01419426      -0.00600637
H        5.00261695      12.81603239       2.51182350       0.01361032      -0.01427211      -0.01020722
H        1.19851354      11.14387760       3.66800973       0.01197736      -0.00454783      -0.00204676
H        4.49265853      12.33540444       0.13271692       0.00252965      -0.00269654      -0.00958798
H        0.68775824      10.65610867       1.29424427       0.00075526       0.00782176      -0.00168036
H        2.32416338      11.29130310      -0.48593809      -0.00425721       0.00861241      -0.00531942
C        5.23187354       1.28056221      13.83058111      -0.01303660       0.00349052      -0.01645977
C        3.99043593       1.81871716      14.15759184      -0.01264070       0.00182804      -0.01243216
C        6.28997303       2.12881283      13.52620874      -0.01275428       0.00478685      -0.01177329
C        3.79294316       3.20217799      14.14039342      -0.01209171       0.00196540      -0.00361995
C        6.10603986       3.50255469      13.54026104      -0.01260284       0.00469886      -0.00281905
C        4.85696324       4.03810006      13.83117862      -0.01206269       0.00344203       0.00128976
H        5.41739985       0.21660782      13.75958097      -0.01589641       0.00346062      -0.02165262
H        3.13343196       1.14973229      14.34026630      -0.01322939       0.00126596      -0.01814135
H        7.23162399       1.67269588      13.24943415      -0.01318739       0.00628781      -0.01604677
H        2.82514498       3.64652507      14.34113346      -0.01207092       0.00036160      -0.00052907
H        6.93644159       4.16223438      13.31508761      -0.01272765       0.00596383       0.00068582
H        4.70806806       5.10882153      13.81726559      -0.01166880       0.00351703       0.00807635
C        3.52861428      10.13465265       7.88961777      -0.00861649       0.00765755      -0.00458105
C        3.94884376      11.38719617       7.45327948      -0.00919497       0.00835836      -0.00288325
C        4.46668585       9.16428234       8.21837613      -0.00821420       0.00870296      -0.00301927
C        5.30702603      11.66403023       7.34181018      -0.00938944       0.01022831       0.00066576
C        5.82235072       9.44457417       8.11148104      -0.00834353       0.01046740       0.00020770
C        6.24332519      10.69072761       7.67082124      -0.00894327       0.01131055       0.00215840
H        2.46987749       9.92154028       7.98037878      -0.00850511       0.00632208      -0.00743134
H        3.21672251      12.14964580       7.21464281      -0.00962943       0.00748858      -0.00423498
H        4.14505129       8.18864349       8.56261715      -0.00765983       0.00814103      -0.00445700
H        5.63755191      12.64053117       7.00955719      -0.00990165       0.01082049       0.00228104
H        6.55121636       8.69106601       8.37659901      -0.00805398       0.01115119       0.00081073
H        7.30161027      10.90542097       7.59168571      -0.00913031       0.01255346       0.00457562
C       11.78166048       7.25747066      12.76383075       0.00064630      -0.00720295      -0.00069607
C       12.48190511       6.06890881      12.59923429      -0.00129041      -0.00834300       0.00034609
C       10.39214927       7.24629848      12.77226062       0.00075848      -0.00554118       0.00266680
C       11.79313341       4.86969921      12.44762184      -0.00307809      -0.00773109       0.00473893
C        9.70233344       6.04857853      12.62757767      -0.00108859      -0.00490764       0.00683382
C       10.40257449       4.85700756      12.46518372      -0.00291567      -0.00600439       0.00807942
H       12.31214535       8.19326843      12.87886593       0.00200804      -0.00775485      -0.00392295
H       13.56488049       6.07687731      12.58623964      -0.00140382      -0.00988461      -0.00174274
H        9.84947717       8.17553939      12.88751088       0.00223155      -0.00481862       0.00280172
H       12.34015633       3.94500962      12.31332007      -0.00472738      -0.00876820       0.00582111
H        8.61852557       6.04464687      12.63820363      -0.00098978      -0.00325986       0.00936946
H        9.86677674       3.92288157      12.34509509      -0.00389184      -0.00581139       0.01213104
C       12.12240408       9.54782248       3.47789938       0.01146103      -0.00291705      -0.00681441
C       10.86236776       9.13399172       3.06499231       0.00996163      -0.00120522      -0.00357930
C       13.22921986       8.74840340       3.22117923       0.00918276      -0.00616285      -0.00603797
C       10.70981589       7.92833696       2.39023020       0.00607312      -0.00277899       0.00037931
C       13.08145066       7.54598271       2.53887275       0.00528446      -0.00788111      -0.00204722
C       11.82088558       7.13692825       2.11990487       0.00377809      -0.00609371       0.00113896
H       12.23293948      10.50054310       3.97832959       0.01442952      -0.00159231      -0.01003622
H       10.00433253       9.76726001       3.24852242       0.01164782       0.00126673      -0.00402622
H       14.21145828       9.05650221       3.56058028       0.01040384      -0.00732803      -0.00890988
H        9.72569929       7.60934027       2.06628107       0.00493994      -0.00155554       0.00294980
H       13.94714586       6.92871891       2.33061269       0.00352154      -0.01042490      -0.00146243
H       11.70969193       6.21025557       1.57186167       0.00082132      -0.00750236       0.00421443
C        8.68980642       2.28436840       8.30999321      -0.00407086      -0.00802170       0.01193029
C        7.64958670       2.56480740       7.43146324      -0.00175214      -0.00691272       0.00966123
C        9.01373222       3.19270186       9.31112451      -0.00291047      -0.00669520       0.01010837
C        6.92455850       3.74350965       7.56542804       0.00160003      -0.00446518       0.00580860
C        8.29873469       4.37949759       9.43439760       0.00071680      -0.00425996       0.00627163
C        7.24913310       4.65379840       8.56408960       0.00274539      -0.00325574       0.00422467
H        9.24338289       1.35793158       8.23143950      -0.00719645      -0.01010637       0.01620033
H        7.40091259       1.86660854       6.64155407      -0.00286312      -0.00818318       0.01129550
H        9.81988287       2.96297570       9.99585511      -0.00559045      -0.00857839       0.01250720
H        6.09591456       3.94731080       6.89836564       0.00303787      -0.00372910       0.00443781
H        8.55906700       5.08952770      10.20970489       0.00143921      -0.00377332       0.00549123
H        6.67420131       5.56574337       8.67377598       0.00506960      -0.00150010       0.00143674
C        3.92532415       3.57903337       9.26944659      -0.00879363      -0.00048077      -0.00656224
C        2.93492801       3.96854546       8.37611906      -0.00777134       0.00155913      -0.00662721
C        4.21989335       4.37179943      10.37199862      -0.00884154      -0.00224295      -0.00542809
C        2.23606934       5.15263499       8.58614223      -0.00666647       0.00190288      -0.00572346
C        3.51631115       5.55142162      10.58578154      -0.00776234      -0.00185883      -0.00442980
C        2.52474018       5.94357316       9.69277295      -0.00665504       0.00028823      -0.00462509
H        4.47967624       2.66388228       9.10518924      -0.00973471      -0.00086159      -0.00723307
H        2.70640705       3.34982452       7.51695932      -0.00799698       0.00285980      -0.00745445
H        4.99458577       4.06574412      11.06201847      -0.00982113      -0.00387673      -0.00515012
H        1.46485665       5.45643478       7.89048447      -0.00580661       0.00335339      -0.00580389
H        3.73992570       6.16519736      11.44972378      -0.00791112      -0.00350200      -0.00339128
H        1.97588038       6.86275983       9.85923125      -0.00590428       0.00050269      -0.00390972
C       11.01602756      10.04879953      10.02051837       0.00536320       0.00314464       0.00782472
C       11.12567519      11.43431051       9.98289906       0.00393237       0.00314119       0.00957414
C       12.15554078       9.25252197       9.98957853       0.00597948       0.00447874       0.00278299
C       12.38451633      12.02174583       9.90817463       0.00303353       0.00491554       0.00687547
C       13.41099569       9.84300895       9.92582607       0.00507113       0.00580232      -0.00055492
C       13.52583543      11.22856883       9.88099849       0.00370321       0.00581130       0.00146171
H       10.03850583       9.58180394      10.05956500       0.00595993       0.00258760       0.01047762
H       10.25194034      12.07342934      10.03437473       0.00408718       0.00291242       0.01250834
H       12.06280199       8.17413935       9.99865225       0.00709025       0.00443843       0.00141871
H       12.46511506      13.10075137       9.87397998       0.00391311       0.00567742       0.00236465
H       14.29828678       9.22156960       9.89811040       0.00554866       0.00676617      -0.00462683
H       14.50547113      11.68775132       9.82332423       0.00301780       0.00681781      -0.00100229
C        4.96628781       8.06435369       5.07561854       0.00280061      -0.00071732      -0.00186706
C        5.57738932       9.16370257       4.48787255       0.00332941      -0.00082500      -0.00118184
C        5.73405315       7.11307415       5.73409829       0.00204222      -0.00063399      -0.00100554
C        6.95764948       9.30824350       4.55153709       0.00309887      -0.00058350       0.00056008
C        7.11485165       7.25720610       5.79552397       0.00188480      -0.00055242       0.00051581
C        7.72940092       8.35003787       5.19713898       0.00238052      -0.00039792       0.00145108
H        3.89035659       7.95457546       5.02919151       0.00296383      -0.00097683      -0.00350892
H        4.97661067       9.90583069       3.97692163       0.00392581      -0.00119542      -0.00226038
H        5.25229533       6.26719274       6.21172137       0.00164311      -0.00089981      -0.00207914
H        7.43534040      10.17045074       4.10410032       0.00350919      -0.00068229       0.00091648
H        7.71521370       6.51687067       6.31078240       0.00133749      -0.00067680       0.00080527
H        8.80694130       8.45247852       5.23401753       0.00228421      -0.00030700       0.00255319
