195
Lattice="13.338815216116412 0.0 0.0 0.0 13.338815216116412 0.0 0.0 0.0 13.338815216116412" Properties=species:S:1:pos:R:3:forces:R:3 energy=-1188030.375 stress="-0.003172062337398529 -0.0006253670144360512 -0.0005583203746937215 -0.0006253670144360512 -0.0007060671341605484 0.0002639433223521337 -0.0005583203746937215 0.0002639433223521337 -0.0023166590835899115" pbc="T T T"
Cf      11.24455459      12.46267728       0.33281884      -0.01309469       0.00489815      -0.01049764
S       10.14461677      13.28855068       2.89242145       0.00416327       0.00598148      -0.00691563
F        8.32841069      11.74095202       1.96023716      -0.00237160       0.01167119      -0.00211895
F        7.55857717      13.50627640       2.98142354       0.00341065       0.00679766       0.00973676
F        8.35981722      11.84490703       4.13576114       0.00888491       0.00152397      -0.00246382
O       10.33146703      14.19697523       3.97091856       0.00944854       0.00750460      -0.00643012
O       10.07555325      13.92419708       1.53343294      -0.00341455       0.00892165      -0.00493634
O       11.04693526      12.13103035       2.75366403       0.00212260       0.00878005      -0.01253735
C        8.46637597      12.53646445       3.02315452       0.00413573       0.00680479       0.00081041
S        3.26745874      13.37665195      10.68986028      -0.00683475       0.01574248      -0.01214787
F        0.87422770      14.20926573      11.44839431      -0.00664702       0.02408215      -0.02630022
F        1.29957799      12.15212072      11.98121958      -0.00413433       0.03100257       0.00470254
F        0.83628079      12.65848268       9.93129945      -0.00523967       0.00236641      -0.00140247
O        3.76216875      12.04597590      10.41082370      -0.01070535       0.01472950      -0.02011153
O        3.68613687      13.94240067      11.96096745      -0.00020993       0.00783765      -0.01114035
O        3.26225622      14.30362561       9.57480782      -0.00707399       0.01866508      -0.00837827
C        1.47796811      13.09821873      11.01290897      -0.00591362       0.01884812      -0.00785309
S        5.19605338      10.48428493       2.84282037      -0.00801796      -0.00521719      -0.00090384
F        3.62265919      12.15055475       4.16016458       0.00148839      -0.00285751       0.00334655
F        5.72214627      12.38097111       4.64143160       0.00200281      -0.01537040       0.00541823
F        4.62177995      10.70074266       5.42934787      -0.00739653      -0.01247013      -0.00163919
O        6.41027121       9.79228761       3.19694637      -0.00238180      -0.00440872      -0.00558013
O        5.34745750      11.53911839       1.84930039      -0.01054364      -0.00232041       0.00143230
O        4.00764518       9.66337348       2.67434660      -0.00347757      -0.00601494      -0.00081679
C        4.78377778      11.45592412       4.36124054      -0.00250873      -0.00904107       0.00194383
O       11.09687210       4.88127476       2.96385532      -0.00043459       0.00795001       0.00010123
O        9.13325337       4.84632144       1.93160208       0.00163575       0.01510319      -0.00374436
O        9.77567273       6.68935964       3.05147535       0.00546166       0.01003790      -0.00067672
C       11.05046338       3.57911030       2.33174725      -0.00002575       0.01410830      -0.01169814
C        9.60316878       3.48057910       1.86516025      -0.00307149       0.01308423       0.00239287
C        9.97485602       5.56504594       2.67569960       0.00261115       0.01521689       0.00007713
H       11.31511457       2.83518655       3.07701003       0.01092044       0.00833660      -0.02236849
H       11.78070058       3.56646637       1.52607129      -0.00908938       0.02617849      -0.01952791
H        9.48786076       3.11637179       0.85017134      -0.01427584       0.00579451       0.00678271
H        8.98126341       2.88055567       2.52963863       0.00201711       0.02159664       0.01414043
O       11.72189648       3.93330802       6.27444002       0.00021729      -0.00452197       0.00339057
O       10.79376861       4.19653035       8.27938467       0.01319128       0.00141028       0.00775705
O       12.60104512       2.86742897       8.05083462       0.01758540       0.00993687       0.00150627
C       10.53621541       4.72372799       6.04099952      -0.00390074      -0.00934824       0.00772578
C       10.17006785       5.19125343       7.43625205       0.00380224      -0.00431931       0.00791937
C       11.77449057       3.59395705       7.58448268       0.01221779       0.00180909       0.00428510
H        9.77675452       4.07951013       5.59665402      -0.00420156      -0.01400423       0.01562813
H       10.79159057       5.52785652       5.35639031      -0.01012637      -0.01154450       0.00315756
H       10.60761450       6.15815672       7.68839399       0.00214684      -0.00165781       0.00077778
H        9.10577564       5.18531257       7.64634360       0.00521594      -0.00704305       0.01459128
O        4.47074896       6.83874773       1.07880229       0.01253548       0.00294244      -0.00701389
O        3.15478994       8.35553378       0.11714743       0.00028282      -0.00798005      -0.00625414
O        5.37105192       8.41163927      -0.25011839       0.00453842      -0.00313336      -0.03420329
C        3.14691762       6.39102559       1.36542790       0.01626661       0.00498879       0.01445621
C        2.27239384       7.55399040       0.89593519       0.00781497      -0.00643432       0.00539389
C        4.42561864       7.91200983       0.27394634      -0.01211351      -0.01233456      -0.00756422
H        3.05811940       6.19720613       2.43188485       0.02870703       0.02208467       0.01892298
H        2.95581272       5.48027559       0.79937169       0.01236902      -0.00494140       0.03215075
H        1.45824069       7.22476005       0.25287343       0.00812292      -0.01918781       0.01118326
H        1.89977706       8.15219585       1.72994905       0.00519311      -0.00011489      -0.00024697
O        8.04289869      10.95626699      11.54889116       0.01183948       0.01937938       0.03242314
O        7.04361289      12.91237623      11.25139214      -0.01791650      -0.00134426       0.00490633
O        8.94715881      12.44697591      10.14216184      -0.00773227       0.01804870       0.02309799
C        6.76914769      10.86245457      12.25623600       0.00564286       0.00425124       0.01839201
C        6.41599135      12.31434386      12.42537868      -0.01656215      -0.00016296       0.00575742
C        8.06649431      12.13628153      10.90623970      -0.00021589       0.01542589       0.01594579
H        6.92047877      10.30795006      13.17303645       0.00318890       0.01171288       0.02291685
H        6.06907597      10.32983399      11.61735319       0.02159157      -0.00905967       0.01357284
H        5.35920019      12.53924583      12.38687191      -0.01835877      -0.01511919      -0.00340681
H        6.87618377      12.76748296      13.30127410      -0.02693820       0.01140445       0.00424027
O        0.56941376      11.92028131       1.23964342       0.00325310       0.00820020      -0.00199369
O        1.79237256      13.74776666       1.41115287       0.00099187       0.01207352      -0.04556660
O       -0.41376141      13.90805910       1.05714253       0.00113748       0.00209723      -0.04371654
C        1.93631716      11.40877492       1.46902507       0.00329369       0.01388484       0.00310995
C        2.77726909      12.66342558       1.30311405       0.00287646       0.01418681      -0.00371355
C        0.61008799      13.24989758       1.23147428       0.00139803       0.00542922      -0.03193663
H        2.14250504      10.65137655       0.72012546       0.00653467       0.00895226       0.00945011
H        1.96654235      10.98204024       2.46594537       0.00287207       0.02088535       0.00569156
H        3.51326738      12.79414169       2.07876041      -0.01542157       0.03231815       0.00955674
H        3.23061351      12.77040141       0.32327042       0.02479471      -0.00297502       0.00606537
O        7.43707357       3.52416947      12.19930470       0.00440659       0.01369867       0.00419337
O        5.94575112       2.10682104      13.01908968       0.00558174       0.00276988      -0.01389208
O        8.13460022       1.59641406      13.11228195       0.00530541       0.00691450      -0.01141933
C        6.17371861       4.23480697      12.13013722       0.00163880       0.00820482      -0.00066309
C        5.16693234       3.11849206      12.33220132       0.00452334       0.00423366      -0.01017059
C        7.24338309       2.33841057      12.79833486       0.00516778       0.00737333      -0.00749466
H        6.10417668       4.70162746      11.15400732       0.00504285       0.01046020       0.00033021
H        6.15485232       4.98124817      12.92322673      -0.00606209       0.00609082       0.00085992
H        4.33348425       3.39571843      12.96976505       0.00171772      -0.00243044      -0.01173627
H        4.80294095       2.68349344      11.40620932       0.00918710       0.00813547      -0.01349539
O        4.43344838      10.20029891       8.21376004       0.01349872      -0.00095372      -0.00490113
O        6.32366894       9.41085669       9.07546463       0.00149828       0.00110447       0.02121991
O        6.32719337      11.40412899       8.02667784       0.01857221      -0.01284409      -0.00205004
C        4.03097001       9.05644867       8.98729483       0.00120026       0.00979817       0.00399433
C        5.35729308       8.36041217       9.27507446      -0.00486523       0.00648955       0.02049612
C        5.73553890      10.43508443       8.40102834       0.01325107      -0.00287813       0.00234935
H        3.34385707       8.46859815       8.38365595       0.00286126       0.00719664       0.00557834
H        3.54267658       9.41669187       9.89310178      -0.00301987       0.02200389      -0.00376236
H        5.44721580       7.99730075      10.29747892      -0.01451420       0.01427232       0.02376616
H        5.57456237       7.55106861       8.57499623      -0.00199970       0.00148499       0.02786434
O       10.06247021       6.60975824      10.13524039      -0.01111388       0.00532444       0.00787340
O       11.25026291       5.37727445      11.54895774       0.01487021      -0.00211781      -0.02236164
O       12.29719027       6.59259290       9.97170654      -0.01511359       0.02836600      -0.01389927
C        9.05652156       5.95331117      10.94127359       0.00494027      -0.01457216       0.00802712
C        9.88006268       5.11973330      11.92480358       0.02165270      -0.02186331      -0.01383471
C       11.29309697       6.21276252      10.50770169       0.00003463       0.01293902      -0.01069850
H        8.43577615       5.35284594      10.28170874       0.00192025      -0.00911322       0.00601581
H        8.46570616       6.72526128      11.42924667       0.00375852      -0.02733016       0.02526671
H        9.73766868       5.44020671      12.95296647       0.02879316      -0.03903766      -0.00866455
H        9.69905997       4.05527704      11.83118682       0.02976499      -0.02133089      -0.02950314
O       10.26991575       9.74013036       0.83251184      -0.00131257      -0.00733542       0.00459301
O       10.73553926       7.64185999       0.24264982      -0.00271901       0.00121489      -0.01103832
O        8.71859472       8.50086100      -0.26929467      -0.01091617      -0.00413924      -0.00052133
C       11.68252780       9.57284984       1.03653684      -0.00197953      -0.00894940       0.00200155
C       11.83574163       8.06409356       1.06260339       0.00343078      -0.00309590      -0.01428634
C        9.79035057       8.60232557       0.21934955       0.02905047      -0.00653298       0.01116681
H       11.95605010      10.07337451       1.96078064       0.00129442      -0.01486610       0.01198110
H       12.22285190      10.00181295       0.17912569       0.00170979       0.00751023       0.00999936
H       12.75337584       7.69745847       0.61687929       0.00860280       0.00383600      -0.02459908
H       11.69224119       7.65498655       2.06279832       0.01919912      -0.01619773      -0.01571921
O        7.64109556       2.95568320       7.09168000       0.00378071      -0.01340061       0.00688133
O        6.62819474       2.39410806       8.98470129      -0.00736244      -0.00437447       0.00300375
O        7.19800767       4.53752134       8.62513065       0.00731055      -0.00785220       0.00327182
C        7.26622358       1.56516529       6.91840695      -0.00273094      -0.01158237       0.00714421
C        6.93673094       1.12893012       8.33540056      -0.01384693      -0.00697505       0.00564313
C        7.15137475       3.38919188       8.27135614       0.00151804      -0.01063287       0.00333339
H        8.10662469       1.03636606       6.47673774      -0.00267938      -0.01738945       0.01465431
H        6.40698066       1.53203238       6.24873631       0.00219846      -0.00844619       0.00105649
H        6.07377664       0.47799978       8.41943270      -0.01940516       0.00012973       0.00157318
H        7.78631103       0.68419823       8.84997767      -0.02032274      -0.01275891       0.01056677
O        2.13324463       5.99993213      10.26521614      -0.01275781      -0.01217020       0.00607979
O        3.97402721       4.82649051       9.85768772      -0.01450954      -0.01461959       0.00582117
O        3.82133006       6.02195143      11.74404470      -0.01793736      -0.02674538       0.01397347
C        1.82392935       5.27136399       9.06091291      -0.00821263      -0.00077887      -0.00182726
C        3.14875556       4.58272152       8.70386611      -0.01142198      -0.00828475       0.00229019
C        3.34549612       5.65018697      10.70863080      -0.01689062      -0.01940829       0.00689965
H        1.49591075       5.99443350       8.31765354       0.00285521       0.00608796       0.00030181
H        1.01726654       4.57586999       9.28508964      -0.01384261       0.00368604      -0.01151323
H        3.06268938       3.50357003       8.59011918      -0.01710845      -0.00762135       0.00045818
H        3.63900541       5.03708283       7.84313673      -0.00522834      -0.00999221       0.00517327
O        1.38426501       3.05927056       4.65042659      -0.00195064       0.01028266      -0.01327008
O        0.92064442       5.16865641       4.12066745       0.01052184       0.01419048      -0.00657657
O        0.81534491       3.57657932       2.53927442       0.00390495       0.02051100      -0.01204371
C        1.62610130       3.78572196       5.87010811       0.00817645       0.00698242      -0.01353294
C        1.22139646       5.22324244       5.52958294      -0.00436853       0.00458080      -0.00355637
C        1.01293684       3.90718058       3.67131542       0.00416131       0.01545949      -0.01148933
H        2.68589307       3.69702324       6.10783062       0.01130337       0.01307917      -0.02631251
H        1.01909649       3.33897374       6.65556938       0.01971537       0.00066783      -0.00889099
H        0.32043808       5.53541387       6.05411707      -0.01307887      -0.01127335      -0.01037408
H        2.02294558       5.94068834       5.68040152      -0.01416901       0.01138142       0.01146801
O       11.53597641      11.81216110       9.48369374      -0.01440455       0.01204899      -0.00524133
O       11.05019229      10.66219077      11.29967865       0.00040376       0.01211824      -0.00170869
O       11.64277131      12.80709177      11.47679881      -0.00231478       0.01254839      -0.00619456
C       11.14152373      10.51256700       8.96382274      -0.01713950       0.01171686      -0.00143498
C       10.73151589       9.72918822      10.21389763      -0.00623676       0.01150924       0.00169569
C       11.40140147      11.82010620      10.76214426      -0.00525051       0.01297192      -0.00373434
H       12.01233212      10.09619187       8.46193652      -0.02054137       0.01193647      -0.00718375
H       10.32559597      10.69042920       8.27139734      -0.02193850       0.01023040       0.00449601
H        9.66857593       9.52180807      10.28373180      -0.00573379       0.01007791       0.00976165
H       11.32801213       8.83590862      10.36950722      -0.00440651       0.01246101      -0.00271633
O        5.81995274       6.01655676       6.29010355       0.00547552      -0.00678056       0.01934012
O        5.52166818       8.08325367       5.54581149      -0.00733909      -0.01685861      -0.00167800
O        3.77140874       6.92066067       6.34034486       0.00274134      -0.01571733       0.01845104
C        7.14695701       6.50407598       6.01512290       0.00181451      -0.00476354       0.00734890
C        6.89729155       7.77341298       5.21480277      -0.00719069      -0.01329499      -0.00316453
C        4.94206566       7.00844624       6.06562788      -0.00109309      -0.01366514       0.01309065
H        7.66869782       5.74063084       5.44556857       0.00154375      -0.00808546       0.01221737
H        7.62951391       6.68456482       6.97577552       0.00661141       0.00609472       0.00267136
H        7.50937774       8.62063619       5.51354586      -0.01061660      -0.00805745      -0.01275079
H        6.96111020       7.62890692       4.14169848      -0.01057753      -0.02325684      -0.00195527
O        5.04133107       3.77944285       2.20253132       0.00742069      -0.01250102      -0.00111160
O        5.39936624       3.34565630       4.35495311      -0.01305415      -0.01896682       0.00038940
O        6.34300169       5.15988376       3.41255045      -0.00355536      -0.01463473       0.01511208
C        4.23810360       2.61239518       2.46891858       0.00288877      -0.01151897      -0.01096380
C        4.67189413       2.19996518       3.87435757      -0.00515894      -0.01891470      -0.01124257
C        5.65770465       4.18833082       3.32875994      -0.00521863      -0.01822108       0.00529106
H        4.47141939       1.86746962       1.71229715       0.00477876      -0.00791815      -0.01373476
H        3.18623753       2.89062110       2.40826846       0.00391340      -0.00822285      -0.01453301
H        3.83200346       2.02192203       4.54243385      -0.00861362      -0.02649212      -0.01793584
H        5.33864394       1.34010830       3.87763093      -0.00175077      -0.01619124      -0.01191561
O        2.11566028      11.26022303       6.57839566      -0.00654548      -0.00135721       0.00871816
O        0.18139561      11.78254806       7.52055749      -0.01052961       0.00404188      -0.00286424
O        0.75914256       9.62469675       7.32663346      -0.01124761       0.00341785       0.00902915
C        2.16354179      12.69188184       6.80238323      -0.00602067      -0.00065648       0.00230431
C        0.70001605      13.02975974       7.01261434      -0.00588912       0.00222567      -0.00177248
C        1.00841693      10.79019029       7.15504440      -0.00976595       0.00194657       0.00527273
H        2.59932348      13.15817657       5.92525750      -0.00426182      -0.00474720       0.00117350
H        2.77917524      12.87796235       7.68249682      -0.00718698       0.00270034       0.00210261
H        0.52044112      13.80728601       7.74912501      -0.00546288       0.00264522      -0.00244531
H        0.16670140      13.25540011       6.08808190      -0.00319552       0.00350649      -0.00268054
O       10.59498987       9.74879031       5.71453355       0.01739999      -0.01276848       0.01752731
O       12.48714918      10.66603375       4.97979447       0.00240138      -0.01132961      -0.01580404
O       10.91683821      11.95987692       5.94751703       0.00384545      -0.00796914      -0.01746157
C       11.37049044       8.63061703       5.25216821       0.01681128      -0.01417241       0.01906596
C       12.63989476       9.27188693       4.68489506       0.01114213      -0.01514298       0.00605665
C       11.29698413      10.89331295       5.58017489       0.00818869      -0.01139003      -0.00662690
H       10.78578341       8.08697797       4.51237515       0.01316407      -0.01783845       0.02496988
H       11.58611851       7.99351151       6.11006838       0.02369650      -0.00764403       0.02163753
H       13.54819339       8.91944671       5.16620854       0.01382834      -0.00130180       0.01034877
H       12.72288682       9.15868075       3.60543952       0.01011460      -0.03244559       0.00865981
