186
Lattice="13.4382710258359 0.0 0.0 0.0 13.4382710258359 0.0 0.0 0.0 13.4382710258359" Properties=species:S:1:pos:R:3:forces:R:3 energy=-371336.5 stress="-0.00045162613969296217 4.798464033228811e-05 -7.517074118368328e-05 4.798464033228811e-05 -0.0008682276238687336 0.0002064560612780042 -7.517074118368328e-05 0.0002064560612780042 -0.0008193003013730049" pbc="T T T"
Cs      13.66310887      13.90154234       0.29880812       0.03374287       0.01260399      -0.00591385
Br      11.88930003      11.95258935       2.61826150       0.00304572       0.02708839      -0.01471325
O       10.51651300      11.93396730       1.75282586       0.01265800       0.04415701      -0.01559538
O       11.72307072      11.20111132       4.02699944      -0.01297282       0.03300497      -0.03405732
O       13.08488529      11.31166513       1.69691518      -0.01136130       0.01518586      -0.00617152
O       12.32186201      13.52257441       2.85539387       0.01658976       0.00914752      -0.00831833
O        3.57880600       9.73589998       8.02720773      -0.00572549       0.00145770       0.00414091
C        3.62598568       8.40107569       8.49210773      -0.00745967       0.00146860       0.00436151
C        4.24771194      10.63748191       8.88947196      -0.00352584       0.00037062       0.00359190
C        3.00753476       7.51331185       7.44187474      -0.00857374       0.00131342       0.00507873
C        4.16639979      12.01853398       8.28724144      -0.00388456       0.00068021       0.00442322
H        4.67110039       8.11289280       8.68362950      -0.00791749       0.00016751       0.00447389
H        3.08804575       8.31906526       9.44880773      -0.00758341       0.00270231       0.00431365
H        3.78578004      10.61596370       9.88774387      -0.00220826       0.00008774       0.00424573
H        5.29442485      10.32113349       9.01020493      -0.00340444      -0.00033692       0.00131447
H        3.03928692       6.47034353       7.75519288      -0.00844766       0.00148258       0.00565188
H        1.96901744       7.79198434       7.25806641      -0.00869706       0.00113533       0.00586558
H        3.55246571       7.60159487       6.50151445      -0.00942205       0.00054222       0.00454892
H        4.69828838      12.73541411       8.91089974      -0.00378445       0.00033400       0.00459354
H        4.61385640      12.02866987       7.29220559      -0.00416709       0.00133409       0.00424054
H        3.12763736      12.33532605       8.19539270      -0.00399795       0.00039873       0.00471243
O        1.30591741      10.24890970       4.47732545      -0.00444782       0.00900209      -0.00113693
C        1.95847157       9.18776110       3.81801201      -0.00704044       0.00749552      -0.00130090
C        2.21838395      11.17683977       5.02790733      -0.00205968       0.00861508      -0.00463074
C        0.92511899       8.28799339       3.18711143      -0.00931960       0.00679389       0.00392771
C        1.43233161      12.33303106       5.59690770       0.00066024       0.00909406      -0.00206602
H        2.63933558       9.59019062       3.05185783      -0.00936157       0.00591826      -0.00435275
H        2.58144434       8.62907104       4.53653621      -0.00501290       0.00863087      -0.00225806
H        2.82557007      10.69116874       5.80517124       0.00047761       0.00844392      -0.00658244
H        2.90783721      11.52720800       4.24051983      -0.00444213       0.00745691      -0.00724953
H        1.40317101       7.43246270       2.70648474      -0.01090902       0.00733151       0.00162548
H        0.23726467       7.91693839       3.94681575      -0.00539275       0.00625968       0.00714903
H        0.34968118       8.84371922       2.44786158      -0.01318404       0.00644115       0.00664610
H        2.10457346      13.08778726       6.00772443       0.00255410       0.00969960      -0.00669605
H        0.81315584      12.79019882       4.82410073      -0.00405034       0.00763052       0.00089812
H        0.76963636      11.98564562       6.38861348       0.00497136       0.01006734       0.00194146
O        1.30697969       4.43609749       3.02531209       0.00290468       0.00011662       0.00070317
C        1.87378366       4.19317472       4.30614656       0.00161912      -0.00347772       0.00037554
C        1.84679112       3.58512262       2.03919096       0.00697801       0.00640306      -0.00219852
C        1.28693456       5.17069621       5.29230691      -0.00208923      -0.00799870       0.00249287
C        1.17341202       3.88966059       0.72091302       0.00690944       0.00983736      -0.00102258
H        1.66092430       3.15689191       4.60872653       0.00314449      -0.00508931      -0.00395001
H        2.96627290       4.30446866       4.24796895       0.00140673      -0.00058670       0.00227792
H        2.93472680       3.73252393       1.96879031       0.00644678       0.01072249      -0.00067390
H        1.68456190       2.53402666       2.34001174       0.01085726       0.00441447      -0.00698902
H        1.66185255       4.96005960       6.29434789      -0.00125944      -0.00852481       0.00200617
H        1.55590843       6.19317387       5.03023918      -0.00612119      -0.00640437       0.00445880
H        0.19921384       5.09501850       5.30686192      -0.00171860      -0.01227907       0.00238237
H        1.61083142       3.31146312      -0.09914329       0.01005221       0.01561718      -0.00328930
H        0.09991672       3.69359249       0.78115716       0.00760742       0.00556540      -0.00286295
H        1.29938020       4.94463710       0.47435220       0.00306484       0.01155338       0.00446603
O        9.56166728      11.53215879      10.87128360       0.00062975       0.00099617      -0.00403014
C       10.91619798      11.75636242      11.20526446      -0.00029612      -0.00068936       0.00029060
C        9.01711749      12.59309108      10.11079202       0.00309187       0.00423503      -0.00088975
C       11.43162525      10.56602654      11.97645261      -0.00337860      -0.00129351       0.00091591
C        7.57591991      12.27216510       9.80457440       0.00386226       0.00554618      -0.00524789
H       11.50099088      11.92142635      10.28697975       0.00324059       0.00065287       0.00278872
H       10.98705222      12.67755576      11.81310862      -0.00062459      -0.00251511       0.00253418
H        9.09568502      13.53689052      10.67424099       0.00215923       0.00195229       0.00287044
H        9.59273062      12.72184290       9.18153701       0.00537956       0.00776186       0.00114068
H       12.49711920      10.67342051      12.19105986      -0.00484169      -0.00038482       0.00790329
H       10.91046621      10.46677040      12.92767782      -0.00903291      -0.00307171      -0.00253548
H       11.29052600       9.65467496      11.39434051       0.00091591      -0.00039071      -0.00103608
H        7.12686692      13.07196092       9.21381405       0.00556913       0.00743352      -0.00381479
H        7.50807410      11.34395882       9.23613621       0.00525351       0.00719279      -0.00803941
H        7.00614309      12.15104440      10.72774524       0.00158335       0.00281324      -0.00709403
O       11.57122602       9.00056007       6.31945017       0.00396442       0.00641516      -0.00525120
C       10.62010689       8.06274787       5.85587836       0.00276834       0.00708835      -0.00357974
C       11.72640286       8.95296215       7.72061885       0.00961354       0.00285673      -0.00630015
C       10.39540305       8.25361172       4.37776532      -0.00061592       0.00922373      -0.00263596
C       12.71232225      10.01773967       8.13332184       0.01054952       0.00176135      -0.00615634
H       10.96984096       7.03962789       6.07613145       0.00332317       0.00689304      -0.00567503
H        9.67646700       8.20228242       6.40224567       0.00417918       0.00668451      -0.00084764
H       10.75365481       9.11818893       8.21280752       0.01171732       0.00095740      -0.00182278
H       12.07865474       7.95442211       8.03081018       0.01131438       0.00223434      -0.01054884
H        9.69668799       7.49975731       4.01204521      -0.00244761       0.01074925      -0.00222003
H        9.98498242       9.24126002       4.17755313       0.00003487       0.00993028      -0.00041787
H       11.33103247       8.15550463       3.82843968      -0.00209099       0.00978205      -0.00521985
H       12.84647588      10.00895254       9.21619523       0.01180189      -0.00106120      -0.00637493
H       13.67811286       9.85353737       7.65452112       0.00982735       0.00245617      -0.00750132
H       12.34598291      10.99937280       7.83142911       0.01041865       0.00237654      -0.00346299
O        6.93643505      10.10666528       4.78813364       0.00121036      -0.01126696       0.00205064
C        6.00460968       9.48105782       5.64780117       0.00014369      -0.00541753       0.00503549
C        6.55317235      11.42497265       4.44571027       0.00785586      -0.00922701       0.00249550
C        6.56421678       8.13846576       6.04541037      -0.00866003      -0.01002243       0.00091806
C        7.64030602      12.04230832       3.60846797       0.00805503      -0.01618245      -0.00217044
H        5.83635832      10.10734183       6.53498599       0.00837310      -0.00524676       0.00652575
H        5.03204457       9.38028185       5.14345074      -0.00256556       0.00242703       0.00886279
H        5.59502833      11.40534626       3.90101884       0.00580299      -0.00384399       0.00620160
H        6.38631084      12.01040829       5.36471352       0.01486019      -0.00773352       0.00271434
H        5.89498184       7.62678474       6.73615636      -0.00745106      -0.00414670       0.00622205
H        6.71296675       7.50027494       5.17348941      -0.02125978      -0.01133747      -0.00015539
H        7.52577557       8.27714830       6.53752225      -0.00366692      -0.01868555      -0.00664899
H        7.37731664      13.07043532       3.36494262       0.01259156      -0.01552756      -0.00339776
H        8.59119469      12.02970131       4.14144660       0.00977990      -0.01997240      -0.00564300
H        7.77747939      11.48893551       2.67928627       0.00148649      -0.01811023      -0.00209995
O       10.10359371       3.03835775       4.51658714      -0.00486821      -0.00620952      -0.00410426
C       11.23444331       3.31123013       3.70644368      -0.00012507      -0.00537473       0.00275669
C        9.93973151       1.65048636       4.77852314      -0.00218695      -0.00588033      -0.00166503
C       11.27910862       4.79282641       3.42423346      -0.00190234      -0.00638676      -0.00078769
C        8.63956028       1.45232584       5.52191839      -0.00342470      -0.00784874      -0.00446579
H       12.15094558       2.97656018       4.21606745      -0.00323254      -0.00209808       0.01028076
H       11.16151667       2.73106531       2.77405007       0.00788390      -0.00693753       0.00358614
H        9.93871233       1.09150737       3.83369944       0.00138277      -0.00769129      -0.00057566
H       10.79591578       1.28104891       5.36118872      -0.00282595      -0.00262766       0.00113487
H       12.17774645       5.04526470       2.86110886       0.00021958      -0.00579034       0.00290655
H       10.40246230       5.10664964       2.85625089       0.00019962      -0.00987842      -0.00596143
H       11.29647152       5.35791043       4.35702011      -0.00785432      -0.00488786      -0.00177495
H        8.54371110       0.41457173       5.84221009      -0.00193963      -0.00805376      -0.00509756
H        8.59914544       2.09099106       6.40253291      -0.00642054      -0.00800559      -0.00443763
H        7.78801729       1.69572455       4.88659758      -0.00267275      -0.00937317      -0.00595349
O        2.87152052       3.25607331      10.58649652      -0.00800034      -0.00345756       0.01240615
C        4.15955498       2.66192334      10.56854999      -0.00868333      -0.00413710       0.00942580
C        2.89838096       4.58502502      10.08916831      -0.00761485      -0.00498828       0.00867146
C        4.03763617       1.24471133      11.07146791      -0.00786858      -0.00292853       0.01394588
C        1.48623668       5.11259271      10.03940082      -0.00738880      -0.00328863       0.00831128
H        4.56002915       2.67657754       9.54436319      -0.01709682      -0.00613932       0.00574294
H        4.85048354       3.24763074      11.19380109      -0.00795332      -0.00099677       0.00666794
H        3.53309788       5.21104898      10.73503661      -0.00630608      -0.00400797       0.00717077
H        3.35446289       4.58786523       9.08770883      -0.00973833      -0.01140098       0.00751400
H        5.00589013       0.74238128      11.04041652      -0.00736083      -0.00089472       0.00914101
H        3.68996966       1.23343676      12.10693115      -0.00060786      -0.00099086       0.01687324
H        3.33179425       0.68377079      10.45738566      -0.01074155      -0.00592878       0.01947583
H        1.47722637       6.14394440       9.68491198      -0.00624368      -0.00456013       0.00480892
H        0.87607823       4.51002544       9.36530859      -0.00951189      -0.00363675       0.01035058
H        1.03369208       5.08706565      11.03117998      -0.00777744       0.00177310       0.00842987
O        5.83598807       1.00306411       2.01152609       0.00354141      -0.01296175      -0.00206015
C        6.37085426       0.86506423       0.70423942       0.00106794      -0.00587457      -0.00379074
C        4.44309215       0.77739338       2.05913759       0.00286695      -0.00712772      -0.00107032
C        7.87426835       0.97377076       0.77254435       0.00122100      -0.00924846      -0.00611776
C        3.97176425       0.97394103       3.47988069       0.00526670      -0.00638463      -0.00056148
H        6.07080769      -0.10688397       0.28414754      -0.00193739      -0.00249773      -0.00926964
H        5.94935657       1.64901057       0.05523372       0.00167485      -0.00089231       0.00203657
H        3.93135014       1.47851434       1.37687585       0.00509012      -0.00402135       0.00039399
H        4.22029654      -0.24449835       1.70928513      -0.00250193      -0.00569785      -0.00215141
H        8.29424120       0.96579932      -0.23447771      -0.00097390      -0.00278088      -0.00698665
H        8.16139521       1.90638257       1.25897783       0.00441041      -0.01327915      -0.00036131
H        8.31204335       0.14666084       1.32848853       0.00147643      -0.01365715      -0.01320820
H        2.90624090       0.75564355       3.57019678       0.00492337      -0.00376633       0.00083332
H        4.51028995       0.30408494       4.15108741       0.00468813      -0.00766809      -0.00142497
H        4.14693284       2.00039584       3.80400178       0.00837258      -0.00690170      -0.00081999
O        6.18254534       6.15713274       2.66100733      -0.00159580       0.00477910      -0.00335710
C        7.42958376       5.49979243       2.78851430      -0.00345713       0.00230670       0.00215827
C        6.31673527       7.51949454       2.29450566       0.00333959       0.00497150      -0.00082529
C        7.17739369       4.07044716       3.18837882      -0.00751333       0.00185066      -0.00218573
C        4.93956329       8.12993577       2.29850436       0.00477147       0.00828220      -0.00774350
H        7.98265483       5.55409010       1.83860768       0.00175576       0.00335833       0.00536191
H        8.04509345       6.01066464       3.54422246      -0.00687656      -0.00029728       0.00654063
H        6.97417221       8.04347797       3.00091233       0.00043806       0.00259244       0.00334734
H        6.78040357       7.59951111       1.30187872       0.00895578       0.00504087       0.00183076
H        8.12309250       3.53944628       3.29491686      -0.00864896       0.00092365       0.00335039
H        6.66526098       4.03231765       4.15149848      -0.01445887       0.00071540      -0.00603601
H        6.55559445       3.55853908       2.45326583      -0.00249368       0.00350972      -0.00745350
H        4.99134140       9.19729749       2.08149551       0.00853492       0.00823782      -0.00723771
H        4.29687304       7.64897487       1.55949434       0.00772442       0.01014993      -0.01133657
H        4.48195847       7.99833484       3.27843487      -0.00070211       0.00951352      -0.01020545
O        9.20325909       4.61472239      12.39173912       0.00039625      -0.00023699       0.00107741
C       10.01240635       3.45910942      12.41262603       0.00690931       0.00468848       0.00071295
C        7.83361309       4.32020025      12.60157597       0.00343376      -0.00569659       0.00746763
C       11.41570577       3.86023682      12.02172463       0.00138599       0.01791278      -0.00432101
C        7.04198176       5.59661350      12.46040241      -0.00582302      -0.01186371       0.00373735
H        9.99927012       2.99900836      13.41327647       0.01153814       0.00618500       0.00176817
H        9.60879855       2.71450145      11.70982011       0.00931978       0.00065833       0.00306672
H        7.50143377       3.57273779      11.86430022       0.00401770      -0.01097396       0.01299566
H        7.69450581       3.88390634      13.60066083       0.00799873      -0.00079253       0.00993180
H       12.07010617       2.98578424      11.95084034       0.00733813       0.02358750      -0.00738835
H       11.40772381       4.35407165      11.04975247      -0.00676221       0.01867726      -0.00412914
H       11.83492888       4.55059634      12.75401209      -0.00016234       0.01999298      -0.00513022
H        6.01813283       5.45677610      12.80935261      -0.00395983      -0.01765864       0.00673258
H        7.50138752       6.38219493      13.05998458      -0.01222242      -0.00517604      -0.00040625
H        7.02547232       5.92571001      11.42452104      -0.01235048      -0.01633423       0.00244659
O        9.03208814       5.01736641       8.92683201       0.00533286      -0.00461809       0.00011295
C        9.80334441       4.18799052       8.07456867       0.00322825      -0.00528002      -0.00089103
C        8.98883441       6.33621200       8.41431188       0.00673422      -0.00387084       0.00239152
C        9.87920316       2.80098750       8.66108942       0.00058903      -0.00545883      -0.00108901
C        8.18371443       7.22808579       9.32430309       0.00370932      -0.00650212       0.00222242
H        9.35826351       4.16698666       7.07005282       0.00249672      -0.00411972      -0.00050402
H       10.81350440       4.61333933       7.96356018       0.00397879      -0.00718598      -0.00147708
H       10.01284123       6.71977877       8.31832501       0.00694758      -0.00328438       0.00579555
H        8.55679546       6.31883383       7.40256493       0.00931445      -0.00201320       0.00134468
H       10.41577975       2.13734159       7.98209414      -0.00167854      -0.00684734      -0.00137164
H       10.40245952       2.81442293       9.61575435       0.00112459      -0.00675357      -0.00138302
H        8.87855875       2.39690258       8.82264691      -0.00039534      -0.00272334      -0.00039762
H        8.19027743       8.25063438       8.94247631       0.00427150      -0.00548324       0.00502545
H        7.14764256       6.89178322       9.38243312       0.00388545      -0.00740905      -0.00180855
H        8.60602286       7.23560223      10.32859372       0.00052938      -0.00933556       0.00351052
