186
Lattice="13.409671458309315 0.0 0.0 0.0 13.409671458309315 0.0 0.0 0.0 13.409671458309315" Properties=species:S:1:pos:R:3:forces:R:3 energy=-380378.75 stress="-0.002911091549322009 -0.0004097346536582336 -0.00048480340046808124 -0.0004097346536582336 -0.0011210532393306494 -0.00025877932785078883 -0.00048480340046808124 -0.00025877932785078883 -0.004185359459370375" pbc="T T T"
Cs      12.63521748      13.39464792      -0.89095933       0.00758921       0.00862506      -0.03119976
O       13.23507532       9.46063450       1.98232051       0.02124697       0.02373827      -0.00774944
O       12.53954296      12.00216012       1.87809268       0.02116083       0.01878142      -0.02832538
O       11.28072534      10.25520962       0.45348670       0.01131332       0.00876957      -0.00315124
O       13.73085943      10.88742706      -0.15128230       0.00634873       0.00155370      -0.02534866
Mn      12.69788456      10.62372668       1.06357757       0.01686905       0.01332027      -0.01606637
O        4.81694144       9.91482105       8.21334646       0.01948021       0.01116879       0.01726600
O        5.71314147       7.96794971       8.46468104       0.00739969       0.03236981       0.00876748
O        7.06962358       9.78791632       8.43261297       0.01472425       0.01781470       0.00580842
C        4.95141545      11.35050128       8.09895515      -0.00616288       0.00967262       0.01671648
C        3.57684922      11.92733075       7.91529446       0.00091928       0.01864110       0.02026663
C        5.98310575       9.27328711       8.37342587      -0.04495978      -0.00928420       0.00742326
C        6.84743515       7.12999154       8.76755965      -0.01129569       0.01039895       0.00973486
H        5.44531074      11.72022949       8.99917798       0.00191520       0.01295102       0.01778257
H        5.60377023      11.56202077       7.25193630      -0.00171593       0.01546304       0.01440391
H        3.64994492      13.01269790       7.82675952      -0.00000748       0.01527013       0.02590175
H        3.10507545      11.54625804       7.01375618      -0.00096332       0.01946732       0.01909956
H        2.93920496      11.69437310       8.76890358       0.00055994       0.01152359       0.01985432
H        7.54423668       7.11596105       7.93564074      -0.00463119       0.00766991       0.00954753
H        6.43864763       6.14016523       8.93989829      -0.00550872       0.01274499       0.01445695
H        7.37281445       7.49860198       9.64481093      -0.00372423       0.01359574       0.01095948
O        1.57322949       8.74202600       5.66144639       0.00509845       0.00273001       0.00707636
O        1.81371277       9.95576254       3.88764530       0.01078453       0.00752719       0.01200294
O        1.21518846      10.96830465       5.81679746       0.00515541       0.00300920       0.01368695
C        1.36231549       8.65130494       7.09166922       0.00556935      -0.00325704       0.00755802
C        1.44857877       7.19936950       7.47728136      -0.00244613      -0.00583631      -0.00076227
C        1.51586576       9.98107999       5.18359176       0.00718932       0.00158864       0.01126295
C        1.86455769      11.25264716       3.27686217       0.01307630       0.00866472       0.01639119
H        2.12840907       9.25345226       7.58448543       0.00952500      -0.01107860       0.00944075
H        0.38511515       9.06660978       7.32432799       0.00804794       0.00054188       0.01072694
H        1.27780008       7.09372548       8.54939366      -0.00017959      -0.01110340      -0.00100207
H        0.68674238       6.62170179       6.95558488      -0.00740372       0.00153371      -0.00073786
H        2.43324459       6.78957387       7.24875927      -0.00620292      -0.01087839      -0.00632116
H        0.95512265      11.81114786       3.48438391       0.01128995       0.00713840       0.01203997
H        1.94684361      11.06845689       2.20946554       0.02050580       0.01227519       0.01664317
H        2.73514335      11.79262565       3.64574048       0.00939056       0.00872576       0.02426185
O        2.00287872       3.28720454       1.12115583      -0.00178190       0.00304718      -0.00588685
O        3.15564923       5.06621259       0.69562558       0.00366625      -0.00152651      -0.01057005
O        4.24032120       3.08315258       0.84449862      -0.00602555      -0.00026333       0.00387268
C        1.92909223       1.86597521       1.37841875      -0.00639772       0.00389500      -0.00099826
C        0.55032552       1.58413517       1.91645617      -0.00401685       0.01222179       0.00760785
C        3.23735132       3.75375931       0.88306821       0.00567174      -0.00587180      -0.00360102
C        4.41875619       5.75421976       0.74746254       0.00527720      -0.00556645      -0.00844065
H        2.13941813       1.33496646       0.44372854      -0.01637588       0.00005056      -0.00061333
H        2.70345295       1.59420771       2.09511801      -0.00351447       0.00197096      -0.00590804
H        0.38082495       0.50939861       2.00469703      -0.00764832       0.01337412       0.00897425
H        0.43415571       2.02246489       2.90491888       0.00464212       0.01385319       0.00759462
H       -0.21657676       2.02008676       1.26917957      -0.00591978       0.01374916       0.01143175
H        4.81503534       5.69463613       1.75857330      -0.00258992       0.00282746      -0.00531086
H        4.18665421       6.78434269       0.50853151       0.01026577      -0.00752547      -0.02028747
H        5.11816871       5.33817168       0.02773915       0.00846304      -0.01442933       0.00089324
O       10.42372073       9.65615069      11.22133172       0.00141264      -0.01066476      -0.00116763
O        8.58410234      10.77289769      11.20453445       0.00195761      -0.01028481       0.00589105
O       10.52979347      11.91680458      11.12344897      -0.00041279      -0.01686549      -0.00708100
C       11.87096778       9.56874100      11.13948444       0.00282845      -0.01256025      -0.00795591
C       12.27894753       8.17770026      11.53741318       0.00179232      -0.00708637       0.00831290
C        9.90870878      10.86568147      11.18862988       0.01031202      -0.00321984      -0.00167698
C        7.88025517      12.01528885      11.07649310       0.00357924      -0.00911900       0.00911946
H       12.16687306       9.79580199      10.11725925      -0.00474949      -0.02629211      -0.01203722
H       12.31250338      10.30668953      11.80027870       0.00595640      -0.00550729      -0.02045023
H       13.36698916       8.11156592      11.52365763       0.00126135      -0.01155926      -0.00146166
H       11.93332939       7.95927131      12.54635039       0.01144547       0.00974912       0.01416188
H       11.88311079       7.43089450      10.85045206      -0.00720710      -0.01607260       0.02456546
H        8.00627094      12.62361505      11.97219081       0.00964602      -0.00903434       0.00660020
H        6.83783198      11.74106027      10.95428985       0.00275171      -0.01019159       0.01693379
H        8.22816599      12.56796283      10.20559034      -0.00197051      -0.01158905       0.00585356
O       11.55127665       8.97529255       7.93922332      -0.01350293       0.00010727      -0.01238348
O       11.54525321       6.83127939       8.27983594       0.00052415       0.01060070      -0.00282097
O        9.68017050       8.00995969       8.76986693      -0.02726018      -0.00209142       0.00548482
C       10.87150093      10.25999864       7.94623053      -0.00846088      -0.00118895      -0.01472574
C       11.92019208      11.33622451       7.82809466      -0.01603606       0.00488546      -0.00558964
C       10.81141523       7.94749138       8.37218305       0.03968525      -0.00210720      -0.02167481
C       10.83860822       5.64962944       8.69898610       0.01869217       0.00357804       0.00288615
H       10.16678098      10.27171474       7.11474412      -0.00790697       0.00070794      -0.01746681
H       10.28592708      10.33214840       8.85749815      -0.01583228      -0.00457327      -0.01520279
H       11.43379370      12.31259001       7.83293133      -0.01822038       0.00182661      -0.01109729
H       12.61136046      11.30732976       8.67147698      -0.02291121       0.00649980      -0.00003617
H       12.51332256      11.24198438       6.91992019      -0.00710297       0.00477754      -0.00060260
H       10.60069825       5.70820708       9.76095170       0.02763215       0.00452476       0.00642529
H       11.50892164       4.82265130       8.48923138       0.01677954       0.00574738      -0.00068827
H        9.91180472       5.53416277       8.14238007       0.01085564      -0.00127342       0.01327688
O        5.56310230       8.71537066       4.81943219       0.00549141      -0.00281209      -0.00032213
O        6.45826243      10.65528141       4.54204340       0.00638489      -0.00339323      -0.00120470
O        4.27399842      10.55449561       5.11380068       0.01410484      -0.00300837       0.01971853
C        4.48755774       7.85173492       5.27569437       0.00531924      -0.00239500       0.00340736
C        5.11158920       6.52003569       5.58460738       0.00601155      -0.00258803       0.00094573
C        5.32012700      10.01566863       4.84587971       0.00410676      -0.00188574       0.00834869
C        6.29750453      12.06960385       4.40745067       0.00605823      -0.00290802       0.00387875
H        4.03833051       8.31360237       6.15154895       0.00836304      -0.00252485       0.00349244
H        3.73322426       7.79060418       4.49169436       0.00431967      -0.00211763       0.00465101
H        4.34015998       5.83657386       5.93831566       0.00572564      -0.00258924       0.00081145
H        5.56290120       6.08265998       4.69783385       0.00515266      -0.00169288       0.00051582
H        5.87360847       6.61842682       6.35136249       0.00615433      -0.00366250       0.00078274
H        5.64432142      12.28964606       3.56634219       0.00393730      -0.00025068       0.00699398
H        7.29291035      12.45435086       4.21351041       0.00558081      -0.00324111       0.00219372
H        5.88208710      12.50055156       5.31820249       0.00942124      -0.00609747       0.00649044
O        7.96612524       2.21135096      10.75962971       0.00274546       0.00444421      -0.01096097
O        6.28344663       2.30324434       9.40533465       0.00767010       0.00016364      -0.01668337
O        7.95570806       3.80956007       9.15510762       0.00022110       0.00781238      -0.00595143
C        9.23247988       2.73000603      11.21491301      -0.00243365       0.00948375      -0.00365591
C        9.58207675       1.99123498      12.48098255      -0.00711256       0.00843894      -0.00330609
C        7.44848922       2.86953463       9.71655480       0.00376993       0.00657207      -0.01234281
C        5.55796288       2.98507236       8.36882886       0.00737551       0.00030166      -0.01681045
H        9.97381403       2.57481718      10.42684656       0.00249225       0.01439967       0.00048795
H        9.13577683       3.80370964      11.37857099      -0.00791833       0.00849223      -0.00230102
H       10.52549798       2.37200157      12.88028085      -0.01018536       0.00946881       0.00265079
H        8.81661810       2.14745507      13.24045360      -0.01144330       0.00532245      -0.00743277
H        9.66662824       0.91964252      12.29246943      -0.00411519       0.00899585      -0.00448807
H        5.37063462       4.01558619       8.66404543      -0.00655997      -0.00502858      -0.01005130
H        4.62107631       2.44504571       8.26973374       0.01495220      -0.00937018      -0.02779180
H        6.11744628       2.97077346       7.43552071       0.01417629       0.01445915      -0.01211169
O       10.68347643       7.62410850       2.26534388       0.00312559       0.00294584      -0.01490515
O       10.90944211       9.27432890       3.61739840       0.00508124       0.00570554      -0.01772564
O       12.25047607       7.46146602       3.89651151       0.00094521       0.00721729      -0.01661187
C       11.10274962       6.35323069       1.73784404       0.00086585      -0.00079100      -0.00741142
C       10.10504638       5.99203499       0.66643271       0.00107351      -0.00623753      -0.00527757
C       11.39028184       8.06387415       3.30859327       0.00661683       0.00235999      -0.01249075
C       11.61616396       9.94481080       4.66286800       0.00710821       0.00674538      -0.01880392
H       12.11629209       6.46404561       1.34470628       0.00072563      -0.00526237      -0.00773434
H       11.13174862       5.61852505       2.54639202      -0.00051035       0.00457820      -0.00327799
H       10.42814911       5.08966820       0.14542485      -0.00122913      -0.01209424       0.00430003
H        9.12028065       5.81597861       1.09899231      -0.00007363       0.00101168      -0.00579917
H       10.01498817       6.80157927      -0.05684027       0.00560461      -0.01389140      -0.01392311
H       11.79658318       9.27271086       5.50004706       0.00607653       0.00844035      -0.01790136
H       10.98100999      10.77594720       4.95820902       0.00826885       0.00833534      -0.02074384
H       12.56072507      10.32349155       4.28174306       0.00716472       0.00386527      -0.02048357
O        7.20929633      11.36675964       1.60475173      -0.00437199      -0.01008549      -0.00296170
O        5.25820367      10.44709697       1.76165947      -0.00124457      -0.00865259       0.00024370
O        6.99775707       9.17940042       1.04914940      -0.00009543      -0.01928067      -0.01356593
C        8.64329241      11.26043447       1.39300432      -0.00485571      -0.00847799       0.00128439
C        9.23566445      12.60530417       1.72358759      -0.00213933      -0.00995216      -0.00232801
C        6.54357017      10.22619456       1.43120301      -0.01347569       0.01403344       0.00372481
C        4.42531611       9.28726073       1.62595932      -0.00511780      -0.00426997      -0.00097529
H        9.03983694      10.46712547       2.02491575      -0.00648460      -0.00787997       0.00459331
H        8.81676219      10.97235764       0.35809410      -0.00168569      -0.01347707       0.00215554
H       10.30871573      12.58671455       1.52810744      -0.00145936      -0.01360767       0.00884154
H        8.76597433      13.39500370       1.13538474       0.00570571      -0.01220860      -0.01141498
H        9.10365010      12.84472707       2.77997619      -0.01407175      -0.00227299      -0.00572310
H        4.25074245       9.08234860       0.56918657      -0.01081021       0.00193138      -0.00136521
H        3.49339517       9.52160734       2.12678379      -0.00156599      -0.00927155       0.00550939
H        4.90175431       8.42783701       2.09302094      -0.00144529      -0.00785336      -0.00977290
O        3.93827936       3.73414131      11.03805295      -0.01171794       0.00369732      -0.00854607
O        4.62303814       5.77767034      11.01183694      -0.02264279       0.00664796      -0.00291301
O        2.40345776       5.38270416      10.76522667      -0.02212727      -0.00290427      -0.00834821
C        2.87749588       2.75666338      11.01378637      -0.00654238      -0.00066733      -0.00975800
C        3.51161650       1.40878813      11.24918733      -0.00166059       0.00302747      -0.00457244
C        3.53544299       5.00395822      10.92201267      -0.01327372       0.00134298      -0.00620995
C        4.34136053       7.18790895      11.04914467      -0.02955073       0.00566037      -0.00326109
H        2.15489238       3.01881453      11.79158796      -0.01028085      -0.00219714      -0.01254985
H        2.36461700       2.81830745      10.05062659      -0.00410311      -0.00511668      -0.01126361
H        2.74385011       0.63083576      11.25648430       0.00223374      -0.00050422      -0.00417203
H        4.22749294       1.17064055      10.46432742       0.00165568       0.00420063      -0.00195125
H        4.03471747       1.39794823      12.20449643      -0.00435843       0.00809404      -0.00328174
H        3.92878111       7.51963028      10.10118852      -0.02004841       0.00589708      -0.00600702
H        5.29965814       7.66542990      11.23165006      -0.03348622       0.00939482       0.00756238
H        3.64144014       7.40513016      11.85356050      -0.03808609       0.00048381      -0.00963479
O        4.14624675       2.77819772       3.96137525      -0.00872211       0.00746193       0.00960636
O        2.09218237       3.37187254       4.33749434      -0.00654382       0.00594974       0.01042525
O        3.54868081       4.93542284       3.61584699      -0.00986342       0.01283634      -0.00600153
C        5.51022522       3.12434088       3.59633910      -0.00915492       0.00384456       0.00914581
C        6.19657553       1.87574697       3.11720286      -0.00837891       0.00334439       0.01300813
C        3.29217032       3.80395388       3.94544358      -0.01274391      -0.00928164       0.00903741
C        1.08224071       4.40625075       4.32134085      -0.01094924       0.00027388       0.00590929
H        5.47929158       3.87582339       2.81413981      -0.00856999       0.00255072       0.00674832
H        5.99274370       3.54634929       4.47733489      -0.00812997       0.00628093       0.00730854
H        7.23765429       2.10616775       2.88430721      -0.00977075       0.00309065       0.00917988
H        6.18308090       1.10450754       3.88333328      -0.00617680       0.00691718       0.01693079
H        5.71968131       1.49438932       2.21611633      -0.01031636      -0.00079418       0.01619314
H        1.31210084       5.16294383       5.06773042      -0.00520900       0.01414201      -0.01079795
H        0.14940136       3.90681377       4.56246390      -0.00608367       0.00204779       0.02390097
H        1.03689060       4.87156204       3.33939442      -0.02267945      -0.01604959      -0.00099108
O        8.38212615       5.76888405       5.58969331       0.00971009      -0.01356761       0.00074023
O        8.04166591       3.63406318       5.68408760       0.00858511      -0.01266640       0.00616433
O       10.17394078       4.38194621       5.56372466       0.01119447      -0.01315191       0.01243143
C        9.29859617       6.89451926       5.46911756       0.00972247      -0.01660442      -0.00508477
C        8.48756663       8.14747617       5.33228830       0.01133201      -0.01520666      -0.00237386
C        8.98664127       4.58879421       5.60988469       0.00725329      -0.01456727       0.00755594
C        8.57274049       2.30633975       5.74260717       0.00505325      -0.01353927       0.01326460
H        9.93570518       6.89834686       6.35014163       0.01611638      -0.01636366      -0.00993311
H        9.93327748       6.70555769       4.60873525       0.00499448      -0.01695615      -0.00922972
H        9.15026024       9.00998862       5.33389589       0.01238497      -0.01729330      -0.01478773
H        7.92871507       8.16171135       4.40091383       0.00043386      -0.01942570       0.00467393
H        7.79043880       8.26892945       6.15794888       0.02058178      -0.01057157       0.00489867
H        9.19854508       2.10637092       4.87372640       0.00404902      -0.01969710       0.01418224
H        7.70919276       1.64726491       5.74858588       0.00402120      -0.01185241       0.01728516
H        9.16338268       2.17589759       6.64840254       0.00514641      -0.00996729       0.01353756
