197
Lattice="13.199184108331812 0.0 0.0 0.0 13.199184108331812 0.0 0.0 0.0 13.199184108331812" Properties=species:S:1:pos:R:3:forces:R:3 energy=-318794.25 stress="-0.001413455931469798 0.0006135043513495475 0.00011181911759194918 0.0006135043513495475 -0.0025769283529371023 0.00028929430118296295 0.00011181911759194918 0.00028929430118296295 -0.002536458894610405" pbc="T T T"
Cs      13.00909355      12.59585631      -1.23256823       0.01503456      -0.04079805       0.01382534
Cl       9.30677635      11.99898004       0.50851493      -0.00387615       0.01224601       0.01377177
O       10.64505023      11.88764135      -0.17450834      -0.00535941       0.02347603       0.00943077
O        8.52440248      13.00393121      -0.27150985      -0.01220918       0.01092005       0.02117193
O        8.63432393      10.69338457       0.37074846       0.00340742       0.00841451       0.01114050
O        3.70881638       9.08519727       5.13423364       0.00498721       0.00895874      -0.01381379
C        3.00520591      10.20906650       5.69077708       0.00410268       0.00269896      -0.00468227
C        3.96379446      11.34844293       5.99482112       0.00030977       0.00603175      -0.00564364
C        1.87956921      10.62339930       4.76242404      -0.00307095       0.00397211       0.00468346
H        2.59269725       9.82304577       6.62132996       0.01065689      -0.00348887      -0.00232702
H        3.42290976      12.23559423       6.32667214      -0.00137389       0.00136757       0.00380038
H        4.66445088      11.05182794       6.77555294       0.00931882       0.00543170      -0.01368903
H        4.52794867      11.62936067       5.10109939      -0.00916244       0.01255076      -0.00970432
H        1.28467180      11.42958265       5.19828594      -0.00751321      -0.00523790       0.01527125
H        1.22740165       9.77128028       4.57092168       0.00294665       0.00100894      -0.00292801
H        2.27601776      10.97867088       3.80742065      -0.00757161       0.01701740       0.00739967
H        4.13563898       9.39447300       4.32812282      -0.00033691       0.01519170      -0.01405059
O       12.99778832       8.40094424       1.15226029       0.00984704       0.01356196       0.00576168
C       11.92980957       9.30933438       1.46193837       0.00349681       0.00372007       0.00562662
C       10.83044593       8.60304218       2.23178051       0.00405449      -0.00061607       0.00078911
C       12.46602798      10.52231440       2.20486045      -0.00647947       0.00669378       0.00847334
H       11.53224822       9.60898904       0.49595923       0.00308812       0.00496520       0.00363511
H       10.00684779       9.29228399       2.42202639      -0.00168200      -0.00611019      -0.00700750
H       10.45148983       7.76735534       1.64639641       0.01164479      -0.00553100       0.00085784
H       11.20920766       8.23593340       3.19233193       0.00074963       0.00374386       0.00407887
H       11.69290754      11.28558349       2.31306374      -0.00928012       0.00478877       0.00305423
H       13.31683223      10.95135673       1.66728733      -0.00389354       0.00874801       0.01427140
H       12.81589559      10.24194514       3.19966281      -0.01101863       0.00869322       0.01051606
H       13.23666553       7.94653216       1.96683395       0.00528681       0.00678963       0.00225082
O       11.34308122       1.58081793       1.80364203       0.00950146      -0.00703543      -0.01409233
C       11.48260566       2.42266431       2.96274995      -0.00124219      -0.00822839      -0.01464961
C       12.17588735       1.67823068       4.08475153      -0.01022327      -0.00279054      -0.00666285
C       12.18918088       3.71599475       2.60240338      -0.00347766      -0.00533164      -0.00936650
H       10.46054908       2.64917596       3.27003282      -0.00721359      -0.00701565      -0.01966497
H       12.31626110       2.32362301       4.95151601      -0.02073141      -0.00331989      -0.00589000
H       11.60729634       0.79876333       4.38902674      -0.00967646      -0.00662671      -0.01149734
H       13.16932199       1.35009313       3.75512179      -0.00504687       0.00091324       0.00202429
H       12.28499741       4.36009859       3.47997223      -0.01579680      -0.00279609      -0.00951260
H       11.64157734       4.25536249       1.82906789       0.00331604      -0.01017081      -0.01683676
H       13.19165749       3.50879769       2.22528471       0.00149360      -0.00422663       0.00235190
H       12.11354080       1.00583511       1.79447880      -0.01742077      -0.04038014       0.01835710
O        6.50788952       1.80876525       1.63765905      -0.01618099      -0.01731187      -0.00187442
C        7.73909366       2.01693120       2.33362271      -0.01699549      -0.01779246      -0.00394434
C        7.78286212       3.48907121       2.70562892      -0.01491363      -0.01575822      -0.00626259
C        7.84547359       1.07782119       3.52315802      -0.00910415      -0.01114154       0.00517476
H        8.57933949       1.79595283       1.66360138      -0.01453102      -0.01807661      -0.00248337
H        8.65933705       3.72382455       3.31278733      -0.00184888      -0.01175640      -0.02417315
H        7.81243038       4.11151330       1.81005069      -0.03764712      -0.01645543      -0.00826134
H        6.88816792       3.75898875       3.26599624      -0.00517182      -0.02104458       0.01311589
H        8.72502280       1.30389554       4.12993727       0.00523976      -0.01212692      -0.01070916
H        7.93117157       0.04606667       3.17733361      -0.02648626      -0.01672307       0.01000206
H        6.95747000       1.15108666       4.15183515      -0.00130510       0.00760079       0.01944077
H        6.21882372       0.89676657       1.79059981      -0.03084717      -0.01094720       0.01784056
O        2.99977295       0.56087635       3.72786659       0.02337390      -0.00025171      -0.01460104
C        3.40060753       1.85550600       3.21538753       0.00764725       0.00795388      -0.00658265
C        3.14352088       1.94222115       1.72367073      -0.00626111       0.01916947      -0.00336295
C        2.73589495       2.97645156       3.98408926       0.00488231      -0.00547552       0.01044422
H        4.47969884       1.87693965       3.37756227       0.00920129       0.01640922      -0.01634087
H        3.53380788       2.88392733       1.33678894      -0.01102014       0.02296679       0.00068893
H        3.64710918       1.12740965       1.20599392      -0.00899857       0.02414389      -0.01402016
H        2.06836374       1.89616755       1.51407210      -0.00795390       0.01896074       0.00563675
H        3.08320533       3.93447948       3.59618420      -0.00300833       0.00186019       0.02160855
H        2.95824615       2.93298073       5.04921705       0.01103240      -0.01838486       0.00872189
H        1.65182507       2.94936257       3.84697584       0.00414458      -0.01060201       0.01576980
H        2.03896134       0.54837372       3.79422256       0.02341080      -0.01232885      -0.01668831
O        4.52199099       4.46891098       6.51883314      -0.00825495      -0.00680923       0.00570947
C        5.73101876       4.22751887       5.78651063      -0.00808620      -0.00909708       0.00660054
C        6.63994440       5.44083590       5.79975143      -0.01246226      -0.00571209      -0.00569935
C        6.43301237       2.99021198       6.31840788      -0.00349882      -0.00172365       0.01725310
H        5.39562494       4.03637066       4.76278499      -0.00858922      -0.01932250       0.00871080
H        7.52347546       5.27170352       5.18266565      -0.01545423      -0.00632520      -0.00970286
H        6.13179576       6.33415317       5.43621155      -0.01857245      -0.01047339      -0.00890748
H        6.99521371       5.64282984       6.81330646      -0.00775528       0.00198067      -0.00890945
H        7.34415006       2.78977016       5.75369722      -0.00301859      -0.00392009       0.01873927
H        5.78249909       2.11741037       6.24904305      -0.00084992      -0.00434355       0.02561779
H        6.70986429       3.13687096       7.36490602      -0.00337101       0.00878319       0.01567160
H        4.74796574       5.00200852       7.28721684      -0.00915173      -0.00171756       0.00220260
O       11.64670862       0.23292765       9.58531655       0.02890551       0.00045316       0.01479363
C       12.55993916       1.17390197       9.02069467       0.02257968       0.00100559       0.00583747
C       12.24763730       1.41358349       7.55665706       0.01619819      -0.01126282       0.00518441
C       12.60446280       2.47551423       9.81050461       0.01696269       0.00590187      -0.00202179
H       13.54984003       0.69625509       9.07942235       0.02392289       0.00474729       0.00672365
H       12.99511224       2.06873812       7.10826023       0.01039864      -0.01148902      -0.00512701
H       12.22461244       0.46828582       7.01421103       0.01766885      -0.01640239       0.01446388
H       11.27883354       1.90387413       7.44776965       0.01267338      -0.01807504       0.00640023
H       13.44881124       3.08891427       9.49081383       0.00945292       0.01185541      -0.01093394
H       12.70712582       2.30368329      10.88573512       0.02571506       0.01063455      -0.00224270
H       11.67633827       3.03323032       9.66469941       0.01104525      -0.00282753       0.00036405
H       10.88807132       0.71020701       9.99959605       0.01690678      -0.00132868      -0.00751044
O        9.81573934       1.42089159      11.09804679       0.00170713      -0.00871623      -0.00446828
C        9.18831063       2.71249698      11.03892935       0.00303519      -0.00853330      -0.00025553
C        8.58245606       2.92057737       9.66152669      -0.00113612      -0.01152864       0.00150371
C        8.17686752       2.85836559      12.15213272       0.00544423      -0.00259481       0.00121117
H        9.98387410       3.45310612      11.18638029       0.00479513      -0.01000533      -0.00277723
H        8.15518693       3.92353446       9.58752173       0.00548389      -0.00945637      -0.00611183
H        9.33465396       2.81770624       8.87676021      -0.00399020      -0.02609105       0.00086677
H        7.79385137       2.18902724       9.47783443      -0.00643121      -0.00824986       0.01211094
H        7.67294593       3.82110302      12.09636732       0.01091959       0.00014035      -0.00367546
H        8.66865967       2.78233742      13.11908581       0.00438607      -0.00174354       0.00168173
H        7.42320533       2.07299280      12.10601541       0.00089659       0.00156875       0.00365247
H        9.37979069       0.86026061      11.77586373      -0.01042049      -0.01647646      -0.02035488
O       11.96477655       4.56422178       7.15418729       0.01051721      -0.00082567      -0.02903640
C       11.33763759       5.83135838       6.91634426       0.00651930       0.00032040      -0.01214215
C       10.05952858       5.95721662       7.72249693       0.01111066      -0.01014634      -0.00298294
C       12.30746374       6.97078653       7.17810671       0.00496393       0.00029135      -0.00549316
H       11.08881807       5.80789179       5.85145048       0.00000454       0.01135636      -0.01082313
H        9.53572432       6.88054607       7.47692444       0.00807915      -0.00865842       0.00863074
H        9.39500333       5.11806681       7.51544906       0.01175729      -0.00975528      -0.00666806
H       10.28769775       5.95635755       8.79127343       0.01846760      -0.01955735      -0.00444120
H       11.88155596       7.92076475       6.85356166      -0.00084496       0.00246795       0.00850083
H       13.24640523       6.80575889       6.65028208       0.00178172       0.00939553      -0.01393153
H       12.52749962       7.05214141       8.24665018       0.01176314      -0.01188854      -0.00604007
H       12.21159180       4.53883717       8.08504062       0.01613021      -0.00980531      -0.03089724
O        4.08332211       5.59234827       1.75437203       0.00053141      -0.00296657       0.00454968
C        3.00851876       6.32002640       1.13886120       0.00137636      -0.00250489       0.00371168
C        1.68223699       5.61209154       1.34673995       0.00085634      -0.00126183       0.00409208
C        2.97967268       7.75203877       1.62861879       0.00249703      -0.00196046       0.00224230
H        3.24490777       6.30997207       0.07228316       0.00131299      -0.00363632       0.00372642
H        0.89006164       6.10585079       0.78064587       0.00061381      -0.00184460       0.00398654
H        1.74932194       4.57450640       1.01942438       0.00029334      -0.00116831       0.00480391
H        1.40722805       5.61560537       2.40502444       0.00098967      -0.00070601       0.00410664
H        2.19768771       8.31805158       1.12212645       0.00375775      -0.00095892       0.00146596
H        3.93999899       8.23105274       1.44902904       0.00331265      -0.00352633       0.00288708
H        2.77464168       7.78633472       2.70494851       0.00171512      -0.00094197       0.00195670
H        4.12792381       5.87300856       2.67454191      -0.00192136      -0.00328934       0.00463685
O        7.36323362      11.00168063       9.34924749      -0.00475534       0.00502551      -0.01194608
C        6.72633559      11.26102786      10.60830146       0.00218147       0.00682132      -0.00953829
C        6.33329812      12.71706915      10.70913839      -0.00089534       0.00577492      -0.01059357
C        5.52541791      10.34803997      10.80800335       0.00523746       0.00461009       0.00018845
H        7.47776652      11.03372068      11.36543511       0.00727636       0.01006801      -0.01236206
H        5.91524548      12.94184560      11.69050659       0.00617912       0.00876873      -0.00861298
H        7.20602953      13.35143506      10.56506305      -0.00302732       0.00722207      -0.02003332
H        5.57915437      12.95916142       9.95243490      -0.00651307       0.00119993      -0.00674480
H        5.07186911      10.52491311      11.78343374       0.01156627       0.00551273       0.00323825
H        5.81832807       9.29917201      10.75334956       0.00704181       0.00488579       0.00044952
H        4.77204417      10.54631157      10.03827854       0.00059218       0.00220750       0.00473188
H        6.84166647      11.44124015       8.67036958      -0.01148343      -0.00092451      -0.01016172
O        5.09692491      12.50627575       2.36894739       0.01819611       0.00270650      -0.01565349
C        4.99296257      11.51991540       1.33432091       0.00440899       0.00291759      -0.01466569
C        5.71303484      10.26135182       1.77079705      -0.00258151      -0.00116038      -0.01364741
C        3.54566521      11.26574765       0.94293378      -0.00531894       0.02270129       0.00316878
H        5.53328230      11.93239061       0.47489133       0.00313243      -0.00290474      -0.01813048
H        5.77169186       9.53648997       0.95719810      -0.00845343      -0.00637563      -0.00997046
H        6.72929369      10.50526559       2.06491822      -0.00005382      -0.00545892      -0.01750219
H        5.20031266       9.79747477       2.61726082      -0.00274614       0.00759482      -0.00936877
H        3.47780589      10.53503834       0.13548728      -0.03406525       0.03087144      -0.00259736
H        3.07018755      12.19143372       0.61179032       0.00440364       0.03691386       0.02826151
H        2.97802870      10.86484362       1.78607425       0.00744929       0.02191374       0.01178923
H        4.23485844      12.67131099       2.78754281       0.01984756       0.01192082      -0.01502921
O        3.12638113       3.80213039      10.13586799      -0.01278618      -0.01036037       0.01047975
C        3.80009218       3.57448333      11.38280311      -0.00973418      -0.00902506       0.00877330
C        4.40044097       2.18375241      11.42045062      -0.01102412      -0.00928956       0.00950609
C        4.85793255       4.62802116      11.66400340      -0.00739408      -0.01042688       0.00359207
H        3.00659418       3.65930056      12.13058940      -0.00761288      -0.00688517       0.01061410
H        4.90264582       2.00062682      12.37179633      -0.00767851      -0.00882753       0.00759725
H        3.63874017       1.41734329      11.25947292      -0.01235059      -0.00825538       0.01299174
H        5.15248011       2.08828596      10.63181831      -0.01464976      -0.01171479       0.00668301
H        5.27362240       4.49115966      12.66354691      -0.00528797      -0.00958779       0.00276303
H        4.43821807       5.62943456      11.59826983      -0.00554663      -0.00992489       0.00231299
H        5.67134278       4.54959477      10.93747044      -0.00937455      -0.01442711       0.00189263
H        3.74279890       3.59495115       9.42442697      -0.01391925      -0.00870510       0.00919322
O        3.48006939       8.49525084       8.30812222       0.00535554       0.00693309       0.01423353
C        4.59464984       7.66477804       7.94950353      -0.00458735       0.00451137       0.00722373
C        5.82961510       8.48370206       7.63196955      -0.00145459      -0.00435156      -0.00447033
C        4.85728238       6.66808583       9.06167841      -0.00044975      -0.00313032      -0.00166863
H        4.25897798       7.15366607       7.04532861      -0.01339833       0.00305566       0.00225979
H        6.67889991       7.83865718       7.40642080      -0.00725432      -0.00687772      -0.01859151
H        5.64731601       9.10948374       6.76164025      -0.00858777       0.00331788       0.00171389
H        6.10973923       9.11398839       8.47600020       0.01064556      -0.01075443      -0.00232154
H        5.72129644       6.03439813       8.83762290      -0.00756908      -0.00838175      -0.00834691
H        3.98538201       6.04377907       9.25983969      -0.00511932       0.00210920       0.00439411
H        5.10520433       7.19911367       9.98553664       0.00942037      -0.00630113      -0.00044698
H        3.67783973       8.87394997       9.17003324       0.01348692       0.00452032       0.01016923
O       10.56351735       7.90657810      12.37239468       0.00843781      -0.00098986      -0.00978269
C        9.27488678       7.72640899      11.77462916       0.00790632       0.00843877      -0.00253963
C        9.16405277       8.51631637      10.48622675       0.00464326       0.00566557      -0.00316101
C        8.99660374       6.24593072      11.58722534      -0.01116730       0.01132095       0.00435920
H        8.58083280       8.13919998      12.51079456       0.00931084       0.01873264       0.00180325
H        8.18779200       8.38380191      10.01671778       0.00333363       0.01294484       0.00011013
H        9.30785676       9.57858320      10.67491761       0.01528763       0.00628388      -0.00662157
H        9.91958577       8.18265321       9.76891769       0.00115968      -0.00246712      -0.00516339
H        7.99862152       6.07662216      11.17644565      -0.01495114       0.01905221       0.01139937
H        9.08060576       5.71560535      12.53612055      -0.00898176       0.01292766       0.00541651
H        9.71933879       5.80936189      10.89269008      -0.01883005       0.00266410      -0.00021274
H       11.22788164       7.61909487      11.73842264       0.00056788      -0.02135772      -0.00534965
O        8.59045296       8.05144565       5.68565688       0.01993509       0.01078284      -0.00454366
C        8.56972967       9.48710486       5.74039310       0.00743264       0.01036558       0.00467974
C        9.98323420      10.03976635       5.77203292       0.00247914       0.02376018       0.00449745
C        7.74524962      10.03201032       4.59231371       0.00139368       0.01289754       0.00962198
H        8.07988731       9.71505279       6.68929127       0.00742102      -0.00007768       0.00738692
H        9.97370775      11.13036945       5.80358671      -0.00837410       0.02335070       0.01645324
H       10.51123264       9.67528664       6.65258188       0.01030919       0.01956140      -0.00196427
H       10.53221426       9.73002699       4.88050479       0.00090238       0.03823156      -0.00175634
H        7.69918878      11.12204941       4.60727331      -0.01007264       0.01220904       0.02214796
H        6.72833790       9.64133854       4.63583976       0.00567865       0.00112927       0.00458223
H        8.18397518       9.73185357       3.63674786       0.00632367       0.02874148       0.00691043
H        8.84995345       7.80489097       4.79143142       0.01922167       0.01943652      -0.00719675
