194
Lattice="14.024795800616726 0.0 0.0 0.0 14.024795800616726 0.0 0.0 0.0 14.024795800616726" Properties=species:S:1:pos:R:3:forces:R:3 energy=-319271.34375 stress="-0.0018065444892272353 -0.00033894799707923084 -1.2094272278773133e-05 -0.00033894799707923084 -0.0005389661528170109 -0.0002607991045806557 -1.2094272278773133e-05 -0.0002607991045806557 -0.0030831070616841316" pbc="T T T"
Cs      12.99651430      15.23157432       0.16967782      -0.03683367      -0.01379973      -0.00061761
F       11.18743948      15.11635139      -1.47929380      -0.02746364      -0.00199319      -0.02374555
C        9.25874307       9.81010228       0.23881437       0.00539015       0.00322406       0.01038323
C       10.58353832      10.04079164      -0.11533671       0.00458319       0.00140852       0.00725287
C        8.34484864      10.85706639       0.22644832       0.00546151       0.00297072       0.00791299
C       10.98545380      11.31836658      -0.49309443       0.00365421      -0.00034330       0.00167921
C        8.75260297      12.12962460      -0.15241863       0.00419238       0.00117177       0.00181594
C       10.07255978      12.36825105      -0.52316083       0.00339618      -0.00067805      -0.00132593
H        8.94326928       8.81132885       0.51663345       0.00542302       0.00428826       0.01386025
H       11.29343749       9.22215716      -0.10698195       0.00487798       0.00194749       0.00888247
H        7.30882286      10.67670248       0.48856737       0.00563945       0.00412546       0.00984053
H       12.01040316      11.48511518      -0.80633928       0.00306883      -0.00235680      -0.00064528
H        8.03378546      12.93918639      -0.17768529       0.00424999       0.00107715      -0.00202946
H       10.38015983      13.35978600      -0.85861059       0.00146726      -0.00215879      -0.00726494
C        4.13182827      10.74474545       3.57095325       0.00138262       0.00360677      -0.00993652
C        4.94593520       9.61942508       3.55561134       0.00070170       0.00333631      -0.00298881
C        2.74990485      10.59932454       3.54128970       0.00167416       0.00511596      -0.01169532
C        4.38219073       8.34972558       3.53287018      -0.00079252       0.00343867       0.00185823
C        2.18865198       9.33008233       3.50220255       0.00019816       0.00504673      -0.00669115
C        3.00343488       8.20498035       3.50418168      -0.00049741       0.00503509       0.00014188
H        4.57076668      11.73487022       3.59748550       0.00228694       0.00321516      -0.01424011
H        6.02290352       9.72817997       3.52659414       0.00041491       0.00211873      -0.00114556
H        2.11125376      11.47412214       3.55331054       0.00250456       0.00524264      -0.01714375
H        5.01743519       7.47329050       3.49584835      -0.00154222       0.00311440       0.00745268
H        1.11315400       9.21735076       3.47098410       0.00050642       0.00598494      -0.00810460
H        2.57091099       7.21431260       3.46560332      -0.00149000       0.00511397       0.00455948
C       12.00359580       3.53770356       3.86035292       0.00199138       0.00113744       0.00986412
C       13.24312753       3.10114509       3.40732498       0.00132939       0.00382663       0.00917640
C       11.21415595       2.69590827       4.63729818       0.00126255      -0.00464558       0.00308487
C       13.70014315       1.82861045       3.74328331       0.00646165       0.00576024       0.00905175
C       11.66412341       1.42241275       4.96191034       0.00604067      -0.00189555       0.00445700
C       12.90930526       0.98886578       4.52061915       0.00938863       0.00282037       0.00813071
H       11.66505160       4.53807483       3.61779297      -0.00475792      -0.00221318       0.00052251
H       13.86010393       3.76930800       2.81871782       0.00062178       0.00224809       0.00628306
H       10.24791188       3.03203123       4.99297469      -0.00209887      -0.00913053      -0.00178906
H       14.68367114       1.50290184       3.42243377       0.00835390       0.00836832       0.00985861
H       11.03843116       0.76169215       5.54804445       0.00829566      -0.00327794       0.00427531
H       13.25880371      -0.00297638       4.77992679       0.01287395       0.00436687       0.00963756
C        8.99596681      11.32529385       3.71609546      -0.00152089       0.00305754       0.00286978
C       10.26745401      11.63857654       3.25217355      -0.00101234       0.00227173       0.00444659
C        8.00434549      12.29938642       3.73404933      -0.00043611       0.00390404       0.00318109
C       10.54269644      12.92413014       2.80804613       0.00069000       0.00182571       0.00650003
C        8.27902228      13.58506473       3.27871394       0.00135429       0.00392208       0.00516795
C        9.55118153      13.89690613       2.81588714       0.00209460       0.00303614       0.00681182
H        8.78015278      10.32296269       4.06429098      -0.00289985       0.00320810       0.00233008
H       11.03822794      10.87849295       3.22137530      -0.00144885       0.00164890       0.00486238
H        7.01256326      12.05969377       4.09859146      -0.00078537       0.00435996       0.00222778
H       11.53820897      13.16219618       2.45495028       0.00189263       0.00139045       0.00876516
H        7.50603161      14.34439827       3.28191596       0.00278170       0.00492679       0.00627185
H        9.76436693      14.89798719       2.46402827       0.00349253       0.00362612       0.01021248
C        8.29598347       4.64436068       3.33629279       0.00010213      -0.00380133      -0.00114822
C        8.60748366       3.70020904       2.36421944      -0.00232156      -0.00505289      -0.00064696
C        6.97096177       5.00370532       3.55683460       0.00112002      -0.00166363      -0.00009657
C        7.59408103       3.10685099       1.61980814      -0.00392445      -0.00355011       0.00048301
C        5.95858948       4.42688545       2.79795823      -0.00029691      -0.00046725       0.00126928
C        6.26970082       3.47553814       1.83179139      -0.00283282      -0.00138412       0.00169077
H        9.08522383       5.10613989       3.91777881       0.00131571      -0.00471334      -0.00238556
H        9.64155009       3.43241758       2.18528769      -0.00321639      -0.00720727      -0.00095097
H        6.73021318       5.73188478       4.32219072       0.00303765      -0.00075093      -0.00060621
H        7.84110905       2.36315624       0.87146042      -0.00614400      -0.00434727       0.00083075
H        4.92893933       4.71841703       2.96186490       0.00028647       0.00115418       0.00205245
H        5.48033021       3.02634902       1.24027626      -0.00400877      -0.00044088       0.00278132
C       12.66392814       5.84756434       6.85205318      -0.00018132      -0.00511631       0.00636429
C       12.87690300       7.16600356       6.46891111       0.00071374      -0.00491191       0.00880496
C       11.38128912       5.31685002       6.82793497      -0.00016856      -0.00550871       0.00064135
C       11.80677675       7.95411218       6.06136868       0.00280576      -0.00479549       0.00424454
C       10.31372755       6.09814444       6.40807088       0.00150508      -0.00514646      -0.00358310
C       10.52701000       7.41672571       6.02164571       0.00315391      -0.00508687      -0.00183292
H       13.49140100       5.22386273       7.16073609      -0.00189399      -0.00450593       0.01096654
H       13.87558859       7.58472332       6.49765423       0.00052807      -0.00445379       0.01430002
H       11.21417016       4.29396888       7.13476922      -0.00152228      -0.00520702      -0.00069756
H       11.96692812       8.98968723       5.78484436       0.00391581      -0.00506100       0.00541590
H        9.31196213       5.68573884       6.40646518       0.00210939      -0.00527294      -0.00832577
H        9.68906654       8.03005563       5.71537852       0.00447558      -0.00505264      -0.00500546
C        3.26251177       6.65733559      -0.12628616      -0.00039606      -0.00546248       0.00018162
C        4.61085693       6.84238371       0.16383329      -0.00081303      -0.00377606       0.00046049
C        2.40453299       7.75034746      -0.16810217      -0.00132258      -0.00656407      -0.00192350
C        5.09660909       8.11931429       0.41079453      -0.00216779      -0.00292297      -0.00152990
C        2.89116788       9.02667069       0.09615924      -0.00271580      -0.00575145      -0.00417338
C        4.23688777       9.21028210       0.37967471      -0.00315455      -0.00387597      -0.00407183
H        2.89035153       5.66352634      -0.34290583       0.00088412      -0.00595421       0.00104213
H        5.27898553       5.99014634       0.19212253      -0.00003930      -0.00277053       0.00182871
H        1.35766229       7.61117871      -0.40862243      -0.00097871      -0.00793930      -0.00212524
H        6.14795759       8.26595154       0.62983680      -0.00257950      -0.00136533      -0.00168633
H        2.22196023       9.87791142       0.07498259      -0.00344842      -0.00657524      -0.00623777
H        4.61662485      10.20441628       0.57312449      -0.00413363      -0.00337505      -0.00618906
C        7.34828377      10.01018800      11.03192453       0.00180492       0.01125405       0.00095099
C        6.23046086       9.21603670      11.24633895       0.00293727       0.00910872      -0.00166309
C        7.22842700      11.39448329      11.02100842      -0.00052369       0.01096174       0.00280732
C        4.99085633       9.80433967      11.45878710       0.00158687       0.00678641      -0.00243314
C        5.99209812      11.98373686      11.25818815      -0.00164249       0.00825040       0.00171100
C        4.87368418      11.18814045      11.48106634      -0.00035998       0.00666222      -0.00101519
H        8.31450993       9.54855718      10.87949117       0.00249983       0.01297234       0.00153947
H        6.32359519       8.13587685      11.25000570       0.00462319       0.00961585      -0.00298026
H        8.09981494      12.01297079      10.84990956      -0.00127530       0.01247393       0.00493320
H        4.11876467       9.18386745      11.61167234       0.00278470       0.00538869      -0.00442315
H        5.90179937      13.06300428      11.26603285      -0.00336118       0.00827624       0.00314854
H        3.90656846      11.64382696      11.65440850      -0.00140178       0.00469698      -0.00179403
C        4.35506679       9.09372330       8.25425817      -0.00488088       0.00567242      -0.00291406
C        3.28794665       8.51414915       7.58283981      -0.00226481       0.00562355      -0.00379669
C        4.52405579      10.47183479       8.24192843      -0.00389622       0.00601811      -0.00345072
C        2.37962183       9.31873711       6.90661859      -0.00186042       0.00436309      -0.00713649
C        3.60966221      11.27633073       7.57491063      -0.00317917       0.00486243      -0.00736902
C        2.53504104      10.69947003       6.90912407      -0.00060846       0.00457802      -0.00810562
H        5.07714054       8.47573704       8.76916853      -0.00531281       0.00664952      -0.00055136
H        3.18149343       7.43659267       7.56691572      -0.00282045       0.00530855      -0.00340556
H        5.37080033      10.91104284       8.75084186      -0.00575976       0.00638220      -0.00239825
H        1.55634181       8.87330001       6.36413266      -0.00006745       0.00402310      -0.00788533
H        3.73722484      12.35202128       7.57303666      -0.00212556       0.00485280      -0.00863211
H        1.82031465      11.32290222       6.38688648       0.00028270       0.00370240      -0.01107241
C       11.09961162       6.05891079      11.57680657      -0.00566760       0.00452456      -0.00590578
C       11.23157740       4.67861711      11.69087466      -0.00700973       0.00408372      -0.01216375
C        9.91927190       6.67621837      11.97890869      -0.00348348       0.00480899      -0.00027579
C       10.19037480       3.90370372      12.19645013      -0.00411191       0.00284728      -0.00941391
C        8.87264913       5.90985964      12.48106598      -0.00125611       0.00355341       0.00192558
C        9.00874848       4.52872748      12.58605275      -0.00188388       0.00287747      -0.00358907
H       11.91916324       6.65344440      11.19087462      -0.00614554       0.00574128      -0.00462608
H       12.15336985       4.19591985      11.38276353      -0.00880297       0.00499733      -0.01738900
H        9.81893366       7.75330042      11.92628709      -0.00163729       0.00525065       0.00586123
H       10.32850312       2.82522596      12.28764125      -0.00802223       0.00141579      -0.01927756
H        7.95432995       6.39254737      12.79717748       0.00129387       0.00423266       0.00904559
H        8.19181812       3.93747354      12.98006297      -0.00132060       0.00392210      -0.00101893
C       11.58103557       5.95684441       1.01957994       0.01417328      -0.00744347       0.01079991
C       10.76231358       6.77756352       1.78830252      -0.00226462      -0.01038348      -0.00028941
C       12.96160494       6.11288823       1.07276673       0.01792378       0.00209162      -0.00131005
C       11.32370970       7.74659153       2.61033243      -0.00901835      -0.00713375      -0.00860791
C       13.52644345       7.08085332       1.89794404       0.00205523       0.00614012       0.00286045
C       12.70355414       7.89668377       2.66593779      -0.01250067      -0.00752457      -0.00180990
H       11.14202706       5.20706428       0.37345839       0.00091958       0.01213692       0.01286833
H        9.68702636       6.65865424       1.74328573       0.00720412      -0.02108192      -0.00822326
H       13.60292229       5.48933531       0.46005629      -0.00020474      -0.00295237      -0.01179347
H       10.68793512       8.38536804       3.21003645      -0.01221301      -0.01361710      -0.02578789
H       14.60222573       7.20743447       1.92535530      -0.00424375       0.00844975       0.01528011
H       13.13259522       8.65203359       3.31136103      -0.01918668      -0.00433819       0.00801938
C        9.39876799       3.15073441       8.82458561      -0.00639783      -0.01039782       0.00458130
C        9.35988620       2.10666409       7.90849296      -0.00226411      -0.00756776       0.00102693
C        8.28302483       3.95966559       9.00648737      -0.00588707      -0.00820681      -0.00120452
C        8.20840190       1.87339214       7.16489092       0.00353316      -0.00174390      -0.00852290
C        7.12655195       3.72064066       8.27208832      -0.00036380      -0.00289705      -0.01075134
C        7.09208326       2.68192742       7.34758415       0.00423288       0.00080593      -0.01486471
H       10.29451937       3.33411630       9.40140088      -0.01063481      -0.01481712       0.01160300
H       10.23133543       1.47802497       7.77666348      -0.00300547      -0.00943931       0.00637944
H        8.32244734       4.76866581       9.72637505      -0.00926573      -0.01084898       0.00162263
H        8.17843894       1.06216193       6.44677844       0.00697266       0.00079015      -0.01132208
H        6.24646547       4.33442489       8.42539668      -0.00009021      -0.00142869      -0.01509687
H        6.19508672       2.50656264       6.76927042       0.00887859       0.00543934      -0.02264613
C        3.49031783       3.18752776      11.85865627      -0.00221909       0.00347245      -0.00887770
C        2.43483621       3.92794320      11.33462093      -0.00208977       0.00168361      -0.01007533
C        4.79048287       3.67503138      11.76850278      -0.00235829       0.00110834      -0.00541937
C        2.67844056       5.15484750      10.72719997      -0.00165221       0.00255778      -0.01004690
C        5.03362144       4.90071417      11.15749675      -0.00119966      -0.00012877      -0.00521212
C        3.97811333       5.64168173      10.63808736      -0.00019658      -0.00002626      -0.00634488
H        3.30281851       2.23093886      12.33230279      -0.00387574       0.00468466      -0.00868592
H        1.41942019       3.55381154      11.39455196       0.00258267      -0.01081985      -0.00176071
H        5.61660571       3.09836076      12.16635101      -0.00518788       0.00097369      -0.00141446
H        1.85400402       5.73589827      10.33215736       0.00441784       0.00945470      -0.01386337
H        6.04809781       5.27609668      11.09260008      -0.00046717      -0.00243805      -0.00339169
H        4.16298458       6.60344020      10.17471446       0.00326093       0.00015284      -0.00355721
C        3.16957358       3.23974253       4.83494194       0.00311166      -0.00536284       0.00050618
C        2.39660759       4.28366013       4.33835606       0.00356768      -0.00396610       0.00316304
C        3.36786319       3.11354677       6.20490634       0.00415729      -0.00815250      -0.00004828
C        1.81986965       5.19847947       5.21110332       0.00467834      -0.00562334       0.00533728
C        2.81626581       4.04390437       7.07803067       0.00521445      -0.00975525       0.00212245
C        2.04406096       5.08553841       6.57820334       0.00521611      -0.00861233       0.00490972
H        3.62145906       2.52656055       4.15607331       0.00179778      -0.00440394      -0.00118938
H        2.23911997       4.38272772       3.26994670       0.00260733      -0.00204007       0.00368056
H        3.95043649       2.28933935       6.59527187       0.00422032      -0.00886795      -0.00212884
H        1.18659036       5.99056049       4.83035388       0.00495954      -0.00454503       0.00746469
H        2.98272222       3.95620385       8.14466544       0.00594836      -0.01178491       0.00157955
H        1.60791413       5.80745019       7.25762648       0.00597682      -0.01002602       0.00657524
C       11.65553851       9.52786067      10.03498219       0.00036812       0.00592784       0.00305578
C       12.86062932       9.32097684       9.37733151       0.00285896       0.00659248       0.00838597
C       11.22626330      10.82009743      10.31455073      -0.00074546       0.00639293       0.00212297
C       13.63640284      10.40981956       8.99839201       0.00488353       0.00639906       0.01207341
C       11.99773206      11.91181248       9.93415633       0.00130732       0.00562446       0.00611178
C       13.20346237      11.70233599       9.27299339       0.00343055       0.00646310       0.01122463
H       11.04574118       8.68011259      10.32007706      -0.00110947       0.00632409      -0.00041490
H       13.18774127       8.31415188       9.14870275       0.00378523       0.00674638       0.00943100
H       10.29736197      10.97858770      10.84582343      -0.00273758       0.00581546      -0.00197931
H       14.57919232      10.25144296       8.49422113       0.00624940       0.00671031       0.01541936
H       11.66193415      12.91541165      10.16601504       0.00069768       0.00590791       0.00610924
H       13.81170497      12.54692977       8.97260764       0.00468932       0.00632440       0.01398230
C        6.80244289       8.30714815       6.33595269      -0.00307637      -0.00673485       0.00285080
C        7.19385354       9.63320206       6.20493607       0.00059973      -0.00254709       0.00695961
C        7.33191483       7.52613415       7.35665121       0.00581004      -0.00423577       0.00664320
C        8.13448983      10.17425595       7.07105698      -0.00384764      -0.00537875      -0.00065158
C        8.25996317       8.07100250       8.23524229       0.00180481      -0.00730464      -0.00082922
C        8.66899905       9.39079243       8.08360883       0.00576854      -0.00284976       0.00373346
H        6.05261306       7.90068572       5.66989116      -0.00079849      -0.00553819       0.00765964
H        6.74248129      10.25387744       5.44522247      -0.00526492      -0.00511833       0.00584564
H        7.02139744       6.49408261       7.46608000       0.00444243      -0.00604367       0.00351881
H        8.44748200      11.20525459       6.95796634      -0.00190373      -0.00363961       0.00276314
H        8.68070000       7.46088408       9.02653655       0.00771159      -0.00477616       0.00008951
H        9.41292214       9.81035806       8.74489733       0.00300959      -0.00448608      -0.00188185
