198
Lattice="13.707462515909207 0.0 0.0 0.0 13.707462515909207 0.0 0.0 0.0 13.707462515909207" Properties=species:S:1:pos:R:3:forces:R:3 energy=-508591.21875 stress="-0.001433366211131215 -0.00041848988621495664 0.0003655043838080019 -0.00041848988621495664 -0.0015274506295099854 -0.0001571696557221003 0.0003655043838080019 -0.0001571696557221003 -0.0026734517887234688" pbc="T T T"
Cs      13.77001816      14.03131252      -1.44476579       0.00475204       0.00616138       0.00200751
O       11.62817432      14.27788064       0.44531293       0.00961447      -0.00335586       0.01634836
O       13.50010583      13.59337655       1.47886636       0.00372458      -0.00918615       0.00410472
C       11.49823233      13.76269997       2.76380147       0.00887078       0.00882211      -0.00850558
C       12.27487595      13.87589240       1.45789766      -0.01655746       0.01059222      -0.02794683
H       11.68930926      12.79167459       3.21942345       0.00469163       0.01153620       0.00283673
H       10.42923914      13.89362952       2.60310826       0.00287298       0.00739884      -0.00016246
H       11.83655576      14.53596042       3.45858845       0.00548518       0.01346408      -0.00894542
S        2.98761180       3.20959969      12.17409660       0.00590229      -0.00263655       0.00034463
O        1.90923746       2.42579480      12.87370606       0.00371373       0.00145924       0.00265694
C        4.41792468       2.11722403      12.09415445       0.00780708       0.00028628       0.00646518
C        3.65872294       4.31950965      13.41482202       0.00436291      -0.00262836      -0.00109923
H        4.12581756       1.26829201      11.47672557       0.02119531       0.00314879      -0.00242013
H        4.65536985       1.80218163      13.11131148       0.00553935      -0.00695972       0.00427705
H        5.26178123       2.64699283      11.65666572       0.00821880       0.00702138       0.01616967
H        4.56147272       4.77566130      13.01857912      -0.00058515       0.00582606      -0.00178302
H        3.87104617       3.72452518      14.30312577       0.01198979      -0.00040695      -0.00196637
H        2.90461547       5.07958281      13.61282978       0.00153111      -0.00803936       0.00395166
S        4.50765520       1.15643659       2.88204152       0.00969005      -0.00326777      -0.00636804
O        4.96405017       2.39778434       2.16852090       0.00703692      -0.00198567      -0.00303864
C        5.59065708      -0.15264108       2.30621408       0.00521252      -0.00374791      -0.01286206
C        2.98572916       0.63103553       2.07721362       0.00701481      -0.00133613      -0.00266317
H        6.56136096       0.02600374       2.76566523       0.00921392       0.00037669      -0.02366844
H        5.67415841      -0.07052446       1.22233449      -0.00628033      -0.00859772      -0.01360855
H        5.20002313      -1.12584610       2.60653741       0.01021628      -0.00288722      -0.00478552
H        2.69450163      -0.35397551       2.44360504       0.00618910      -0.00032365      -0.00149609
H        3.12725416       0.63285675       0.99706337       0.00420820      -0.00227203      -0.00261725
H        2.20813055       1.35080543       2.32760325       0.00949884       0.00028981      -0.00110035
S        9.12240962       5.93744540       2.10544172      -0.01635134      -0.00511277      -0.00028622
O        7.85191005       6.70516945       2.31377389      -0.01964819      -0.01053905       0.00009656
C        8.66337987       4.20373380       1.94060291      -0.00699216      -0.00820464       0.00592761
C        9.92245184       5.79232028       3.70401205      -0.01392472       0.00323889      -0.00147557
H        8.07779389       4.11382920       1.02677885      -0.01124194      -0.01371201       0.00969516
H        8.06622829       3.90510375       2.79937394      -0.00052714      -0.01071446       0.00945705
H        9.56685531       3.59793185       1.87529501      -0.00390784      -0.00264985       0.00176076
H       10.82083635       5.17710591       3.61837529      -0.00955062       0.00998111      -0.00139780
H        9.22807473       5.34763488       4.41733973      -0.00934339      -0.00075629       0.00033212
H       10.17035041       6.80347399       4.01973834      -0.02222916       0.00526601      -0.00280379
S        8.84512360       2.12781349      12.97551776      -0.00441885      -0.00547886       0.00336516
O        7.77161558       2.83398691      12.20679976      -0.00540900      -0.01133770       0.00003719
C       10.35906720       3.09202543      12.82217700      -0.00723892      -0.00022840      -0.00226510
C        9.40287831       0.75281278      11.95932689      -0.00452134      -0.00940859       0.01068354
H       10.17905966       4.05730327      13.28728135      -0.01452617       0.00077236      -0.00900803
H       10.57244099       3.26160650      11.76769585      -0.00907776      -0.00618165      -0.00231849
H       11.13653341       2.52848112      13.34024356      -0.00364606       0.01032743      -0.00144215
H       10.22346378       0.26688404      12.48783042       0.00089566       0.00205091       0.01205252
H        9.69547992       1.13204876      10.97896586      -0.01136209      -0.01504439       0.00688009
H        8.56412333       0.07144459      11.85575466      -0.00068687      -0.01548765       0.02046198
S       11.24390535       6.72200660       8.17825247      -0.00710684       0.00454116      -0.00125158
O       10.40617591       7.93189241       7.94001795      -0.01025951       0.00245798      -0.00008568
C       12.95995917       7.28044723       8.16234163      -0.00799167       0.00704530      -0.00281064
C       11.25715340       5.79032829       6.65401947      -0.00513903       0.00546105      -0.00183344
H       13.05054121       7.98744806       8.98448184      -0.00855112       0.00655876      -0.00264314
H       13.17649662       7.80477554       7.23089227      -0.00882211       0.00767151      -0.00254355
H       13.62759340       6.42875377       8.30546867      -0.00753434       0.00724669      -0.00308713
H       11.90850345       4.92113646       6.74048291      -0.00347926       0.00680284      -0.00249015
H       11.57618890       6.43222975       5.83397223      -0.00702804       0.00543390      -0.00266170
H       10.23890595       5.43730584       6.50045569      -0.00355372       0.00193945      -0.00213965
S        3.90070548       9.50428743       2.43257761      -0.00100511       0.00593448       0.00465477
O        4.29408266      10.78793559       3.10366444       0.00347161       0.00364029       0.00705451
C        2.97973313       8.55375134       3.64541676       0.00647694       0.00199923       0.00674081
C        5.38087234       8.49660611       2.33672512      -0.00228888       0.00486422      -0.00746817
H        2.08917268       9.13128988       3.87904368       0.00505230      -0.00270291       0.01251050
H        3.57429905       8.41938777       4.54739183       0.00982861       0.00113309       0.00453658
H        2.70759399       7.59849765       3.20004088       0.00807350       0.00170315       0.00632095
H        5.13274724       7.52141983       1.92380458      -0.00850627       0.00613169      -0.00666665
H        5.82467297       8.37814067       3.32435332       0.00495057       0.00266020      -0.01086867
H        6.07039777       8.98088862       1.64684662      -0.00774415       0.00625744      -0.01200019
S        7.72501726      11.89494307      10.08135078      -0.00016153      -0.00348985      -0.01260734
O        7.21515740      12.70535911       8.92289495      -0.00408739      -0.01685721      -0.01995337
C        7.65519335      10.16762129       9.60966982       0.00459106      -0.00778115       0.00360914
C        6.41820512      11.81522479      11.31726213       0.00147074       0.00305920      -0.01021197
H        8.30334779      10.05845696       8.74418607       0.00662194      -0.01444127       0.00619601
H        6.62582834       9.87206345       9.39647793       0.00548092      -0.01006846       0.00300682
H        8.05589143       9.57650303      10.43214669       0.00319328       0.00007878       0.00954035
H        6.67591977      11.03131816      12.03361995       0.00648893       0.01202472      -0.00262307
H        5.48298489      11.56404423      10.81585726       0.00191733      -0.00706511      -0.00539249
H        6.35431805      12.78994363      11.79985415      -0.00326899       0.00727427      -0.02046682
S        2.55193448      10.88062016      -1.19931231      -0.01675552      -0.00649679       0.00756735
O        2.13994165      11.98754524      -2.13696999      -0.01934391      -0.00839889       0.00672150
C        1.22661195      10.71276983       0.00244188      -0.00482684       0.00250857       0.02025747
C        3.84130939      11.58968205      -0.12966887      -0.00663102      -0.00904235      -0.00527585
H        0.36039186      10.32484032      -0.53148505      -0.01484016       0.01516005       0.03075604
H        0.98330670      11.66911295       0.47209308       0.00825314      -0.00008905       0.02695086
H        1.54247005       9.98859485       0.75238041      -0.00750384      -0.00526991       0.01276028
H        4.65402972      10.87327677      -0.01764981      -0.00673990      -0.00990537      -0.01285174
H        3.44829111      11.87602246       0.84061584       0.00391287      -0.00591454      -0.00226569
H        4.18991246      12.46506312      -0.67320855      -0.01151308      -0.01086622      -0.01006891
S        3.58920800       9.64284100       8.41642505      -0.00167751       0.00595903       0.00077152
O        4.44149454       9.07119489       9.51868450      -0.00499272       0.00816339       0.00387466
C        3.73253326      11.43084721       8.52638397      -0.00058229       0.00581104      -0.00337400
C        1.87956371       9.52752368       8.95683608      -0.00276160       0.00980647      -0.00473362
H        4.76350430      11.70178208       8.29783648       0.00031479       0.00503787       0.00002814
H        3.45415886      11.74237098       9.53391368      -0.00472951       0.00865906      -0.00549647
H        3.05425220      11.84316986       7.78480542       0.00247076       0.00310521      -0.00730117
H        1.23008309       9.86403892       8.15186342       0.00290276       0.01900838      -0.00438461
H        1.73237597      10.13618289       9.84743486      -0.00332937       0.00375621      -0.00113384
H        1.70095816       8.47620586       9.17356138      -0.00986131       0.00963272      -0.01488447
S       10.97770240       6.90424280      11.28720361       0.00288117       0.00628102       0.00176418
O        9.96586705       5.80731546      11.30167590       0.00224745       0.00731206       0.00094862
C       12.57042194       6.14743147      11.70011915       0.00116020       0.00366020       0.00083786
C       10.75346605       7.81997871      12.80626277       0.00161918       0.00370389       0.00307792
H       12.81106216       5.47376872      10.87927620       0.00269332       0.00765224      -0.00186060
H       12.48448930       5.58545532      12.63064134      -0.00318703      -0.00127406      -0.00274453
H       13.33411137       6.92090289      11.78160222       0.00163698       0.00230007       0.00705728
H       11.48751299       8.62342493      12.87466209       0.00212587       0.00253646       0.00789080
H       10.82171554       7.14350959      13.65815952      -0.00232317       0.00223607       0.00228205
H        9.75125438       8.24807799      12.76495256       0.00247729       0.00550251       0.00007047
S       10.47124817       9.77499632       1.56623428       0.00054133      -0.00975955       0.01524049
O       11.58046219      10.53746956       0.91243348      -0.00208104      -0.01780832      -0.00084794
C        9.02288742      10.84584352       1.60880951       0.00202888      -0.00819874       0.00643953
C       10.78340299       9.74683576       3.33254309       0.00919741       0.01763242       0.01280427
H        8.69722008      10.97317971       0.57818692      -0.00121396      -0.02256679       0.00627682
H        9.29338377      11.80394019       2.05198301       0.00612126      -0.00168274      -0.01125299
H        8.24176095      10.34339774       2.17867197       0.00231904       0.00285942       0.01648559
H        9.94593752       9.25851048       3.83454156       0.01197678       0.02690184       0.02529684
H       10.90913248      10.76335822       3.70403293       0.01450276       0.02277309      -0.00577716
H       11.69905000       9.17424279       3.47414100       0.00871017       0.01883718       0.01737873
S        6.46576426       7.79377692      11.96204149       0.00533456      -0.00308359      -0.01017785
O        6.94454838       8.92627566      12.84000638       0.00901628      -0.00030172      -0.01589930
C        4.70247756       7.62754912      12.25715887       0.00666094       0.00038497      -0.00393149
C        6.99504271       6.26524773      12.73635352       0.00677669       0.00032890      -0.00507963
H        4.23414605       8.52165825      11.85476672       0.00551747      -0.00321996      -0.00980006
H        4.51858131       7.52197191      13.32706315       0.00946882       0.00950473      -0.00306700
H        4.35730237       6.75813584      11.69915548       0.00456827      -0.00360098       0.00438275
H        6.53607931       5.43655880      12.19846203       0.01182427      -0.00326438      -0.00364237
H        6.73284011       6.28814299      13.79501400       0.00444761       0.00247962      -0.00586541
H        8.07389854       6.19397201      12.60115905       0.00729749       0.00504150      -0.00184305
S        8.57548304       2.87334671       7.27481357       0.00827903      -0.00250065       0.00586951
O        8.45043223       4.18936336       6.56202556       0.00738290      -0.00382209       0.00469750
C        7.17573952       1.87595245       6.73310945       0.00735098      -0.00404242       0.01118776
C        8.02161268       3.15271396       8.95820051       0.01024559      -0.00095879       0.00622076
H        7.36173839       1.60393808       5.69585109       0.00598678      -0.00672406       0.01204471
H        6.27277441       2.48327871       6.79794203       0.00815095      -0.00303847       0.01055378
H        7.10739275       0.97992502       7.35220771       0.00675357      -0.00283331       0.01281622
H        7.90126763       2.19925575       9.47128740       0.01066946       0.00084476       0.00934306
H        7.07992264       3.69805223       8.92804340       0.01089172       0.00007694       0.00908954
H        8.76679608       3.75789678       9.47183130       0.01103035      -0.00066540       0.00401027
S        4.73131739       4.84217880       9.00151840       0.00177220      -0.00420628      -0.00044596
O        4.94738705       4.89081012      10.48261141       0.00834377      -0.00672386      -0.00138605
C        3.22099272       5.76088893       8.66776097       0.00403291       0.00124985       0.00615025
C        4.10287260       3.19561556       8.61954599      -0.00547343      -0.00138640       0.00009004
H        3.43967356       6.79043499       8.94995363       0.00817671       0.00076853       0.00420694
H        2.41517697       5.35247556       9.27944095       0.00582486       0.00448233       0.01012444
H        3.00438234       5.68140329       7.60307924      -0.00090361       0.00091029       0.00733371
H        3.93859508       3.14723185       7.54457984      -0.00700498      -0.00045878       0.00026958
H        3.19003164       3.01259499       9.18554440      -0.00543757       0.00218879       0.00099567
H        4.87816696       2.49190567       8.91798412      -0.00797793      -0.00435199      -0.00091044
S        0.34943112       3.78572873       4.57077706      -0.00324333      -0.00012214      -0.00430819
O       -1.13543699       3.67446742       4.47899014       0.00209022       0.00107184      -0.00759136
C        0.85028267       3.09606115       6.16481927      -0.00439914      -0.00075059      -0.00296897
C        0.72817294       5.50072441       5.00637917      -0.00180360       0.00021225      -0.00293243
H        0.60127921       2.03722436       6.14388923      -0.00474396      -0.00064249      -0.00417771
H        0.30216524       3.59346662       6.96606650      -0.00784698      -0.00170015      -0.00452115
H        1.92560837       3.24070996       6.26549157      -0.00528267      -0.00001771       0.00064480
H        1.78517010       5.56899424       5.25497449      -0.00394814       0.00017460       0.00373668
H        0.11786339       5.78763213       5.85858837      -0.00815333       0.00141569      -0.00760587
H        0.48341455       6.12107359       4.14599185       0.00353894      -0.00083772      -0.00508292
S       11.12483891      10.91066683       8.71483026      -0.00009298       0.00834203      -0.00286007
O       12.57924779      10.56468391       8.63237977       0.00122213       0.01336485      -0.01066533
C       10.48219741      10.96541914       7.03186520      -0.00825439       0.00225749       0.00084436
C       11.06695747      12.70041712       8.99370585      -0.00441026       0.00877517      -0.00689899
H       10.46826685       9.94099332       6.66605463      -0.01130400       0.00090843       0.00509447
H       11.12550633      11.60710926       6.43072065      -0.00980620      -0.00137645      -0.00427571
H        9.46462356      11.35680748       7.04921102      -0.00701670       0.00461290       0.00451215
H       10.07515048      13.08639397       8.76023186      -0.00786898       0.00284876      -0.00180040
H       11.82732623      13.16572278       8.36520806      -0.01101173       0.00945390      -0.01427846
H       11.28473880      12.87313211      10.04629061       0.00180125       0.01288183      -0.00889088
S        7.16307259       8.29165501       5.57504862      -0.00369811      -0.00696886      -0.00475638
O        8.54796266       8.75110302       5.24471956      -0.00219011      -0.02048749      -0.01064081
C        6.21533526       9.77373949       5.96281108       0.01033711      -0.00047380       0.00346172
C        7.21529740       7.55990882       7.21775050      -0.00437179      -0.01022832      -0.00601143
H        6.15689698      10.35566876       5.04380101       0.00510762      -0.00057114       0.00411955
H        6.70640591      10.34271152       6.75329555       0.02079761      -0.00254193      -0.00187083
H        5.20509420       9.48676515       6.25650108       0.01177010       0.00539912       0.01289465
H        6.21125334       7.54070900       7.64290964      -0.00344189      -0.00553228      -0.00428353
H        7.89652767       8.14356917       7.83167230       0.00069468      -0.01682563      -0.00525650
H        7.60703601       6.54869957       7.11178980      -0.01142918      -0.01235181      -0.00892214
S        4.47069080       5.44301764       4.78173595      -0.00293919      -0.00292981       0.00298721
O        3.82391198       4.43402823       5.69894961      -0.00726807      -0.00108981       0.00181460
C        3.79442085       5.10733581       3.14470531       0.00193129      -0.00095740       0.00094271
C        6.12192067       4.87041405       4.43031684      -0.00377762      -0.00535291       0.00602877
H        2.73026171       5.32796345       3.16044607       0.00392760       0.00676269      -0.00528486
H        3.97841741       4.06012986       2.90692398      -0.00591419      -0.00232014       0.00327670
H        4.30105447       5.73939003       2.41774390       0.00989003      -0.00671548       0.00179407
H        6.57690234       5.56959419       3.72182099       0.00002741      -0.00481832       0.00914460
H        6.05003566       3.86675758       4.00843106      -0.00411884      -0.00377470       0.00368265
H        6.68561578       4.86544667       5.36274841      -0.00710897      -0.00913768       0.00738662
S        1.61641811      11.79282519       4.94029960       0.00021374      -0.00320697      -0.00629413
O        1.99355730      10.71150538       5.90279654       0.00035715      -0.00219512      -0.00488663
C        2.45119883      13.29816006       5.48487140       0.00010675      -0.00307602      -0.00686443
C       -0.04336971      12.31330810       5.40186147       0.00095540      -0.00196174      -0.00666201
H        3.52007570      13.12876210       5.37241345      -0.00048958      -0.00354020      -0.00644910
H        2.20281748      13.49644740       6.52799669       0.00107098      -0.00433474      -0.00647870
H        2.14230593      14.12822493       4.85043655       0.00206792      -0.00120491      -0.00545698
H       -0.31436118      13.20444721       4.83705978      -0.00105960      -0.00175750      -0.00582700
H       -0.07483046      12.46767802       6.48160791       0.00085306      -0.00431493      -0.00633234
H       -0.70748258      11.49551552       5.13105055       0.00151502      -0.00201160      -0.00609539
