196
Lattice="17.736862947467714 0.0 0.0 0.0 17.736862947467714 0.0 0.0 0.0 17.736862947467714" Properties=species:S:1:pos:R:3:forces:R:3 energy=-1729810.125 stress="-0.0007879537297412753 0.00012209658598294482 -0.00010919401756837033 0.00012209658598294482 -0.0006844949093647301 4.226628880132921e-05 -0.00010919401756837033 4.226628880132921e-05 -0.0005802976666018367" pbc="T T T"
Cs      16.14036243      17.63613675       0.71053490       0.01815018      -0.02839756      -0.00292583
O       15.28210650      14.12486054       3.51792836      -0.00084096      -0.01057267       0.02301598
O       16.55524202      16.39993063       3.15949879       0.00563997      -0.02531207      -0.00045776
O       17.24678842      14.80151781       5.08880745      -0.00770462      -0.00644350       0.00858927
O       14.96686309      16.06873418       5.21568714       0.00740600       0.00127423      -0.00231743
Mn      16.00670091      15.33285179       4.24994712       0.00236007      -0.01438162       0.00576025
Cl       9.78302529       6.21276934      10.45068160       0.01307341      -0.01241918      -0.00861388
Cl      11.41232843       4.44252210      12.10525597       0.00004503      -0.01156056       0.00381280
Cl      12.60326499       6.80236651      10.87319533       0.01351249      -0.01918252       0.00232354
C       11.13422575       6.10864372      11.57873675       0.00821737      -0.01260108      -0.00276733
H       10.87923153       6.69216857      12.45476162       0.00588183      -0.00896473      -0.00620049
Cl       4.76243091      13.88239023       0.20643759      -0.00281948       0.00303759       0.00688669
Cl       7.58478107      13.55086750       0.83927014       0.00027689       0.00818884      -0.00412138
Cl       6.13505379      15.88043556       1.83826018      -0.00325242      -0.00246176       0.01449280
C        6.01643321      14.16825643       1.41617267       0.00024164       0.00012876       0.00408711
H        5.75898201      13.61720218       2.31289681       0.00428116      -0.00520372       0.00167787
Cl       9.09537318      11.96358484      11.94833046       0.00571667      -0.00422126      -0.01128456
Cl       7.81626190       9.51927907      11.00199431       0.00248376      -0.01120710       0.01340610
Cl      10.72767510       9.75492048      10.97314051       0.00426072      -0.02186877       0.02968919
C        9.23198319      10.21225252      11.80000281      -0.00006416      -0.00636422       0.01357913
H        9.27484841       9.80022772      12.79951736      -0.00741874       0.00718261       0.01937985
Cl       3.03586203       3.45635066      15.58782647       0.02072176      -0.00526720      -0.00218487
Cl       3.62571834       1.83628292      17.94096332      -0.00041498       0.00320238       0.00980122
Cl       5.76097562       3.31764062      16.61219117       0.01074822      -0.00964841       0.01665173
C        4.03673148       3.30517738      17.03213554       0.00843981      -0.00201638       0.00625074
H        3.84867594       4.16070298      17.67116341       0.00669787       0.00028196       0.00253652
Cl       5.70170616      13.84671249       5.26223672       0.00386815      -0.00873554      -0.01252344
Cl       4.38351486      11.66208161       3.83678824       0.01146690      -0.00914475      -0.01451188
Cl       6.39265492      11.07812298       5.85808089      -0.00353858      -0.00711975       0.00150789
C        5.10559126      12.17830024       5.37289890       0.00124815      -0.00738173      -0.01073703
H        4.32616180      12.15849885       6.12578078      -0.00344786      -0.00480087      -0.01563916
Cl       9.77591411       9.91898788      15.61949601       0.00220382       0.00257970       0.02897303
Cl       7.75842481      12.00734888      15.30932294      -0.01225792      -0.01974678      -0.01127926
Cl       6.94542182       9.29984027      16.02618413       0.00281531      -0.02261490      -0.00596453
C        8.19834516      10.53693522      16.17559157      -0.01099999      -0.01015787       0.00414578
H        8.30610592      10.77971432      17.22650219      -0.02782007      -0.00363455       0.00423938
Cl       0.05894545       6.17710292      17.14894822       0.00386812       0.01817474       0.01153122
Cl       2.51489074       7.22689443      15.96113367      -0.00155762       0.00084563      -0.01185054
Cl       0.23026947       6.55206183      14.26629204      -0.01880779       0.00864327       0.00836253
C        0.75455886       7.15665291      15.84069247      -0.00275153       0.00999506       0.00250281
H        0.37490382       8.16426024      15.95131566       0.00255945       0.01193631       0.00168640
Cl      13.00379605      17.20497578       2.54736914      -0.00061356       0.00599735       0.02741577
Cl      11.30825300      18.71574580       0.69872964       0.01149878      -0.00749931       0.00705366
Cl      11.32002664      15.80333555       0.60994505       0.03157574      -0.00571830       0.00791882
C       11.47499202      17.23429965       1.64566408       0.01023056      -0.00511855       0.01030082
H       10.67517355      17.19239796       2.37557608       0.00099884      -0.01020923      -0.00024563
Cl       2.02627299      16.75820904       1.55012964       0.00385447      -0.00350825      -0.00412634
Cl       2.41957582      14.50831772       3.35630832      -0.01174948       0.00119117       0.00203552
Cl       3.00203737      17.21273862       4.26683734       0.00234316      -0.00276847      -0.00191540
C        1.96089407      16.19601350       3.25389174      -0.00181833       0.00306483      -0.00260115
H        0.93045341      16.30465738       3.58530187      -0.00218645       0.01171349      -0.00658447
Cl      14.07504393       5.59879897       7.64486138      -0.02238816       0.01103625      -0.01565613
Cl      12.15662981       3.69519129       8.72721380      -0.00558248       0.00069025      -0.00761175
Cl      11.75921881       4.80121715       6.05345210      -0.02133656      -0.00884061      -0.00792056
C       12.95049753       4.29031663       7.27345448      -0.01377431       0.00250635      -0.01092155
H       13.51683362       3.47452284       6.84158789      -0.00924306       0.00633749      -0.01206750
Cl       5.68087652       0.17032553      14.17353944       0.00104848      -0.00420786       0.01381406
Cl       5.15457752       0.67554736      11.35275917      -0.00699974       0.00311741       0.01561381
Cl       7.45062370      -0.94792173      12.12829357      -0.00696844      -0.00010690       0.00354106
C        5.79618619      -0.48427519      12.51861136      -0.00463511       0.00031887       0.01181244
H        5.17940998      -1.37373059      12.48162751      -0.00561266       0.00109965       0.01249823
Cl       0.63308477      11.38704864       4.27932430      -0.00476423       0.00742644       0.00183234
Cl       1.44779192       8.79979361       3.18980676       0.00032723       0.01366651      -0.00928700
Cl       1.99616070       9.42656691       5.98193476       0.01927626       0.01345076      -0.01247418
C        0.88114594       9.67607560       4.63070357       0.00788943       0.00839499      -0.00338795
H       -0.07633601       9.25319466       4.91152212       0.01285347       0.00188294       0.00275055
Cl       4.31671017       6.60257918       4.65989855       0.00026448       0.01843694      -0.00257674
Cl       3.65817798       6.22633425       7.47489625      -0.00332609      -0.00695439      -0.00777641
Cl       5.41685873       4.32292373       6.12844088      -0.00310340       0.00418761      -0.02095713
C        4.88868434       6.01601542       6.22348612      -0.00192055       0.00328639      -0.00762671
H        5.75498768       6.60232367       6.50407129      -0.00214547       0.00075966      -0.00249711
Cl      14.82481147      13.91494233      -0.18504152      -0.00398327       0.01208315      -0.01566476
Cl      17.68841579      14.49845825      -0.37184293       0.00170363      -0.02055975      -0.01881695
Cl      16.78367160      12.13881064       1.06635357      -0.02013760      -0.00212350      -0.00721368
C       16.45326536      13.20812812      -0.27964957      -0.01100937      -0.00537248      -0.01139857
H       16.50676657      12.64677144      -1.20492415      -0.00533332      -0.00362267      -0.01157565
Cl       5.47430687       6.50204603      10.99543971      -0.02450094       0.00384161      -0.00820845
Cl       5.31557474       6.24053134      13.89822533      -0.00216876      -0.00087237      -0.00856209
Cl       3.07190855       5.39489370      12.23248699      -0.01057991      -0.00611652       0.00581049
C        4.82851858       5.55609058      12.33637146      -0.01058484      -0.00055456      -0.00557988
H        5.25678333       4.56338267      12.27203530      -0.00738862       0.00106621      -0.00801168
Cl       5.67501371      16.04805514       8.30625543      -0.00579563       0.00979427      -0.01986151
Cl       8.09054978      16.92649543       6.92432508       0.00255316       0.01193514       0.00151718
Cl       5.71097535      18.61014886       6.91439999      -0.00017968       0.01049402      -0.01690273
C        6.66374009      17.43104672       7.83918847      -0.00484242       0.01208450      -0.01024493
H        7.00225232      17.91640877       8.74696314      -0.01297623       0.01350442      -0.00797588
Cl      14.17157377       9.97681763       9.95360423       0.00218984       0.01037602       0.01176561
Cl      16.18551257       7.87302950       9.71868227       0.00183028       0.00947851       0.01252025
Cl      16.99052127      10.66092559      10.09974603       0.00047404       0.01123768       0.00711702
C       15.77204408       9.42687431      10.45837964       0.00225977       0.01043013       0.01048188
H       15.75245151       9.27726105      11.53107193       0.00493370       0.01209335       0.01070946
Cl       8.18459074       7.80454910       7.68069671      -0.01173955       0.01103908      -0.01212516
Cl       8.46412004       6.04396886       5.36619120      -0.00580481       0.00539374      -0.00646470
Cl       9.17858316       8.86140627       5.15970415       0.02637246      -0.00151324       0.00141945
C        9.11870802       7.44517349       6.21769082       0.00043616      -0.00121721      -0.00072330
H       10.13127581       7.20720772       6.52356903      -0.00552034      -0.01288790       0.00917917
Cl       1.94995035       3.66052297       5.01093882       0.00750832      -0.00393108      -0.00430700
Cl       0.57981817       2.03924921       3.03077660      -0.00556447      -0.00210550       0.00330487
Cl       1.79201749       4.57833135       2.24465273      -0.00428437      -0.00474361      -0.00292461
C        1.91520840       3.17554085       3.32356519      -0.00211775      -0.00481184      -0.00362731
H        2.83567542       2.65517092       3.08789499      -0.00524947      -0.00752503      -0.00904861
Cl      14.92126338       4.67443897      12.65375864      -0.00395077      -0.01842338       0.01499857
Cl      15.79007325       2.28415776      11.22172280       0.00982262       0.00416449      -0.01226476
Cl      17.54274248       4.60674030      11.38716160      -0.00834373       0.01464348       0.00191987
C       16.29007542       3.65454799      12.21455574       0.00320619      -0.00198967      -0.00105153
H       16.73012722       3.26776908      13.12546516       0.00963500      -0.00556971      -0.00589702
Cl       9.55876989      14.27955664       3.80807790       0.00195999      -0.00134513       0.00106764
Cl      12.37369076      13.60723092       3.31643638       0.00057334      -0.00855019       0.00708744
Cl      10.39543829      11.49128292       3.58634922      -0.00774330      -0.00261497      -0.01637414
C       10.69578276      13.14615823       3.04471429       0.00023650      -0.00006251      -0.00256484
H       10.50452711      13.18667071       1.97932099       0.00478394       0.00732081      -0.00291622
Cl       8.64964742       5.07391393      14.25574010      -0.00150579      -0.00598463       0.00510691
Cl       7.77286777       3.52632066      11.92683073      -0.00549479      -0.00004390       0.00451165
Cl       9.11525566       2.19696004      14.14413071      -0.00328884      -0.00610512      -0.00029597
C        8.03924720       3.51308898      13.67799147      -0.00309042      -0.00439991       0.00381869
H        7.07871167       3.34955214      14.15250181      -0.00154623      -0.00471873       0.00642058
Cl       9.14501149      16.50552305      15.40904913       0.00034493      -0.00128241       0.01248825
Cl      10.67426190      15.22674792      13.26989824      -0.00916805       0.01301554      -0.00222844
Cl      11.72787918      17.60908720      14.59441895      -0.00544079       0.00454348       0.00674193
C       10.75633164      16.13374747      14.78214898      -0.00276370       0.00333448       0.00289009
H       11.25736521      15.51268731      15.51289734       0.00452058       0.00010145      -0.00503118
Cl      13.92512270      12.19309748      13.50823618       0.01623100       0.02650416       0.00833321
Cl      12.46685955      13.07686645      11.13548480       0.00663227      -0.01000994       0.00393541
Cl      14.49113147      14.80603889      12.33905346       0.00172638       0.01559117      -0.02230251
C       14.00243058      13.13866503      12.00319029       0.00821595       0.00941255      -0.00123854
H       14.75726977      12.68939384      11.36951847       0.00790974       0.00242229       0.00396015
Cl      13.26194428       4.09111693       2.51426483       0.00214397      -0.00117298      -0.00216833
Cl      14.14358198       6.08341028       0.57970430      -0.01938682      -0.00223789      -0.00657922
Cl      15.86392400       3.80668190       1.22076482      -0.00394331       0.00267268      -0.01536933
C       14.19391504       4.37719528       1.03832161      -0.00616660      -0.00202156      -0.00661408
H       13.73589256       3.80702425       0.23742919      -0.00879924      -0.00266738      -0.00428566
Cl      11.68241935       4.03336057      16.26473369      -0.01358704      -0.00970965       0.00104532
Cl      10.37245343       6.53717095      17.02623813      -0.00518902      -0.00170083      -0.01627956
Cl       9.19626290       3.96992079      17.79182624      -0.00164750       0.00758305       0.01971251
C       10.69292676       4.86186539      17.48710547      -0.00372101       0.00316176      -0.00133561
H       11.25433313       4.87215513      18.41526691       0.00547307       0.01295202      -0.00736755
Cl      13.45001136       9.43039110      16.28390173       0.01227462      -0.00207375       0.01452526
Cl      14.20455227       8.24109727      13.73037986      -0.02111217      -0.00537083       0.00964868
Cl      16.14012170       9.83965672      15.23552852       0.00549817      -0.00667242      -0.02670044
C       14.75890337       8.71708364      15.33606189       0.00222833      -0.00094566      -0.00045663
H       15.10657819       7.82659528      15.84864960       0.00792842       0.00093950      -0.00223514
Cl      17.83828284       0.27714446       6.26886706       0.00227290      -0.00061657       0.01739974
Cl      16.06511188      -0.33535710       8.50505138      -0.00953985       0.00053310       0.00804323
Cl      15.78279999       2.18610087       7.06399639      -0.00339855      -0.00151446       0.00512780
C       16.21395091       0.46949754       6.94236131      -0.00109737      -0.00135459       0.00786166
H       15.52711862      -0.01371897       6.25411706       0.00508028      -0.00410300       0.00402808
Cl      17.21107862       6.82252017       6.35130253       0.01129339       0.00511866      -0.00360367
Cl      16.17681053       4.59844398       4.77770219       0.00959647       0.00381911      -0.00051475
Cl      15.77265345       7.33167931       3.85934477      -0.00344869       0.00380826       0.00464312
C       16.85215961       6.22043434       4.72320899       0.00395629       0.00601748      -0.00216787
H       17.78898980       6.17792965       4.17904551       0.00071192       0.01083226      -0.00766538
Cl       3.99016605      13.08950256      14.47861695      -0.00304577      -0.00682884      -0.00334811
Cl       2.24900552      13.58125450      12.18358170      -0.01202399      -0.00246645       0.00603965
Cl       1.25023474      12.07308981      14.47214197      -0.00043346      -0.01258945       0.00407425
C        2.33469155      13.37684705      13.94067981      -0.00550717      -0.00817753       0.00457364
H        1.98559594      14.29655814      14.39539024      -0.00568073      -0.01079233       0.00945838
Cl       6.65010234      12.78502778       9.27357926       0.00237051       0.01103723       0.00021806
Cl       8.94579690      14.57005974       9.60054322       0.01651981      -0.00444758      -0.01215422
Cl       9.24348051      12.05663302       8.15462002      -0.00561437      -0.01144227      -0.00246954
C        8.15080899      13.38774219       8.55242769       0.00467690      -0.00247181      -0.00548550
H        7.88884986      13.89503299       7.63155100       0.00627517      -0.00607647      -0.00784588
Cl       1.53274520       1.99073553      12.91093520       0.02195626      -0.00038828      -0.00965093
Cl       0.23902084       0.51061883      15.06596983       0.00322752       0.01167535      -0.01455766
Cl       1.93576091      -0.88186089      13.14345707       0.00098604      -0.00269404      -0.00792929
C        1.68621014       0.63553380      14.01272826       0.00797305      -0.00093245      -0.00883083
H        2.53422046       0.80870083      14.66535437       0.00654930      -0.00758945      -0.00547315
Cl       1.13730444       3.19480421       8.36248667       0.00871187       0.01873535       0.00449619
Cl       3.83457502       2.94438428       9.40411428       0.01075628       0.00247982      -0.00408778
Cl       2.03096137       0.64081866       9.45089041      -0.00236307       0.01260138      -0.00428903
C        2.50331621       2.10237292       8.58485731       0.00379889       0.01143187      -0.00218982
H        2.86086588       1.80656233       7.60648556       0.00104822       0.01302683      -0.00366706
Cl      12.51276243      18.09850124       7.19095456      -0.00742556      -0.00289756       0.00769911
Cl      12.63672478      15.73269482       8.89921549       0.00947078      -0.00073370       0.00527394
Cl      11.30185212      15.59681057       6.30839649       0.00561595      -0.00763457       0.00554720
C       12.62083544      16.32735814       7.23854848       0.00276574      -0.00187230       0.00510907
H       13.54764404      16.03786384       6.75387222       0.00277519       0.00276037       0.00272700
Cl       0.25276915      14.40449851       9.30041873       0.00029953       0.00221188      -0.00106975
Cl       2.37971631      15.07282465       7.41381168       0.00688380       0.00413370       0.00650667
Cl       1.57896468      12.30016867       7.78430454       0.00411235       0.00428706       0.00042417
C        1.03464966      13.98592978       7.76129558       0.00539579       0.00447154       0.00111325
H        0.30217983      14.09709914       6.96729967       0.00887325       0.00696245      -0.00179291
Cl      15.26119044      12.91998245       7.33689832       0.01259571      -0.00517672       0.00654197
Cl      15.01750673      10.30591306       6.04347705      -0.00391564      -0.00040141       0.00364845
Cl      12.63050710      11.84105433       6.71810288       0.00531596       0.01037329       0.00589243
C       14.31919034      11.93163309       6.20902283       0.00569477       0.00304382       0.00574885
H       14.36330330      12.41019536       5.23689083       0.00751770       0.00571603       0.00722539
Cl       2.39737574       8.67779644       9.95958325      -0.01274098       0.00657153      -0.00718245
Cl       3.02873621       9.06652381      12.78284008      -0.00886872      -0.00835511      -0.00770286
Cl       4.51310540      10.52588050      10.74064027      -0.01504177       0.00786827      -0.00143549
C        2.95123600       9.82575705      11.18814764      -0.01254408       0.00123782      -0.00267030
H        2.23091563      10.63272652      11.24005315      -0.01218843       0.00114864       0.00170954
Cl       4.84153137       6.64554493       0.75826073       0.00966763       0.01136567      -0.00498563
Cl       7.38343571       7.44418371       1.95007721       0.00508712       0.00062510       0.01172106
Cl       6.41572060       4.70861623       2.27578863      -0.01160313       0.00510640       0.00678170
C        6.48072551       6.12338842       1.21092858       0.00357611       0.00448311       0.00722741
H        6.99019303       5.82982253       0.30026836       0.01063761       0.00081640       0.01280138
