196
Lattice="13.69135333071457 0.0 0.0 0.0 13.69135333071457 0.0 0.0 0.0 13.69135333071457" Properties=species:S:1:pos:R:3:forces:R:3 energy=-484774.8125 stress="0.00022097051260061562 -0.00016095658065751195 -8.870478268363513e-05 -0.00016095658065751195 0.00017899926751852036 -0.00015896208060439676 -8.870478268363513e-05 -0.00015896208060439676 0.00043018412543460727" pbc="T T T"
Dy      13.71865906      13.46955860       2.25137890      -0.01893175      -0.01585389       0.00786123
Cl      12.29368673      12.76924866       0.12401845      -0.00111747      -0.00372633      -0.01153100
Cl      13.73661544      16.09652100       1.74747514       0.02411557      -0.01120335       0.00875267
Cl      12.41901455      13.83037533       4.49790974       0.01009813      -0.00176539       0.01810503
O        8.38889897      12.39481771       3.94418527       0.01170123       0.02080205       0.00948036
N        7.71483228      12.27170842       1.76213719       0.00008056       0.01154924       0.00581431
C        9.05031473      12.30209880       1.20070927      -0.00339833       0.01946697       0.00122420
C        6.62558133      12.09437810       0.83596790      -0.00156195       0.00118330       0.00824994
C        7.51297981      12.31114849       3.09895940      -0.00790578       0.01086428      -0.00252557
H        9.13261182      13.09705722       0.45748122      -0.00866760       0.02046967       0.00167519
H        9.28285626      11.35790888       0.70297344       0.00143889       0.02112183       0.00112537
H        9.76414143      12.48988978       1.99743716      -0.00196135       0.02268429       0.00047711
H        6.68400241      12.84640208       0.04648499      -0.01344736       0.00392446       0.00916672
H        5.66755553      12.20039320       1.34244738      -0.00071320      -0.01047534       0.01133925
H        6.66166212      11.11395877       0.35417469       0.00822775       0.00291184       0.00521168
H        6.44462097      12.25365236       3.37144965       0.00481683       0.00386098       0.00824958
O        3.64484529       0.88512941      10.64086754       0.00898349      -0.01339412      -0.00114578
N        2.17945986       1.96852806      12.03643294       0.00566939      -0.00277071       0.00111762
C        1.58110840       0.77086246      12.60081137       0.00861415       0.00046016       0.00907775
C        1.69208024       3.26050548      12.48422575       0.00144728      -0.00058933      -0.00287938
C        3.14468029       1.90527566      11.10191243      -0.00393939       0.01183558       0.00536740
H        0.49200881       0.81945316      12.54796257       0.00881952      -0.00276293       0.01165914
H        1.85121151       0.67839855      13.66110838       0.01152588       0.00468489       0.00820830
H        1.94516958      -0.09624678      12.05610629       0.00861537      -0.00236279       0.01116142
H        0.73021664       3.49900559      12.01962793      -0.00178501      -0.00659578       0.00029598
H        2.41759777       4.02927139      12.22458500      -0.00270671       0.00103541      -0.00847192
H        1.53705580       3.23916760      13.56217577       0.00569208       0.00444808      -0.00162217
H        3.46575249       2.91292352      10.78919816      -0.00249577      -0.00450331      -0.00515552
O        2.40580988       0.17941902       3.07434117      -0.02760553       0.01934868      -0.00256040
N        3.66321650       2.08446040       3.02525887      -0.01223753       0.00683334       0.00683556
C        4.88480874       1.41049759       2.62802730      -0.02606149      -0.00714578      -0.00535254
C        3.60265149       3.52910046       2.88517767       0.00866360       0.00776637       0.02392798
C        2.54566482       1.39824913       3.26623755      -0.01976010       0.01588839       0.00271359
H        5.73631960       1.98534199       2.99408194      -0.01561396      -0.02403480      -0.00437182
H        4.96289059       1.31827322       1.54002403      -0.03457808       0.00237460      -0.00642994
H        4.90666950       0.41956084       3.07390657      -0.04220431      -0.01140133      -0.01535608
H        4.33779758       4.03148708       3.51454960       0.01869787      -0.01149534       0.02653635
H        2.60342683       3.87122413       3.14272806       0.01613319       0.01924097       0.03474737
H        3.78835781       3.79836993       1.84078602       0.00897539       0.02233769       0.02794045
H        1.71580421       2.01150354       3.62696330      -0.01353422       0.02244094       0.00449243
O        5.54853791       6.79715168       3.63924443       0.00094903      -0.00294959       0.00170235
N        7.61042282       5.96145178       3.11531840      -0.00056114      -0.00038784      -0.00364380
C        7.11561815       5.01241500       2.14500832      -0.00185930      -0.00104427      -0.00206886
C        9.04369131       6.06090389       3.24988246      -0.00080283      -0.00034548      -0.00408912
C        6.76863975       6.81437879       3.73936957      -0.00288022      -0.00158057      -0.00082292
H        7.40554221       3.99394720       2.42636390      -0.01037922      -0.00219947       0.00306937
H        7.53340031       5.22878753       1.15851377       0.00428526      -0.00708397      -0.00081271
H        6.03246197       5.08942697       2.11258675      -0.00103104       0.00540613      -0.00822036
H        9.46416463       5.09541519       3.54916920      -0.00121167      -0.00039569      -0.00346214
H        9.28898442       6.80324372       4.00551266      -0.00007814       0.00019670      -0.00491941
H        9.49647060       6.37460563       2.30687763      -0.00118603      -0.00125901      -0.00458774
H        7.30291086       7.53349720       4.37950132       0.00003496      -0.00141853      -0.00131997
O       12.52082731       3.94189632       8.63330858       0.00138870      -0.01045382      -0.00217742
N       12.24160810       1.67240028       8.52687171      -0.00005596      -0.00921974       0.00499262
C       12.95064080       1.39187825       9.75869923       0.00221440      -0.00638995       0.00458404
C       11.70081155       0.53892940       7.80461774       0.00181893      -0.01058345       0.00707518
C       12.12825278       2.92771887       8.06260972       0.00143622      -0.00802541       0.00316603
H       13.80950997       0.74792072       9.55563231       0.00457227      -0.00313780       0.00369161
H       12.29851713       0.88217514      10.47167965       0.00433239      -0.00973873       0.00420715
H       13.29716163       2.33037957      10.18225776      -0.00125860      -0.00544503       0.00457591
H       12.48931288      -0.17279665       7.55864405       0.00368530      -0.00590582       0.00003422
H       11.26918143       0.86675959       6.86290844      -0.00622420      -0.01117618       0.01068199
H       10.94032887       0.03477490       8.40767525       0.00837965      -0.01536353       0.01095247
H       11.62777918       2.96179020       7.07954081      -0.00063521      -0.01200730       0.00202626
O        8.73368388       5.11003470      12.83713242       0.00127047      -0.00242138      -0.01462853
N       10.40134705       3.58221963      12.48585171      -0.00129028      -0.00459585       0.00169301
C       10.17318674       3.45832208      11.06456554      -0.00080430       0.00149284       0.00129087
C       11.46198985       2.79212232      13.07456954      -0.00414921      -0.01107155       0.00079723
C        9.66525210       4.42056126      13.23437550      -0.00587249      -0.00347561      -0.00485069
H        9.95150379       2.41780497      10.80741406      -0.00557587       0.00241432       0.00113234
H       11.06048391       3.76274122      10.50425888       0.00170374       0.00028157       0.00444064
H        9.33263423       4.09421382      10.79516765       0.00106090       0.00659090       0.00343852
H       11.26497446       1.72043424      12.98967825      -0.00626835      -0.00968572      -0.01461161
H       11.56646880       3.03863826      14.12623837      -0.00074827      -0.02506921       0.00520536
H       12.41360424       3.01202753      12.58931740      -0.00494996      -0.00832797       0.00059932
H        9.99747637       4.41506419      14.28765543      -0.01256739      -0.00861480      -0.00270826
O        9.12028646       9.08145792       6.44364272      -0.00026961       0.00607967      -0.00226894
N       10.64337342       7.37289010       6.42865065       0.00575364       0.00344843      -0.00098872
C       11.80903994       8.22618187       6.32286243       0.00297569       0.00469857      -0.00684818
C       10.87231607       5.94612968       6.44451291       0.00902387       0.00306977       0.00138638
C        9.39710077       7.88999866       6.47810992       0.00510114      -0.01120567       0.00122738
H       12.32726907       8.03425069       5.37938322       0.00134596       0.00345844      -0.00742626
H       12.49949236       8.03748914       7.14591189       0.00553262       0.01045464      -0.00777814
H       11.48239659       9.26113455       6.35199367      -0.00024098       0.00473034      -0.00996704
H       11.44402621       5.64608984       5.56108923       0.00617054       0.00195301      -0.00059566
H        9.91313870       5.43074875       6.42093619       0.01039624       0.00069379       0.00732791
H       11.42795814       5.63503613       7.33289893       0.01367830       0.00572690      -0.00031739
H        8.62394086       7.10923928       6.56676598       0.00757354      -0.00201434       0.00518522
O        1.16499877      11.34121658       2.15221489       0.00464773       0.00743484      -0.00026500
N        3.05239233      10.09090011       1.95049479      -0.00084090       0.00356916      -0.00405472
C        3.55411975      10.41620636       3.27294527      -0.00299923      -0.00219131      -0.00173756
C        3.86496902       9.19620747       1.14832901      -0.00052845       0.00470532      -0.00491022
C        1.92051779      10.60650499       1.49342208       0.00341517       0.00696325      -0.00501106
H        4.52545062      10.90439172       3.18942492      -0.00282225      -0.00209564       0.00187028
H        3.68488364       9.50054357       3.85069810      -0.00424248      -0.00555974      -0.00716564
H        2.86492033      11.09296942       3.76595639      -0.00280252      -0.00443575       0.00215970
H        4.83161946       9.65632386       0.94449468      -0.00162551       0.00779915      -0.00209554
H        3.37545687       9.00351171       0.19816152       0.00006679       0.01144770      -0.00620979
H        4.02565318       8.26493316       1.69503936      -0.00389104       0.00113699      -0.00906068
H        1.68172380      10.33262340       0.45930326       0.00050847       0.01279810      -0.00544462
O        4.21564896      11.33516047      12.40982971      -0.00114584      -0.00159347       0.00579023
N        5.70013719      11.78946205      10.72407483      -0.00964967      -0.00350040       0.00494674
C        5.69554148      10.46492533      10.14292254      -0.00853742      -0.00523530       0.00654113
C        6.56129504      12.75754068      10.08901477      -0.01560898      -0.00197710       0.00225928
C        4.93363241      12.10398713      11.78422075      -0.01316833      -0.01168066       0.01142704
H        6.71145012      10.06676434      10.13940661      -0.00786045      -0.00385864       0.00779869
H        5.33995183      10.52370254       9.11158597      -0.00676231      -0.00551462       0.00575286
H        5.03922827       9.81361831      10.71195778      -0.00806564      -0.00523983       0.00550741
H        7.60221639      12.42236807      10.13806002      -0.01417628       0.00280721       0.00037127
H        6.46371584      13.71533337      10.59323628      -0.01973234      -0.00153436       0.00113168
H        6.28497639      12.89152723       9.03937089      -0.01838897      -0.00476866       0.00283980
H        5.02285094      13.16899555      12.04911159      -0.00899156      -0.00452888       0.00716381
O        4.68240476       4.71967924      11.96857471       0.02217376      -0.01978511       0.01187861
N        6.24053583       3.04979509      11.90714242       0.00043217      -0.00108191       0.00086811
C        6.25275136       2.95774890      10.46042640       0.00185637       0.00467711      -0.00081071
C        7.05890761       2.13364868      12.66395399      -0.00577666       0.00037076      -0.00023371
C        5.45128841       3.95055542      12.52336972      -0.02604330       0.02404910      -0.01937500
H        5.64359409       2.11890268      10.11233712       0.00353056       0.00340798      -0.00353839
H        7.28148341       2.82181032      10.12347623       0.00480714       0.00136527       0.00274496
H        5.85838907       3.88669875      10.05446039       0.00636961       0.00249273      -0.00122868
H        6.66281866       1.11499497      12.61917896      -0.00446805      -0.00087920      -0.00459588
H        7.08890600       2.44958783      13.70540539      -0.01048495      -0.00442615       0.00200656
H        8.08017766       2.12843040      12.28141700      -0.00273418      -0.00045749       0.00630777
H        5.57256821       3.92055651      13.62079636      -0.00735259      -0.00013156      -0.00320315
O        5.17263706      11.90711705       5.65584056      -0.00457901      -0.00191808      -0.01412416
N        5.00683315       9.85092360       6.64683910       0.00388685       0.00038633      -0.00384334
C        3.57100624       9.89969357       6.82426210       0.00447641      -0.00120247       0.00231425
C        5.67672577       8.62196169       7.02760658       0.00664870       0.00079596      -0.00421255
C        5.68060092      10.87453279       6.07561442       0.00120613      -0.00615501      -0.01025927
H        3.31313682       9.71545206       7.86931524       0.00830287      -0.00328457       0.00268888
H        3.08269000       9.12985612       6.22001172       0.00263295       0.00001830       0.00245970
H        3.21588209      10.88042831       6.51896193       0.00308514      -0.00041121       0.00552049
H        5.37965553       8.33236961       8.03772596       0.01021193       0.00159021      -0.00297964
H        6.75485941       8.77282071       6.99236588       0.00620073       0.00251434      -0.00791077
H        5.40613732       7.81200372       6.34288886       0.00538157      -0.00017434      -0.00246319
H        6.76653844      10.68499064       6.02250053      -0.00107706      -0.00319183      -0.01879818
O       13.86725548       8.48567798       9.21505472       0.00204980      -0.01903617       0.00103050
N       11.73245422       8.05791684       9.93418307       0.00181490      -0.00323898       0.00047615
C       11.17643232       9.34285986       9.55418574       0.01003191       0.00010125       0.00004113
C       10.82977868       7.08673115      10.50921779      -0.00317730       0.00234686       0.00082895
C       13.03374672       7.76610778       9.74409466       0.00373697      -0.00799233      -0.00239778
H       10.69600483       9.80240905      10.41810538       0.01213026       0.00197433       0.00026995
H       10.42026158       9.21841934       8.77497899       0.00952199       0.00416647      -0.00000837
H       11.98258589       9.96796738       9.18003056       0.01266354      -0.00320229       0.00080303
H       10.29523125       7.51630085      11.35761477      -0.00222926       0.00651333      -0.00090808
H       11.39885281       6.21881252      10.83770754      -0.00759967       0.00055522       0.00386465
H       10.09041333       6.75974306       9.77138650      -0.00343245       0.00383916       0.00078702
H       13.27975285       6.75919870      10.12313214      -0.00582957      -0.01274896       0.00054610
O        8.54397974       8.87989998       2.23300072       0.00712526       0.01037866       0.00865889
N       10.60344502       9.73439242       2.74482979       0.00692600       0.01647682      -0.00925210
C       11.25369241       9.23579404       1.55082348       0.00076935       0.01229460      -0.01113015
C       11.36775582      10.64893060       3.57069574       0.01059245       0.01944204      -0.01772951
C        9.29386502       9.51494918       2.97234651       0.00736588       0.01274717      -0.00193179
H       12.09758862       8.59685026       1.82731269       0.00120613       0.01198965      -0.01313879
H       11.62957592      10.06975321       0.95225637      -0.00137934       0.01095140      -0.01453398
H       10.53430462       8.66141144       0.97321100      -0.00229016       0.01178555      -0.00623731
H       12.27720544      10.16822212       3.94054455       0.01004252       0.02073433      -0.01469383
H       10.76234664      10.98711976       4.40812218       0.01308307       0.02989465      -0.02031735
H       11.65509810      11.52713628       2.98160975       0.01101739       0.01334041      -0.02740492
H        8.95357370       9.96083532       3.91669701       0.01346022       0.01722255       0.00069964
O        8.81970093       9.68590313      11.81785022       0.00512910       0.00096583      -0.00878596
N        7.25828477       8.03678714      12.09808598       0.00261700      -0.00055307       0.00405616
C        7.33899534       7.50498708      10.75290114      -0.00248340      -0.00608817       0.00573116
C        6.33145293       7.38036051      12.99285562       0.00394608       0.00026292       0.00857484
C        8.02617375       9.05661589      12.51314347      -0.00374854      -0.00532889       0.00468671
H        6.34754305       7.48471952      10.30000691      -0.00338316      -0.00809551       0.00850445
H        7.72355892       6.48317605      10.78862497      -0.00026093      -0.00489792       0.00716993
H        8.01089541       8.12600997      10.16607128      -0.00461982      -0.00619963       0.00170048
H        5.31348325       7.46174966      12.60593592       0.00272232      -0.00106652       0.01136188
H        6.40295919       7.83121549      13.98174426       0.00643280       0.00279848       0.00738087
H        6.58642121       6.32490884      13.06529427       0.00425029       0.00030470       0.01024877
H        7.87856399       9.27566054      13.58347636       0.00508831       0.00261088      -0.00182766
O        7.26898250       5.68092127       7.90373736       0.02375138      -0.03861481      -0.00447584
N        7.52448700       3.67844592       6.82095369       0.00518481      -0.01732980      -0.00220466
C        6.44371187       3.90486758       5.88431036       0.00529763      -0.00797131      -0.00292832
C        8.26393374       2.43765647       6.71025131      -0.00066108      -0.01611108      -0.00306084
C        7.82533655       4.60355969       7.75746254      -0.00778069       0.01118195       0.00084987
H        5.68340293       3.12732259       5.99294653       0.00339013      -0.00798303      -0.00671805
H        6.82165215       3.89049183       4.85959104       0.00815600      -0.00955207      -0.00290003
H        6.00521047       4.87906969       6.08240912       0.00828309      -0.00957099      -0.00300366
H        7.58508469       1.58303310       6.73894170      -0.00303188      -0.01435563      -0.00764910
H        8.96007114       2.36310629       7.54427217      -0.00305469      -0.02125851      -0.00094733
H        8.83524132       2.38938022       5.77715294       0.00240083      -0.01603368      -0.00123477
H        8.66693602       4.28296831       8.39640691       0.00683799      -0.01841463      -0.00173274
O        4.05892931       7.51092178      10.04929106      -0.00287354       0.00035071      -0.00879683
N        2.93129083       5.71952077       9.18645828      -0.00059977       0.00245985      -0.00414924
C        3.91351623       5.43485969       8.16816066       0.00104247      -0.00124772      -0.00196844
C        1.70840177       4.95354946       9.15090669      -0.00197850       0.00648088      -0.00350634
C        3.10213470       6.75148767      10.03804209       0.00690043       0.01005697      -0.00756991
H        3.53894345       5.70959735       7.17595525       0.00316960      -0.00165823      -0.00311682
H        4.13895923       4.36538035       8.16795209      -0.00311918      -0.00241292      -0.00023827
H        4.82246734       5.99140050       8.37525154       0.00224236      -0.00445682      -0.00151554
H        1.11566501       5.17816867       8.26162621      -0.00263450       0.00933412      -0.00237727
H        1.10508895       5.17791517      10.02655418      -0.00004640       0.00699106      -0.00220874
H        1.92704882       3.88252211       9.15426643      -0.00511973       0.00602710      -0.00495819
H        2.26936497       6.84477122      10.75290392      -0.00040352       0.00976732      -0.00831121
