196
Lattice="13.308866299774774 0.0 0.0 0.0 13.308866299774774 0.0 0.0 0.0 13.308866299774774" Properties=species:S:1:pos:R:3:forces:R:3 energy=-1037579.25 stress="-0.0014716130681335926 0.0004009608819615096 0.0008252466504927725 0.0004009608819615096 -0.0011224233312532306 -0.00023383708321489394 0.0008252466504927725 -0.00023383708321489394 -0.0014992795186117291" pbc="T T T"
Dy      12.15524879      11.41822845       1.87366026      -0.02077638       0.02092752       0.01193295
I       10.46396561      13.17493176      12.09052843       0.01644468       0.01183319      -0.00412011
O       11.45043010      13.92904370      10.82157873       0.03524113      -0.02382910      -0.00908419
O        9.24950378      14.25860126      12.80253446       0.01592641       0.02425193      -0.02556082
O        9.77314273      11.60089118      11.61402740       0.01636605       0.00944559       0.00250483
O       11.60881805      12.71677856      13.47292572      -0.00346074       0.03002621       0.01733655
I        8.24581762      11.85543601       5.85889830      -0.00221267       0.00504844      -0.00547160
O        7.46069417      13.29818083       5.12310738       0.00130406       0.01618418       0.01407717
O        9.62670113      12.43357035       6.85065116       0.00060974      -0.01433402       0.00210416
O        7.01816394      11.04670557       6.85878876      -0.00185231      -0.00558765      -0.01356025
O        8.91741599      10.84370233       4.54901222      -0.00622436       0.02359417      -0.02177779
I        2.89698283      11.89246691       2.21845954      -0.02068947       0.00409529      -0.00372289
O        3.68276422      11.75344252       0.62252136      -0.03270473       0.00200626      -0.00887467
O        3.16177471      13.55822174       2.83715368      -0.04392693       0.01258312      -0.01872525
O        1.07599804      11.59856371       1.92201504      -0.01701556      -0.02202194       0.01680922
O        3.48132022      10.57096100       3.29584017       0.00609380       0.01732780      -0.00367729
O        5.03470267      13.34807438      11.35776002      -0.01039338       0.01341093       0.00518444
C        4.34012148      12.15060462      11.00548507      -0.00500718       0.01356941      -0.00537694
C        5.19571199      10.92058066      11.22079272      -0.00594783       0.01417303       0.00095126
H        3.41000942      12.07307494      11.57516327      -0.01100910       0.01130966      -0.01561847
H        4.07985512      12.25911411       9.95026586       0.00658648       0.01602617      -0.00776953
H        4.63339745      10.00915204      11.00936778      -0.00182384       0.01390695      -0.00820303
H        6.07181068      10.94366072      10.57413238       0.00175533       0.01741485       0.01165460
H        5.53108515      10.86933124      12.25828210      -0.01811172       0.01179609       0.00465587
H        5.19858892      13.30398844      12.30550510      -0.01951367       0.01039207       0.00652542
O        3.64189792       7.86515070       2.05862380      -0.00653642       0.01325493       0.00222188
C        3.78078321       8.33412658       0.72071608      -0.00547463      -0.00029072      -0.00235653
C        2.44723187       8.69301370       0.09051485      -0.00554299      -0.01569469      -0.00984278
H        4.45481798       9.19783205       0.68856191      -0.01032344       0.00303024      -0.00997263
H        4.26306307       7.53064691       0.15913974       0.00106958      -0.00311995       0.00755262
H        2.59351279       9.13603388      -0.89660878      -0.00520796      -0.03933624      -0.02025847
H        1.80743854       7.81498912       0.01156544      -0.00415555      -0.01829401       0.00972746
H        1.92676608       9.42996046       0.70655503      -0.00735692      -0.00219878      -0.02775420
H        3.52028727       8.64448840       2.61642220      -0.00814561       0.01829063      -0.00554116
O        3.98988691       9.05945139       5.66480351      -0.00244203       0.01090360       0.00019771
C        4.82238786       8.75964895       6.79676674      -0.00177365       0.00212732      -0.00266689
C        4.40157533       9.47240569       8.06165234       0.00419942      -0.00029293       0.00053805
H        4.74724437       7.67944669       6.93808893      -0.00699292       0.00213456      -0.00732190
H        5.86153966       9.00566510       6.57406812      -0.00112414      -0.00213784      -0.00382794
H        5.08227352       9.19473108       8.86682443       0.00653984      -0.00338055      -0.00253220
H        4.46059562      10.55481598       7.93311203       0.00588901      -0.00022137       0.00261458
H        3.38995295       9.19823571       8.36031561       0.00474495       0.00121076       0.00348035
H        4.17644087       9.95161861       5.35314946      -0.00054909       0.01249059       0.00658710
O        9.65316365       7.67813484      10.08843366       0.00537691       0.00542951       0.01451790
C        9.13824769       8.02128931      11.36781717      -0.00069243       0.00662848       0.01156986
C        7.82929781       8.76936950      11.26161340      -0.00307852       0.00149581       0.00610104
H        9.00305040       7.09134861      11.92518170       0.00075541       0.00733155       0.01316243
H        9.86865628       8.62975675      11.92035241      -0.00520641       0.01026779       0.01315540
H        7.40585502       8.94090018      12.24977032      -0.00507430       0.00331259       0.00488067
H        7.99032731       9.73610140      10.78304281      -0.00552327       0.00020593       0.00270444
H        7.11589219       8.19775009      10.66502637      -0.00020678      -0.00299868       0.00718015
H        9.44599897       8.42123365       9.49489722       0.00653565       0.00346418       0.01145217
O        8.87300130       9.00992594       1.20727015       0.00383317       0.01018512      -0.00272128
C        9.55551046      10.19836115       1.53485940       0.01028040       0.00858188      -0.01521115
C        8.62989252      11.39923875       1.58087034       0.01523030       0.01263094      -0.01542694
H       10.07491053      10.06358091       2.51647687       0.01749574       0.00830012      -0.01871258
H       10.29315801      10.31176090       0.71139571       0.00509205       0.00219515      -0.02018441
H        9.12041366      12.32827449       1.88960328       0.02495139       0.01462087      -0.03653538
H        8.18742280      11.55933117       0.59851986       0.00595119       0.00330144      -0.01225552
H        7.84474298      11.21568838       2.31536650       0.01909643       0.02838860      -0.00716190
H        8.01652249       9.02202034       1.64808891       0.01941717       0.00815205       0.02711163
O       11.49823456      13.66274068       5.09364758       0.01487067      -0.01142782       0.03804797
C       11.77708209      12.71730713       4.11559305      -0.00024235      -0.00039223       0.02271259
C       12.15270082      11.35397013       4.71877828      -0.00529543      -0.01067650       0.00610119
H       10.88167715      12.62507234       3.43798213      -0.00680327       0.01671493       0.02969162
H       12.62234520      13.14081031       3.53077588      -0.00161731       0.00259125       0.02280891
H       12.53109451      10.56352594       4.04377660       0.01160874      -0.00271170       0.00630154
H       12.97137020      11.51306273       5.41430591      -0.01689956      -0.01281726       0.02021509
H       11.28681093      10.94076182       5.22940832      -0.01004620      -0.01998408      -0.00949991
H       10.87579884      13.28031752       5.73906942       0.00294056      -0.01137535       0.02671368
O        6.25122433       1.55152077       7.14163669      -0.00409678       0.00314720       0.02010310
C        6.34861563       0.88632176       8.40766227      -0.00501838      -0.00405480       0.01565215
C        7.71355422       1.04589260       9.04506997      -0.00397050      -0.01310171       0.01527536
H        5.58093643       1.33469832       9.03896065      -0.00319865      -0.00509754       0.01913443
H        6.09863177      -0.17198340       8.28593540      -0.00887449      -0.00229990       0.01006947
H        7.67273009       0.70621459      10.08237435      -0.00072469      -0.02751446       0.01041050
H        8.47975586       0.47770911       8.51657362      -0.00562891      -0.00659397       0.00554688
H        8.01007227       2.09351231       9.04031786      -0.00322729      -0.01342577       0.02911675
H        6.72283958       1.04769449       6.45593430      -0.00363864       0.00484887       0.01759507
O        6.55263897       6.29650185      12.95767897       0.00052512      -0.00907129       0.00694615
C        5.90575573       5.28105647      12.20018575       0.00103116      -0.00705224       0.00384846
C        6.43831508       3.89985432      12.51268172       0.00246879      -0.00775486      -0.00193185
H        4.81939413       5.31352974      12.37426952       0.00126982      -0.00849981       0.00447208
H        6.08853928       5.53982797      11.15476281       0.00021955      -0.00310506       0.00486052
H        5.94657261       3.13314938      11.91064568       0.00417438      -0.00532535      -0.00628240
H        7.51133918       3.84638179      12.33127322       0.00271297      -0.00564398      -0.00060339
H        6.25875713       3.65331423      13.56005326       0.00126659      -0.01303684      -0.00345324
H        6.52053965       6.04034319      13.88454416      -0.00078841      -0.01043768       0.00598040
O        7.48704862       6.01787015       7.89566646      -0.00318468       0.00275278      -0.00963356
C        8.57817849       5.21109186       8.32109605      -0.00127003       0.00870377      -0.00363588
C        8.37265403       4.66074897       9.71755176      -0.00467302       0.00886619      -0.00418597
H        8.74101832       4.38901871       7.60953517       0.00602158       0.00858259      -0.00163546
H        9.46129023       5.84989010       8.31271099      -0.00441206       0.01304224      -0.00030244
H        9.18721452       3.98983496      10.00234072      -0.00300537       0.01256397      -0.00072531
H        8.33344984       5.47987206      10.43390928      -0.01053658       0.00879249      -0.00450742
H        7.44225093       4.09233860       9.77346125      -0.00229371       0.00477695      -0.00750395
H        6.74485644       5.39654641       7.74846334      -0.00102384      -0.00012488      -0.00891129
O        3.41889349       6.27341622       9.74678042      -0.00035214      -0.00135905       0.00026080
C        2.61880191       5.10141886       9.87533864       0.00166269      -0.00214708       0.00083945
C        3.41243099       3.81513271       9.78004143       0.00303113      -0.00082403      -0.00229510
H        2.04321494       5.13789426      10.80850375       0.00358695      -0.00385337       0.00203228
H        1.90613476       5.16053081       9.05077750      -0.00015494      -0.00222028       0.00239730
H        2.74272975       2.95297468       9.81017159       0.00473998      -0.00187109      -0.00086333
H        3.98442930       3.78926874       8.85278032       0.00033219       0.00085265      -0.00381508
H        4.10163465       3.71330645      10.62000484       0.00560720       0.00004630      -0.00438087
H        4.10867364       6.23718257      10.41550077       0.00174665      -0.00156879      -0.00140935
O        9.54108549       9.83444083       8.39322408       0.01568705      -0.00266999       0.00130785
C       10.93020125       9.77714948       8.06072095       0.01605791      -0.00057122       0.00400640
C       11.78309267      10.61275670       8.98471281       0.01504159       0.00133139       0.00349200
H       11.19531014       8.72131516       8.12739186       0.01702372      -0.00011742       0.00615100
H       11.06531369      10.09036744       7.02291410       0.01832332      -0.00171700       0.00416350
H       12.83796550      10.51547048       8.71931665       0.01460510       0.00272408       0.00153935
H       11.51264221      11.66818895       8.91047190       0.01387294       0.00096452       0.00428775
H       11.64718332      10.29494048      10.01892330       0.01758789       0.00120845       0.00357574
H        9.32529556      10.74740771       8.61097779       0.00897232       0.00138801      -0.02310465
O        7.57510781       7.99075894       5.09853222       0.00283479      -0.00058985      -0.00650918
C        6.78193276       8.33628814       3.96261784      -0.00558250      -0.00186069      -0.00097591
C        6.65677339       7.20761533       2.95933225       0.00220004       0.00391036      -0.00827169
H        5.79258016       8.67993314       4.27005000      -0.00793761      -0.01402918       0.00458288
H        7.30619417       9.19443115       3.53689564      -0.01725101       0.00711644       0.00224002
H        6.17062220       7.57789741       2.05500885      -0.00146894       0.00685821      -0.00490889
H        7.63742983       6.79067607       2.71905787       0.00495535       0.01322082      -0.01292272
H        6.01621286       6.41752993       3.35118621       0.00960431      -0.00409432      -0.01254450
H        7.11598635       7.36321452       5.67107934       0.00790238      -0.00092160      -0.00266401
O        1.64916304       4.64282565       3.34467209       0.00055659       0.00189481      -0.00165498
C        3.03294601       4.57751412       3.06664737       0.00042772      -0.00208737       0.00058973
C        3.32769051       4.50226535       1.58002768       0.00313667      -0.00419093       0.00141311
H        3.55488479       5.44644402       3.49053410       0.00213823      -0.00330853       0.00096482
H        3.40696764       3.68183236       3.56982186      -0.00243159      -0.00261456       0.00184619
H        4.40530720       4.44389846       1.40965459       0.00316425      -0.00933024       0.00379238
H        2.85943647       3.62217904       1.13587131       0.00032637      -0.00237317       0.00098662
H        2.95526737       5.39960010       1.08273162       0.00769148      -0.00324109      -0.00016334
H        1.26687257       5.30749614       2.74632729      -0.00028983      -0.01012792      -0.01466226
O        1.60481363      12.77515433       4.92276130      -0.01310362       0.00251866       0.00130838
C        2.00387515      12.84539877       6.29276443      -0.01129365      -0.00020317       0.00070080
C        3.49277746      13.06168902       6.45842499      -0.01134861       0.00256568      -0.00323018
H        1.44850904      13.64808534       6.79302862      -0.01275420      -0.00376904       0.00452769
H        1.69497157      11.90169280       6.74927117      -0.00801040      -0.00258452      -0.00261657
H        3.75119267      13.12060844       7.51707874      -0.00697306      -0.00153270      -0.00425075
H        4.07028531      12.25230596       6.00833473      -0.01226586       0.00557396      -0.00947074
H        3.81186407      13.99743444       5.99590605      -0.01517081       0.00513262      -0.00068051
H        2.11951421      13.43326002       4.43403527      -0.02523472       0.01349644       0.00421460
O        9.95822672       7.01187101       4.22965868       0.00580642       0.00132400      -0.00586402
C       10.27275199       6.31057826       5.42944981       0.00106555      -0.00766872      -0.01002604
C       11.62198169       6.74856139       5.94587770       0.00253743      -0.01794210      -0.00542107
H        9.50163612       6.51015302       6.17803509       0.00113761      -0.00879388      -0.00977761
H       10.26978235       5.23057336       5.23481891      -0.00362508      -0.00636882      -0.01674518
H       11.83987953       6.29205560       6.91486638      -0.00054070      -0.02675646      -0.00907825
H       12.41887743       6.48638254       5.25121179       0.00164683      -0.01581334      -0.00713210
H       11.62407329       7.83100611       6.06200386       0.00825217      -0.01919797       0.00424555
H        9.11270201       7.45367087       4.42382049       0.00488751      -0.00028390      -0.00687425
O       12.71716259       4.68173739      11.45087833      -0.00833786       0.01804495       0.03248755
C       11.95120788       5.72681836      10.84071965       0.00090618       0.00422150       0.01475927
C       12.80519118       6.82372634      10.23982813       0.00300455       0.00014800       0.00865984
H       11.26822480       5.31910796      10.09034966       0.00318658      -0.00031996       0.01647642
H       11.33030672       6.13214151      11.63734488      -0.00565335       0.01713552       0.00653765
H       12.15700551       7.65376710       9.95873873       0.00609644      -0.00071970      -0.00040684
H       13.54642983       7.17581891      10.95895962       0.00142668       0.00449580       0.00762960
H       13.33232704       6.48158947       9.34842447       0.00483482      -0.00856262       0.01298605
H       13.08330416       4.12832130      10.75665230      -0.00114527       0.00735869       0.04105577
O        5.64304865       4.14763414       7.15562646      -0.00192581       0.00248909      -0.00692672
C        5.55369798       4.39533967       5.75299971       0.00127628      -0.00262065      -0.00783151
C        6.91124751       4.31665057       5.08473256       0.00160432      -0.00869970      -0.00625741
H        4.85654319       3.68139344       5.30312578      -0.00039265      -0.00158894      -0.00662938
H        5.10937130       5.38870954       5.64187719       0.00493924      -0.00162536      -0.01197796
H        6.83660573       4.48140573       4.01172087       0.00328910      -0.00911052      -0.00649373
H        7.58594054       5.06410407       5.50160992       0.00384519      -0.01087882      -0.00623247
H        7.35883061       3.33267938       5.22628876      -0.00223713      -0.01024835      -0.00491920
H        5.94229559       3.21290533       7.23168369      -0.00580548       0.00192779       0.00026123
O       13.64759904       6.27601542       1.46963682       0.00067627      -0.02037090      -0.01863092
C       12.48285484       6.69561344       2.19690246       0.01085016      -0.00711998      -0.01032563
C       11.37722660       7.14132616       1.27661950       0.01183736       0.01140599      -0.00223187
H       12.13144624       5.88751006       2.84606792       0.00271988      -0.00517458      -0.01237062
H       12.82246791       7.50157344       2.85212494       0.02566379      -0.01386407      -0.00999865
H       10.50686327       7.45176721       1.84902132       0.01711918       0.01374909       0.00432134
H       11.70237432       7.95752923       0.62144814       0.01719058       0.01352683       0.00350874
H       11.06323272       6.31796823       0.62863668       0.00212747       0.01935500      -0.00734541
H       13.36942678       5.62581248       0.81355521      -0.01109174      -0.01287854      -0.02089183
O        1.07599270       8.78672738       4.98849883       0.00013767       0.00527709       0.00397038
C        1.09607253       8.66421201       6.40788544      -0.00195836       0.00098968       0.00330251
C        1.63009451       7.32322800       6.87571260      -0.00099853       0.00036150      -0.00029880
H        1.69704157       9.47169345       6.83789763      -0.00383279       0.00032645       0.00716551
H        0.06630611       8.80694953       6.73871925      -0.00255036      -0.00140179       0.00222778
H        1.75064978       7.31500974       7.96030949      -0.00283507      -0.00330285      -0.00025198
H        0.97065248       6.50941062       6.57867664       0.00077380       0.00066505      -0.00462000
H        2.60859216       7.13748405       6.43512800      -0.00005765       0.00328411       0.00070565
H        2.00322559       8.83704194       4.72407795       0.00055246       0.00729144       0.00583617
O        7.93024403       1.79918257       3.04426810      -0.00079954      -0.01388822      -0.01169373
C        6.59325956       1.98012514       2.60985402      -0.00141537      -0.01240512      -0.00841671
C        6.24729378       1.09760302       1.42469617      -0.00717404      -0.01782775      -0.00248593
H        5.88726329       1.80357745       3.43199571       0.00090536      -0.00689274      -0.00544482
H        6.49625189       3.03417377       2.32814358      -0.00044623      -0.01382816      -0.01346970
H        5.24738197       1.33546497       1.05238237      -0.00724582      -0.01594640      -0.00078186
H        6.97946607       1.24090269       0.62822269      -0.00922579      -0.02426723      -0.00549604
H        6.25785505       0.04609600       1.71778550      -0.00938075      -0.01622759       0.00322014
H        7.92175096       1.11402286       3.72727519      -0.00216208      -0.00318427      -0.00129141
