200
Lattice="18.8802217783854 0.0 0.0 0.0 18.8802217783854 0.0 0.0 0.0 18.8802217783854" Properties=species:S:1:pos:R:3:forces:R:3 energy=-2191103.0 stress="-0.0003253383038099855 -0.00016932874859776348 -0.00016914564184844494 -0.00016932874859776348 3.0305756808957085e-05 0.00011540955529198982 -0.00016914564184844494 0.00011540955529198982 -2.0347017198218964e-05" pbc="T T T"
Dy      16.94207178      20.55236103      -2.31345372       0.01916841      -0.00214770      -0.00429361
S       15.75218715      18.25928816      17.91809772      -0.03951228       0.00837404       0.00332671
O       14.32837481      18.30795238      17.72756136       0.02012527       0.01150928       0.02695884
O       16.29480286      19.48353082      18.59459728       0.01058602       0.01150149      -0.00082386
O       16.52493123      18.16679049      16.63463491      -0.01559770       0.00779349      -0.00443935
C       16.20371595      16.86424556      18.87735193      -0.00271198       0.00238812      -0.00111133
H       15.92848959      15.97297743      18.31800008      -0.01324491       0.00440098      -0.00115328
H       17.27559479      16.90403810      19.04634313      -0.00335209      -0.00567334      -0.01055920
H       15.65853224      16.91309846      19.81641135       0.00508822      -0.00285672       0.00468367
S        8.07549092      17.37518241       3.64823652       0.00309324       0.00251043      -0.00445286
O        8.88155116      16.55742448       2.73500640       0.00890553       0.00468171      -0.00102091
O        8.19379242      16.95773118       5.03968200      -0.00184911       0.00311530      -0.00386310
O        6.69094988      17.52377185       3.19427240       0.00454855      -0.00140014      -0.01062429
C        8.79068417      19.01314790       3.56345094      -0.00102025       0.00433707      -0.00157103
H        8.72165728      19.36187995       2.53583728       0.00275575       0.00413297      -0.00186212
H        8.23437304      19.66730516       4.23165711      -0.00567186       0.00294464      -0.00413036
H        9.82900687      18.94192597       3.87782236      -0.00247360       0.00740938       0.00349953
S        9.02355040      14.76768860      13.60134711      -0.00680864      -0.00288379       0.00276196
O        8.30507157      14.62357989      14.86330150      -0.01540601      -0.00509873      -0.00216150
O        9.39996423      13.48208505      13.00299756      -0.00158435      -0.00200820       0.00408626
O       10.15109401      15.70143200      13.66536842      -0.00841880      -0.00213361       0.01105976
C        7.86434324      15.50716176      12.45528132      -0.00039804      -0.00297487      -0.00360143
H        7.55620236      16.47122803      12.85588716      -0.00262800      -0.00296959      -0.00525283
H        8.36202712      15.62647142      11.49579890       0.00482047      -0.00300230      -0.00086370
H        7.00891197      14.84362621      12.36154626       0.00030635      -0.00309047      -0.00850433
Cl       6.66579392      15.26591260      -1.22776821      -0.00711042      -0.01247144      -0.01916647
Cl       6.15979823      14.54741349       1.53685746       0.00710964       0.00655776      -0.01240146
Cl       4.16886069      14.00633997      -0.50154533      -0.00687504       0.00163448       0.00337037
Cl       4.70533321      16.73781163       0.33452932       0.00656483       0.00433415      -0.01676546
C        5.44574336      15.14388022       0.03961687       0.00008763       0.00004809      -0.01134386
Cl       2.86671823       1.33362655      18.67296340       0.00599410      -0.02383490       0.00383265
Cl       0.76594072       0.15188872      17.04591171      -0.00721252      -0.00647633       0.01293435
Cl       0.17917917       2.43561084      18.73035736       0.01483768      -0.00801855       0.01064739
Cl       0.73680967      -0.16499995      19.92893503       0.00557029      -0.00884868       0.01155971
C        1.17212998       0.92155220      18.62201275       0.00219995      -0.00730640       0.01304255
Cl       8.74095876       7.33813242      11.46696687       0.00643547       0.00828037       0.00837463
Cl      10.91385948       7.95844731       9.64953586      -0.00078511       0.00780179      -0.00054710
Cl       9.35946101      10.10110579      10.85117134      -0.00330841       0.00755793      -0.00385711
Cl       8.17333655       8.39595368       8.82714689      -0.00461611      -0.00347456       0.00617164
C        9.29906102       8.45774356      10.19550203      -0.00053786       0.00510652       0.00247697
Cl       3.16350608       3.83006831      15.74404216       0.00026301       0.00142574       0.00585078
Cl       3.85008282       5.95428735      17.58807091       0.00590844       0.00299719       0.00151992
Cl       5.39968168       5.58829755      15.16536355      -0.00196150       0.00129542      -0.00357726
Cl       5.60187269       3.65543689      17.32301021       0.00586525       0.00330010      -0.00274464
C        4.51109669       4.76004492      16.45389825       0.00305045       0.00250744       0.00078273
Cl       2.58134602      12.92956455       2.71074686       0.00758579      -0.00095081      -0.00078398
Cl       2.26680192      10.71096092       4.55992448       0.00790182       0.00076917       0.00153497
Cl       4.79880049      12.10129797       4.38057750       0.00905916      -0.00183196      -0.00361130
Cl       3.91713037      10.41876805       2.18710170       0.00391503      -0.00282770      -0.00059974
C        3.39034477      11.54663481       3.46184882       0.00709327      -0.00126778      -0.00079303
Cl       9.76376858      12.94270205      17.78928540      -0.00433767       0.00036323      -0.00091709
Cl       9.97400328      10.33665308      19.04565710       0.00155860       0.00274304       0.00260037
Cl       8.91868462      10.57541831      16.35949095      -0.00022726      -0.00327018       0.00266039
Cl       7.37217436      11.53372375      18.61252944      -0.00112158      -0.00345640       0.00195685
C        9.01192563      11.35729365      17.95001690      -0.00094721      -0.00091566       0.00164549
Cl       7.83433987       5.05823969       2.05844257       0.00869116       0.00851864      -0.00469443
Cl      10.09271490       6.77664547       1.45437244       0.01431799      -0.00166522      -0.01156954
Cl       7.60591256       7.07226196      -0.01550275       0.01615283       0.00021783      -0.01374313
Cl       9.27434143       4.73502825      -0.43790064       0.00746094      -0.00743261      -0.00302222
C        8.69848106       5.91253458       0.76359056       0.01196128      -0.00023484      -0.00842449
Cl       0.31675488       9.59612482      13.69037857      -0.02384774      -0.02134317       0.00868189
Cl      -0.62091585       7.20217521      12.34969324      -0.00219743      -0.02142309       0.00623193
Cl      -0.91322143       7.46975474      15.23114254       0.00315335       0.01149267       0.01285070
Cl       1.70662996       7.07358782      14.06638963       0.01852494       0.00614059       0.00241400
C        0.12626363       7.83324946      13.83011280       0.00246522      -0.02052137       0.00535712
Cl      15.62015802      17.98764657       3.71352657      -0.00704822      -0.01124048      -0.00098807
Cl      12.88533358      17.66248843       2.79158457      -0.01330638       0.01199493      -0.00105175
Cl      14.07103603      20.30537656       2.90772304       0.01060306      -0.00170124      -0.00641787
Cl      13.41687722      18.90486400       5.35817164       0.00001085       0.00674343      -0.00288165
C       13.98860688      18.71071407       3.68423319      -0.00198952       0.00078884      -0.00296596
Cl       2.55967905      17.55707004       7.12759995      -0.00066406      -0.00811684       0.00918397
Cl       2.13684338      15.43529329       5.21049639      -0.00462894      -0.00612664       0.00753462
Cl       1.05181603      18.08118587       4.71506363       0.01357755       0.00005278       0.00273013
Cl      -0.08736474      16.41163881       6.79219323      -0.00569281       0.00709002      -0.00183168
C        1.41701769      16.86194649       5.96740473       0.00047299      -0.00188550       0.00440853
Cl      12.88812018       0.98964253       8.85369162      -0.00695691       0.00431699      -0.00104213
Cl      12.47463597       3.29922636       7.14694234      -0.00463073       0.00378935      -0.00238079
Cl      13.46541860       3.65951020       9.84688282       0.00803486       0.00329332      -0.00708839
Cl      10.72070751       2.83073963       9.41100718       0.00301018       0.01394683       0.00563732
C       12.37954426       2.69975778       8.80946041      -0.00006966       0.00632842      -0.00120767
Cl      -0.07540733       7.14074011       5.78419076      -0.00295770      -0.00432345       0.00445589
Cl       1.17458288       9.01292252       7.61226441       0.00088221       0.00285515      -0.00602983
Cl      -1.27466011       7.66273379       8.37216394      -0.00072618       0.01079611       0.00250918
Cl      -1.32174627       9.70158919       6.30911058       0.00141117      -0.00001323      -0.00840944
C       -0.37279753       8.37974502       7.01751419      -0.00039175       0.00232291      -0.00190278
Cl       3.32623240       6.05980255       6.24347683       0.00135899      -0.00706226       0.00105802
Cl       6.19968039       5.66940087       6.25289999       0.00193432      -0.00278530       0.00550044
Cl       5.06725461       8.20401867       7.10309374      -0.00234494      -0.00242397      -0.00226879
Cl       4.97511162       7.44182903       4.30879725       0.00157169      -0.00941911      -0.00046426
C        4.88820245       6.84546350       5.97320323       0.00065223      -0.00544847       0.00094863
Cl      18.17766307      15.56210283       2.97157721      -0.00255895       0.00121713       0.00044955
Cl      15.67375526      14.12955008       2.62281994       0.00771937      -0.01858396      -0.00981021
Cl      17.95115695      12.80253820       3.81066543       0.01073062      -0.00145221      -0.00190589
Cl      17.97467025      13.46593433       0.97983008       0.01587440       0.00232466      -0.00198275
C       17.43656553      13.98151517       2.59557914       0.00870463      -0.00369978      -0.00309424
Cl       6.58837475       9.55246242      13.75743439      -0.00218990       0.00291997      -0.00319561
Cl       5.27367968       9.41275986      16.34282875      -0.00069373      -0.00108612      -0.00289464
Cl       3.76450257      10.15400553      13.99155400      -0.00236565       0.00307401      -0.00090915
Cl       5.72735388      11.98600661      15.08314901      -0.00102741       0.00057787       0.00094955
C        5.33910444      10.29075044      14.79549670      -0.00187307       0.00154165      -0.00159861
Cl       5.48070650      15.77895952       9.38884337      -0.00361165       0.00866654      -0.00386870
Cl       8.07674701      15.61349915       8.11595106      -0.00212330       0.01210339      -0.00088954
Cl       6.25090640      17.76159012       7.42642980      -0.00620063       0.00817847      -0.00627661
Cl       5.67525744      15.05108468       6.58812125       0.00068340       0.00512579      -0.00218153
C        6.38045550      16.05291440       7.86279502      -0.00264757       0.00926511      -0.00353642
Cl      13.73506554       7.05102529      12.34874477      -0.01119524       0.00305682       0.00647830
Cl      14.90446753       9.01752701      10.57015614      -0.01131251      -0.00011440       0.00333571
Cl      15.30640933       9.23544193      13.43305441      -0.00430387       0.00016136       0.00242534
Cl      12.70320751       9.76501046      12.30422681      -0.00589103       0.00469670       0.00753475
C       14.15727375       8.77843650      12.16715840      -0.00803347       0.00180356       0.00540851
Cl      10.59999733       1.47260133      16.29245562      -0.01171678       0.00011037       0.00202155
Cl      10.19807102       2.23247059      13.51700455      -0.00563158      -0.00471479       0.00010499
Cl       7.93423748       1.46971954      15.15578331      -0.00952220       0.00077911      -0.00263006
Cl       9.86860887      -0.54439955      14.33537931      -0.00998925      -0.00245094       0.00473976
C        9.64728757       1.12456891      14.82094262      -0.00888477      -0.00141670       0.00143510
Cl       8.62316778       8.03894470       5.01544242       0.00760269      -0.00677514      -0.00017905
Cl       7.55942032       9.87777563       3.04429476       0.00323498      -0.00851668       0.00071788
Cl      10.26401682      10.20346570       4.01041056       0.00176632      -0.00103901       0.00220029
Cl       8.02597289      10.77324467       5.75889924      -0.00035088      -0.00919053       0.00174662
C        8.61989232       9.72351953       4.45407360       0.00319508      -0.00638610       0.00100461
Cl       2.30411957       2.23036235       3.44420390       0.00721833      -0.00264312      -0.00004864
Cl       4.80021535       3.68172172       3.41598378       0.00869524      -0.00473636       0.00724936
Cl       4.85087103       0.78314120       3.55469542       0.00577313      -0.00493312      -0.00681159
Cl       3.94186908       2.31263029       5.83575064       0.00821645      -0.01678427       0.00111723
C        3.99338188       2.22875345       4.05370904       0.00737819      -0.00683764       0.00044531
Cl      15.63017810       2.97089518      13.15268930       0.00277207       0.00513018       0.00353091
Cl      15.76641627       0.27727232      14.18927361      -0.00229835       0.00414101      -0.00138244
Cl      15.74038370       0.72130727      11.31562462       0.00037083       0.00921915      -0.00140531
Cl      13.35025501       1.19675006      12.89460817       0.00033741       0.00886487      -0.00193066
C       15.09486714       1.30328738      12.85321764       0.00040798       0.00679483      -0.00017852
Cl      13.13915646      15.06264135       5.59908706       0.00332761      -0.00110215      -0.00166929
Cl      10.66818796      14.97376062       4.06813413       0.00308102       0.00081176      -0.00093853
Cl      11.07082132      13.15548199       6.28699800       0.00180912       0.00056818      -0.00102365
Cl      12.61020654      12.81926249       3.84784006       0.00119314      -0.00100428      -0.00118974
C       11.84126965      14.02142491       4.94110584       0.00240555      -0.00019142      -0.00115713
Cl       4.94212203       5.10785189       9.51126555      -0.00314674       0.00309762       0.00707692
Cl       4.90575398       6.92785792      11.76578129      -0.00123045       0.00860250       0.00237265
Cl       3.45291643       4.43323064      11.90539895       0.00120559       0.00772098       0.01051293
Cl       2.52144743       6.55977115      10.15629922      -0.00366455       0.00260393       0.00697139
C        3.95456615       5.76493889      10.82271565      -0.00180488       0.00550092       0.00664844
Cl      13.40463468      16.22343464      14.72671589      -0.00432457       0.00087082       0.00202173
Cl      12.75779281      15.17882062      17.35071628       0.00884199      -0.00232141       0.00368530
Cl      15.12170481      14.22914771      15.95471188      -0.00020748      -0.00355232      -0.01074258
Cl      12.47921669      13.49745379      15.00391921      -0.00606585       0.00149572       0.00264889
C       13.42321481      14.77569340      15.74389093      -0.00039849      -0.00078708      -0.00037177
Cl      12.98367538      12.01633562       9.26682999      -0.00896508      -0.00346130       0.00264823
Cl      11.60822118      13.42482272      11.40665402      -0.00308704       0.00069482       0.00331628
Cl      13.19755283      14.89853999       9.47572504      -0.00446783      -0.00355047      -0.00120148
Cl      14.50496870      13.20190020      11.43308409      -0.00314039      -0.00272833      -0.00179783
C       13.05224838      13.38845921      10.40943775      -0.00484470      -0.00217210       0.00079738
Cl      18.75664699       9.83407358      -0.33423748       0.00558266      -0.00753149       0.00029776
Cl      19.02104403       8.49115365       2.22198936       0.00128436      -0.00230543       0.00339410
Cl      17.14554724       7.49188640       0.24806534      -0.00123744      -0.00186533       0.00486438
Cl      16.62139721       9.99284592       1.62403367       0.00547308       0.00273895      -0.00080208
C       17.88519163       8.95486042       0.94432310       0.00268751      -0.00258439       0.00190624
Cl      14.00777793       2.42385764      17.33341327      -0.02072521      -0.02393812      -0.02838948
Cl      13.04732391       4.43002372      15.45947064      -0.00651816       0.01337273       0.00855058
Cl      15.77733117       4.52353588      16.47926930      -0.00348490      -0.03434813      -0.00129029
Cl      13.50905368       5.15588433      18.21697602       0.01440949      -0.03634476       0.01811253
C       14.03530650       4.15942022      16.88005286      -0.00317261      -0.02205107      -0.00029027
Cl      15.40873365      10.02692834      16.96943386       0.00036025      -0.00187661       0.00260422
Cl      13.45201232      11.70859528      18.27420887       0.00196633      -0.00090873       0.00406700
Cl      13.47729478       8.86229812      18.79937522       0.00131307      -0.00123006       0.00384393
Cl      12.61866895       9.85156848      16.21353245      -0.00068283      -0.00027707       0.00535887
C       13.73314297      10.11842545      17.55559691       0.00064595      -0.00128999       0.00435683
Cl      18.68337963       0.72751178       8.82561461       0.00392805       0.00547378      -0.00251864
Cl      18.96156334       2.57314379       6.61520404      -0.00229999       0.00114565      -0.00659129
Cl      17.42767564       3.34707352       8.95510881       0.01228702       0.00927176      -0.00014797
Cl      16.39987644       1.31781189       7.14904836      -0.00322199       0.00925747       0.00865896
C       17.86350058       1.99607056       7.86913173       0.00244155       0.00627574      -0.00014751
Cl      16.70311670       5.03103367       3.17110281       0.00203508       0.00040385       0.00537640
Cl      15.60427262       5.02291070       5.85355360      -0.00317213       0.00732391       0.00335968
Cl      13.82121967       5.02247453       3.56147898       0.00135958      -0.00336596       0.00029755
Cl      15.36684510       7.39140136       4.19057058      -0.00390805       0.00129914      -0.00486244
C       15.37608312       5.62002868       4.20066852      -0.00086209       0.00137568       0.00084193
Cl       1.29963112      13.08417459      13.38101782      -0.00971259      -0.00278947       0.00815022
Cl       1.37563824      12.63988074      16.24925802      -0.00915815       0.01035821       0.00851509
Cl      -0.26421208      14.76869037      15.15576243       0.00049156       0.01463541       0.00115821
Cl       2.62627350      14.99354135      15.10740392       0.00159979      -0.00096315      -0.00298992
C        1.25894122      13.87704496      14.97150796      -0.00427461       0.00545612       0.00328099
Cl       3.68334650      12.18071312       8.95354628      -0.00391972       0.00340328      -0.00507623
Cl       5.08523665      12.58730801      11.45869733      -0.00227496       0.00231838      -0.00576925
Cl       6.58501159      12.12658943       9.02582082      -0.00393850       0.00286108      -0.00700730
Cl       5.06076259       9.97415132      10.22908333      -0.00365293       0.00285274      -0.00643981
C        5.10516147      11.72056692       9.91304968      -0.00349705       0.00287408      -0.00605267
Cl      17.56640871      11.51007171       9.63017855       0.00180255      -0.00431740      -0.00784466
Cl      17.93678747      14.37821834       9.73582825       0.00359346      -0.00453955       0.00115103
Cl      16.38480893      13.20224446       7.59082123      -0.00411838       0.00388588       0.00257874
Cl      19.25486062      12.82334070       7.66778931      -0.00379431       0.00189764      -0.00810254
C       17.78275666      12.97500159       8.65644354      -0.00075173      -0.00066430      -0.00303012
Cl       2.82723096       0.89936329      12.83601182       0.00044501      -0.00105459      -0.00472730
Cl       0.39622844       2.26496511      12.19408654       0.00281596       0.00128067      -0.01124029
Cl      -0.29680911       3.00722493      15.11930627      -0.01856843       0.03908240       0.01259029
Cl       0.43594187      -0.59379635      12.27255850      -0.00028270       0.00103557      -0.00145105
C        1.22161747       0.87250814      12.40371064       0.00097146       0.00009999      -0.00421618
Cl       5.19509353       0.95740011      10.30272694       0.00354207       0.00228171      -0.00358486
Cl       7.96529031       0.13781657      10.54273129       0.00406456       0.00351444      -0.00279968
Cl       7.15107436       2.75090970      11.47571438       0.00189602       0.00218046      -0.00060719
Cl       7.20392313       2.19106760       8.62947377       0.00420160       0.00529784      -0.00108123
C        6.89565161       1.50467765      10.24111878       0.00378066       0.00335175      -0.00210613
