196
Lattice="13.906439529646462 0.0 0.0 0.0 13.906439529646462 0.0 0.0 0.0 13.906439529646462" Properties=species:S:1:pos:R:3:forces:R:3 energy=-756583.6875 stress="-0.0029715565033257008 -0.0008444244449492544 0.0009258836216758937 -0.0008444244449492544 -0.0011327535612508655 0.0003559824835974723 0.0009258836216758937 0.0003559824835974723 -0.0031197243370115757" pbc="T T T"
Er      15.41340209      12.69778357       2.44619369      -0.00095862      -0.00754352       0.00532566
O        5.78521492      11.04823647       1.47209852      -0.00508916      -0.02737355       0.00581980
O        4.69103498      10.73866169       3.81109758       0.00244880       0.00529039       0.00324702
O        3.56811457      12.33814862       2.03578691       0.00602373      -0.02348378       0.00265434
O        5.81829329      13.00738939       3.19115646      -0.00769240      -0.02190828      -0.01845652
Mn       5.01296489      11.77061056       2.63985167      -0.01391786      -0.00405303       0.01689118
O        8.57223209      13.77570709       6.87714145       0.01120622       0.02060533      -0.00652289
O        6.98641301      12.15220032       5.60669871      -0.00879252       0.03087234       0.00638461
O        9.58220282      11.81158556       5.49593613      -0.01327503       0.00639999      -0.00161247
O        8.50059901      13.83975505       4.28682245       0.00111204       0.00988674      -0.00706565
Mn       8.40451081      12.89120540       5.56322199      -0.00406050       0.01783475      -0.00348011
O        9.95847776      12.14498526      12.69552345       0.00401449       0.00128949      -0.00019395
O        7.59083153      11.14288041      13.13723524       0.00631642      -0.00030899       0.01061749
O        8.99701014      10.28799863      11.14495891      -0.00244665       0.00335860       0.00318992
O        7.96585994      12.70486828      11.09040456      -0.00200212       0.00283194       0.01196837
Mn       8.62861097      11.57228020      12.00892942       0.00343999       0.00198475       0.00439204
S        9.93435099       8.54691717       6.20106429       0.01622385       0.01379378       0.00260639
O       10.88281159       8.70821049       7.35882362       0.01139402       0.00853764       0.00726724
C        8.29770626       8.93165377       6.79166800       0.01490277       0.01952927      -0.00703233
C        9.71463731       6.76106730       6.05586540       0.00753063       0.01568425       0.00003104
H        8.23720571      10.01493582       6.83623204       0.02125335       0.01925904       0.00136933
H        8.19854407       8.51328497       7.79474666       0.00328913       0.01211106      -0.01162896
H        7.58089814       8.51060358       6.08612049       0.01838227       0.02905860      -0.01576012
H        8.91409256       6.55035382       5.34620464       0.00744162       0.02016637      -0.00093590
H        9.49035635       6.36632434       7.04609513       0.00334954       0.01659504      -0.00080085
H       10.65676440       6.34059499       5.71075913       0.00518228       0.00966146       0.00177704
S        1.31851352       9.96860554       0.11612051      -0.01585510       0.00301188      -0.00116169
O        0.85230856      11.13230263       0.99420343      -0.01164824      -0.00319955       0.00725368
C        0.48456925       8.52670880       0.74326874      -0.02111191       0.00217900      -0.01214623
C        2.97371942       9.54208474       0.64477387      -0.01744851      -0.00720373      -0.00346377
H       -0.57586007       8.63565001       0.53412749      -0.02110744       0.00902632      -0.00814251
H        0.68980342       8.45278468       1.81167901      -0.01871206      -0.00792389      -0.01368600
H        0.85791571       7.65845098       0.19930422      -0.02769027       0.00516306      -0.02058497
H        3.23855080       8.61036243       0.14478568      -0.02088449      -0.00580679      -0.00695790
H        2.99503357       9.43008828       1.72894809      -0.01954088      -0.01169549      -0.00433069
H        3.65747728      10.32786393       0.33715597      -0.01429912      -0.00864762       0.00110046
S        3.83019000      13.20514701      11.41922309      -0.01164198       0.00748074       0.01352382
O        2.97874184      14.19607387      12.16170768      -0.00909984      -0.00189769       0.02716947
C        2.73414544      11.84388054      10.96687460      -0.01006788       0.01033819       0.00354640
C        4.79019661      12.33577636      12.65713803      -0.00550643      -0.00510815       0.00004143
H        2.09468115      12.19843288      10.15902005      -0.01543550       0.01779407       0.01133487
H        2.11819193      11.59532303      11.82942376      -0.00483678      -0.00210178       0.00330894
H        3.34948332      11.00691089      10.63692047      -0.00965160       0.01554172      -0.00851076
H        5.17869560      11.40930434      12.24044934      -0.00779194      -0.00071763      -0.01137114
H        4.14558270      12.20003221      13.52552430      -0.00208512      -0.01500941       0.00080013
H        5.63543882      12.95885034      12.93585949      -0.00532207      -0.00719190       0.00343806
S        6.73914388       3.26615287      12.98759100       0.00587559      -0.00891951      -0.00055432
O        6.64909993       3.15072457      14.46964778       0.00033733      -0.00643201      -0.00122368
C        5.46178723       4.45363102      12.49313960       0.00818503      -0.00956008      -0.00638887
C        5.99276414       1.79941542      12.26318955       0.00741929      -0.00915194      -0.00106770
H        5.77357724       5.42325628      12.87577157       0.00775506      -0.00895685      -0.00807574
H        4.50470773       4.16853844      12.92795438       0.00776397      -0.00835960      -0.00700454
H        5.39491626       4.49453872      11.40701945       0.00970516      -0.01239558      -0.00644273
H        5.82223176       1.96684696      11.20113232       0.01740126      -0.01222426      -0.00307694
H        5.04522763       1.58100332      12.75414185       0.00277694      -0.00365603      -0.00774565
H        6.70653884       0.98558185      12.38550332       0.00374378      -0.01084678       0.00783659
S        6.26214655      10.78619498       8.95414096      -0.00361180      -0.01877474       0.01021409
O        5.41211257      10.43943825      10.14436091      -0.01971912      -0.02137268      -0.00126791
C        6.00840966      12.52954292       8.59724613       0.01377317      -0.01531053       0.02403239
C        5.31977858      10.14629919       7.55324623       0.00863546       0.00027248      -0.00504720
H        6.62553713      13.08395405       9.29975337       0.00941914      -0.02840640       0.03747638
H        4.95339468      12.76442179       8.74655489       0.01432131      -0.00793035       0.01318414
H        6.33116265      12.72017106       7.57372246       0.02785000      -0.00714529       0.03045850
H        5.68874377      10.55571715       6.61248595       0.01746665       0.01316752       0.00430897
H        4.27271548      10.40396311       7.72770491       0.00801421       0.00027686      -0.01137763
H        5.43282927       9.06296838       7.55577563       0.00662535       0.00041233      -0.01971358
S        9.34013758       7.46379053      12.81302858       0.00767621      -0.00401440       0.01292849
O        9.54267970       7.62163242      14.28471994      -0.00083145      -0.01989634       0.01590681
C        7.60986207       7.83847034      12.46930505       0.01153266       0.00255352       0.00610216
C        9.24166167       5.67483160      12.63036962       0.00475992      -0.00142443      -0.00719126
H        7.49194504       8.91974720      12.53335195       0.00871744       0.00031671       0.02989654
H        6.98500123       7.34467535      13.21256338       0.00365101      -0.01489732      -0.01297584
H        7.36110631       7.50930542      11.45950075       0.02248704       0.02691685      -0.00383361
H        8.95195127       5.37447972      11.62487458       0.00424559       0.01078023      -0.01042316
H        8.53230849       5.30498279      13.36995302       0.00332558      -0.00759538      -0.01210293
H       10.23852431       5.30420381      12.86153065       0.00323460      -0.00748274      -0.01096903
S        9.07016738      10.19735921       1.65243327      -0.00895576      -0.00669995       0.01258183
O        8.74861409       9.57239991       2.97041016       0.01651731       0.00126338       0.02275848
C       10.86960213      10.08348630       1.48937314      -0.01276839       0.00273452      -0.01635530
C        8.94341381      11.97382962       1.85589536      -0.01337042      -0.00580466       0.00002056
H       11.05367606       9.09938651       1.06521841      -0.01341981       0.00140627      -0.01270184
H       11.29779679      10.15421369       2.48779842       0.00216469       0.01073278      -0.02366659
H       11.23683544      10.86089979       0.82054541      -0.02798757       0.00137625      -0.02549792
H        9.47519131      12.45164463       1.03194911      -0.02893283      -0.01153773      -0.01276761
H        9.32962429      12.25634425       2.83013011       0.00236444       0.00495462      -0.00978878
H        7.88917452      12.22908651       1.80279450      -0.01406150      -0.00841208       0.01618700
S       12.95346918      13.23199000       4.80664363      -0.00662965       0.00415039       0.00043660
O       14.06016046      13.84480515       3.92001279      -0.00583959      -0.00319976      -0.00253272
C       11.86273045      12.48356790       3.63504049      -0.00705656      -0.00085755       0.00458997
C       11.92812607      14.58906911       5.34698832      -0.00333849       0.00964665      -0.00872092
H       12.44676713      11.70273535       3.15274498      -0.00796671      -0.00454728       0.00997238
H       11.51788404      13.24025835       2.93137150      -0.00451820      -0.00458857      -0.00031912
H       11.03019931      12.02825243       4.18091149      -0.00874355       0.00440013       0.00587186
H       11.09162218      14.14914979       5.89378153      -0.00496782       0.01613598      -0.00649790
H       11.56790331      15.16136613       4.49420228      -0.00131300       0.00475081      -0.01263314
H       12.52513817      15.20421429       6.01751705      -0.00130013       0.01203590      -0.01286768
S        8.31100542       4.01694338       8.02012081       0.00820506       0.01054549      -0.00458097
O        8.04487640       2.93047709       7.04209486       0.01815382       0.02245843      -0.01939523
C        7.64747030       3.45407412       9.60111055       0.00418338      -0.01230964      -0.01526970
C        7.07401424       5.30324697       7.75901908       0.00429124       0.00771448       0.00472634
H        8.25753855       2.62686980       9.95774072       0.00547285      -0.01546556      -0.02581565
H        6.62216444       3.12548715       9.42793203       0.00561988      -0.01229206      -0.02214038
H        7.67612642       4.27181204      10.32050622       0.00112618      -0.02257539      -0.00397564
H        7.25645831       6.11260701       8.46857159      -0.00119171       0.00090929       0.01339407
H        6.07199651       4.89172499       7.87237183       0.00545603       0.00303753      -0.00283215
H        7.19444026       5.67035151       6.74121808       0.00669569       0.01783967       0.00887460
S        2.40074744       3.23870538      11.27021973      -0.00606275      -0.00144839       0.01045376
O        1.63750816       4.26396094      12.05534247      -0.00124121       0.00354707       0.00803733
C        2.88964996       4.04544179       9.73717688      -0.00733142      -0.00897691       0.00670046
C        1.20146727       2.12720459      10.51570386      -0.01175439      -0.00041249       0.01905978
H        3.51172645       4.89765931       9.99894958      -0.00349345      -0.01069220       0.00214973
H        2.01562388       4.39193660       9.18747882      -0.00726327      -0.00749992       0.00783173
H        3.46662387       3.36518641       9.11386408      -0.01129750      -0.01335299       0.00814603
H        1.72226535       1.51700282       9.77822498      -0.01761713      -0.00443396       0.01876009
H        0.41377895       2.72314329      10.05338110      -0.01154219       0.00040305       0.02034462
H        0.82019027       1.48385326      11.30255599      -0.01049924       0.00370587       0.02278167
S       10.76773707      12.05542131       8.41357611      -0.00922728       0.00930774      -0.00045419
O        9.46810126      11.35144339       8.48607117      -0.01264334       0.01551688       0.00051463
C       11.88565652      11.22701655       9.57102389      -0.01162276      -0.00073633      -0.00652015
C       10.59912210      13.60264945       9.33716268      -0.00058238       0.00614446       0.00491929
H       12.11636854      10.26252968       9.12193433      -0.02120800      -0.00088628      -0.01038963
H       11.36897711      11.09570264      10.52237668      -0.00920233       0.00043476      -0.00527902
H       12.79047882      11.82469709       9.69249643      -0.00711387      -0.00764087      -0.00832408
H       11.55303391      14.13240090       9.31956974       0.00223224       0.00076941       0.00795231
H       10.27714360      13.39374044      10.35676742      -0.00258098       0.00393145       0.00363390
H        9.83765445      14.16370842       8.79838237       0.00342922       0.01244888       0.00633955
S        6.49537617       7.47292764       3.16611799      -0.00023377       0.00162983       0.00878835
O        6.94367279       7.00037175       4.51858513      -0.00810769      -0.00542057       0.00817823
C        4.73919933       7.07469398       3.10622997      -0.00004441       0.00561872      -0.00703605
C        6.98920151       6.18402030       2.01472168       0.00444096       0.00876820       0.00376830
H        4.23986705       7.78540746       3.76180448      -0.00557414       0.00192299      -0.00773558
H        4.62080452       6.04448996       3.44754285      -0.00598861       0.00375909      -0.01583416
H        4.37224290       7.19375736       2.08709226       0.01097579       0.01334773      -0.00977599
H        6.47518447       6.35144015       1.06954158       0.01155151       0.01822108       0.00189972
H        6.70207038       5.21448902       2.41749656      -0.00081278       0.00662945      -0.00555594
H        8.06222769       6.27349081       1.85456053       0.00535917       0.00704198       0.01095939
S        2.83055885       1.83133724       2.53969214       0.00293946      -0.00615218      -0.00114840
O        1.83039280       0.89693431       1.82907341       0.00603026      -0.01111299       0.00214225
C        1.80100806       2.99376946       3.43128886      -0.00169656      -0.00888291      -0.00327839
C        3.44587230       2.89337517       1.25239508      -0.00296587      -0.00589588      -0.00351870
H        1.18741126       2.39549479       4.10223405       0.00052880      -0.01034124      -0.00279401
H        1.17767964       3.54467915       2.72838563      -0.00383613      -0.01265807      -0.00399809
H        2.47898442       3.63796685       3.98670676      -0.00492278      -0.00511275      -0.00409968
H        4.10445856       3.61858321       1.72698953      -0.00119886      -0.00609459      -0.00595911
H        2.60824357       3.34030675       0.71565632      -0.00433132      -0.00466955       0.00017058
H        4.03506906       2.25512970       0.59993194      -0.00646345      -0.00582504      -0.00653524
S        2.52561303      11.21102901       5.58169773       0.00246900      -0.00196761       0.00991780
O        1.83503326      11.46174472       4.25395511       0.00854638       0.00917517       0.00960457
C        1.23456060      11.40484811       6.82032558      -0.00160789       0.00474793       0.00411355
C        3.43246828      12.72132767       5.91180615       0.01439172      -0.01224291       0.01993325
H        0.41123145      10.76441366       6.50662153      -0.00235620       0.00799450       0.00021254
H        0.89507990      12.43625539       6.87627219       0.00311553       0.00650665       0.00038769
H        1.64476634      11.07531125       7.77597608      -0.00800711       0.00356324       0.00625901
H        3.74121153      12.73576703       6.95429044       0.00565686      -0.01790827       0.02236728
H        2.76464197      13.55654153       5.69356207       0.02490717      -0.00491989       0.01694140
H        4.31558920      12.72768551       5.27522338       0.01895359      -0.02030902       0.02640809
S       13.63627956       8.38816832       4.34789212       0.00287080      -0.00815129      -0.01994371
O       13.22116477       9.82241128       4.33321435       0.01677823      -0.00429463      -0.02383441
C       12.28811726       7.42522898       3.63216712      -0.00879717       0.00339791      -0.01177244
C       13.47738850       7.81935581       6.05365756       0.00617643      -0.00090313      -0.01785952
H       12.32320044       7.56221984       2.55458176      -0.01106519      -0.00021183      -0.01212396
H       11.34083587       7.80404045       4.01550743      -0.00373466       0.01377229      -0.01012655
H       12.43396223       6.37241634       3.87151741      -0.01800745       0.00294247      -0.00932077
H       13.51916048       6.73091380       6.07744591      -0.00021700      -0.00086769      -0.01501101
H       12.54230645       8.19252759       6.48444686       0.01119280       0.00553347      -0.01404186
H       14.32655933       8.22490588       6.60189877       0.01129729      -0.00489658      -0.02324753
S       12.42406954       6.08954406      11.01760673       0.00972115       0.00211763       0.00787365
O       12.38359908       6.77960547      12.34201094       0.01205449       0.00183725       0.00820315
C       13.97941642       6.56837462      10.24600576       0.00645012       0.00511342       0.00433630
C       11.36066173       7.01139119       9.88894577       0.00543916       0.00067586       0.01085708
H       14.76638296       6.09656190      10.83355838       0.00843010       0.00763427       0.00331379
H       14.05512218       7.65629306      10.25989470       0.00336161       0.00506634       0.00221001
H       13.98847075       6.19012677       9.22324274       0.00589087       0.00455723       0.00485382
H       11.57071183       6.72839542       8.85939967       0.00469006       0.00368945       0.01000474
H       11.52173406       8.07915815      10.02349343       0.00242221       0.00066715       0.01300893
H       10.32539354       6.77611732      10.12169720       0.00678478      -0.00324339       0.01176120
S        5.86856971       3.36268544       4.94178528      -0.00231898       0.00755760      -0.00351620
O        4.78252541       3.74450478       3.95687814      -0.00697255       0.00355497      -0.00007570
C        7.30733726       2.87879878       3.98407115      -0.00567573       0.00842172      -0.00795263
C        5.45842633       1.70784287       5.51904207       0.00324273       0.00816935       0.00112884
H        7.82603325       3.78478339       3.67949008      -0.00807960       0.00841597      -0.01092757
H        6.97399588       2.31279596       3.11552073      -0.00790630       0.00656682      -0.00562383
H        7.94413518       2.27355878       4.62468606      -0.00233927       0.01071319      -0.00945005
H        6.23870138       1.39600350       6.21324187       0.00733441       0.01075558      -0.00266945
H        5.40595954       1.03165380       4.66535672      -0.00009368       0.00610073       0.00319815
H        4.49878528       1.78571665       6.02846168       0.00610369       0.00755978       0.00599497
S        3.85777611       6.53042769       6.76153840       0.00773525      -0.01148593       0.00429833
O        3.94881685       5.17430371       7.38216964       0.00243001      -0.00857854       0.01104164
C        2.93601982       7.55502168       7.93553160       0.01001686      -0.00260785      -0.00272238
C        2.55348401       6.38572243       5.53338458       0.00994188      -0.01426151       0.00290206
H        3.57365059       7.71472979       8.80366046       0.00937228      -0.00070365      -0.00275862
H        2.02469111       7.03259590       8.22469307       0.00733230       0.00301076      -0.00164402
H        2.71264302       8.51821276       7.47673541       0.01547794      -0.00406171      -0.00806491
H        2.30029373       7.35963220       5.11655611       0.01214598      -0.01594138      -0.00175435
H        1.69346549       5.92176605       6.01502106       0.00839584      -0.01099505       0.00306886
H        2.94656756       5.73806334       4.75474438       0.01105814      -0.01802368       0.00681485
