200
Lattice="12.828839316779609 0.0 0.0 0.0 12.828839316779609 0.0 0.0 0.0 12.828839316779609" Properties=species:S:1:pos:R:3:forces:R:3 energy=-478418.75 stress="0.0011462632101029158 -0.0001709046700852923 0.00018774728960124776 -0.0001709046700852923 0.002185240387916565 0.00012738944496959448 0.00018774728960124776 0.00012738944496959448 0.0019112385343760252" pbc="T T T"
Er      10.70507376      13.69003270      -0.52846966       0.01735512      -0.02525008      -0.01239781
Cl       6.19248194      13.33478999       1.99000210      -0.00204881       0.00545024      -0.00298944
Cl       2.43872517      12.58733605      10.00223427      -0.01428173      -0.00538609       0.01098969
Cl       9.39850527      12.13741252      10.77600825      -0.01198491       0.00084923      -0.00962938
N        9.84017846       8.62731803       5.59157984      -0.00158346      -0.00343487       0.00498778
H        9.33678501       9.48129320       5.81400201      -0.00040365      -0.00653862       0.01914232
H        9.12865031       7.94766963       5.34227608      -0.00444135      -0.00231557       0.00198973
H       10.34121892       8.82823384       4.72752968      -0.00786261       0.00140626       0.00447340
N       11.61597997       6.72222566       0.12401380       0.00645688      -0.00040495       0.00327379
H       11.47668731       6.51257943      -0.86031926       0.00136968      -0.00475372       0.00080876
H       10.72389607       6.63242582       0.61227454       0.00683093      -0.00365658      -0.00097280
H       12.20548654       5.98872746       0.50264886       0.00714949       0.00436283       0.00211884
N        9.41898471       2.83496298      11.55283885      -0.00152928      -0.02671731      -0.00191391
H        8.51345737       2.84842314      12.01705688       0.00376680      -0.01328813       0.00465117
H        9.20943966       2.71447214      10.54444675      -0.00306579      -0.01606437      -0.00394145
H        9.75154117       3.79384508      11.64429453       0.01541395      -0.03183204       0.00866351
N        8.52530617       6.31271786      11.09464466       0.00037676      -0.00780746      -0.00723939
H        8.07595396       6.11926347      11.98362118       0.01579972      -0.00680090       0.00065377
H        7.78606062       6.57049877      10.44363458      -0.00185826      -0.01630861      -0.00185383
H        9.07785397       7.15050753      11.23784525      -0.00102667      -0.00303076      -0.00875409
N        9.96658354       1.61080077       4.73027121      -0.00920995      -0.00110498      -0.00209722
H        9.20218866       2.13246714       4.31357106       0.00576204       0.00448588      -0.01078848
H       10.51002737       2.28377318       5.26348603      -0.01460929      -0.01438493       0.02598296
H        9.52770605       0.98774994       5.41775899      -0.01926305      -0.01888313      -0.02343270
N       11.28415371       4.08593659       2.65347645       0.01536876       0.01681200       0.00761974
H       11.50062593       4.87410104       3.26467231       0.01915648      -0.00045670       0.03056833
H       11.06161319       3.31644149       3.27868544       0.03051678      -0.00600449      -0.01735639
H       10.39997581       4.31688708       2.20869989       0.00655968       0.02566975       0.02678244
N       -0.03782761       9.55862004      11.79055923       0.03784680      -0.01563418      -0.01429239
H       -0.48116737       9.39243417      10.89453077       0.00445417       0.01902052      -0.00036738
H       -0.15056328       8.69867897      12.32482436      -0.00128631      -0.00806316      -0.01983312
H        0.94742570       9.69980353      11.59878684      -0.02214145       0.02021533       0.02828513
N        6.42974628       7.99477448       8.87323339      -0.00350489       0.01279202       0.00989155
H        7.15634399       8.59018971       9.25656247       0.00513255      -0.00107400       0.00544845
H        5.55262339       8.46177856       9.11396879       0.00048375       0.02571149       0.00378790
H        6.50695486       8.08059001       7.86291487       0.00139007       0.00724454       0.00768861
N       -0.55847463       1.15484833      10.44805308      -0.01594374      -0.00990089      -0.00709236
H       -1.06263719       0.76691533       9.65213140      -0.00343151      -0.01222902      -0.01213861
H        0.31661515       0.60780105      10.47804206      -0.01338175      -0.00485276      -0.00018813
H       -0.23663750       2.07342997      10.13350266      -0.02214158      -0.00803870      -0.00934812
N        3.02768044       1.20867257       6.89859964      -0.00732702      -0.00047849      -0.00261503
H        3.48441241       0.53724263       6.27531792      -0.00382154       0.00305074      -0.00418308
H        2.05408661       1.23281509       6.61284410      -0.00691539      -0.00084269      -0.00208694
H        3.01675605       0.78800540       7.82765681      -0.00167622       0.00196174      -0.00114018
N       11.85036982      12.01259426       3.77560872      -0.03261405      -0.00185555       0.00126407
H       11.17241915      12.70468197       4.09605067      -0.03907138      -0.01214232       0.00233353
H       12.56028476      11.95281660       4.49744487      -0.02460580       0.00291042      -0.00746811
H       11.40230438      11.10139999       3.75592341      -0.01969094      -0.01271990       0.00472217
N        1.85318150       9.66156999       2.30588980       0.00430393       0.00504881       0.00834137
H        1.99672106       8.70451903       2.00332380       0.00275876       0.00757965       0.01335705
H        2.35973864       9.77566483       3.17675101       0.00344400       0.02157132       0.01042682
H        2.30286859      10.28093064       1.62898484      -0.00834434       0.00977002       0.00348446
N       11.67834367       8.81862561       2.80885980       0.00066864      -0.00368775       0.00278075
H       11.93192465       8.02147304       3.38855045      -0.02457863      -0.01942614      -0.00613012
H       12.55470584       9.32273272       2.65218738       0.00930246      -0.01146032       0.02123481
H       11.46002243       8.40098569       1.90654886       0.00528217       0.01989947      -0.00803357
N        2.26405844       6.85989993       4.90391245      -0.00236835       0.00457099      -0.00090235
H        2.24402615       7.86720515       4.79490380       0.01112271       0.00453597      -0.00959804
H        2.22467304       6.44182547       3.97323547      -0.01349195      -0.00174535       0.00128761
H        3.18047992       6.64108594       5.28817605      -0.00413694      -0.00343299      -0.00498876
N        5.16950475       3.75442321       0.62513849       0.00022167      -0.00367874       0.00827459
H        4.50584942       3.68041760       1.39298760       0.00118547       0.00859604       0.01111532
H        5.61784225       2.84170113       0.58826935      -0.00003824      -0.00006405       0.01559733
H        4.61030699       3.84803160      -0.21483396      -0.00227846      -0.00485343       0.00646947
N       11.17777224      10.68430890       7.99332327       0.03269055       0.00140798       0.00440571
H       10.69573654      10.81910303       8.87694104      -0.00071768       0.00097138      -0.01109314
H       12.16553575      10.59273663       8.19825625       0.00796727       0.01655104       0.01262082
H       10.87056916       9.80092732       7.59908022       0.01661290       0.00953347      -0.01170930
N        4.19344387      12.12701628       4.75804792       0.00553895       0.00338726      -0.00924596
H        4.20884294      11.12205103       4.89059894       0.00807795       0.00232829       0.00940412
H        4.95398322      12.35789297       4.12415080       0.01434854      -0.00472974       0.00486235
H        3.33394491      12.34394969       4.24708956       0.01171118      -0.01206177      -0.02604009
N        3.97543124       2.64419760       3.53803179      -0.00617112      -0.00393464      -0.00698909
H        3.46507165       2.04131300       4.17573180      -0.01574699       0.01921127       0.00843876
H        4.54302366       3.24078819       4.13150319      -0.01546797       0.02341706      -0.02415487
H        4.62554637       2.02460160       3.05110114       0.00173884      -0.01452386       0.01928949
N        8.88916756       2.07487873       8.67919676       0.01077758       0.01385412      -0.00648266
H        9.70426299       1.97844907       8.08244754      -0.00499766       0.02754279      -0.02556579
H        8.17941517       2.47923291       8.07704756      -0.00897858       0.00437635       0.00514597
H        8.59174220       1.12268757       8.87582686       0.02166108       0.01379173       0.00475058
N        9.24863977       6.79499283       2.37798570      -0.00462598       0.00179734      -0.00555867
H        9.62325293       6.30523001       3.18462125      -0.01210040       0.00249359      -0.00110195
H        8.24090250       6.62260169       2.36628225      -0.00611815       0.01196936      -0.01419415
H        9.36946548       7.78206122       2.57670575       0.00619049       0.00146593      -0.01157775
N        1.43113274       3.29547731       9.29722037      -0.01286039      -0.00047677       0.02510385
H        1.89417309       2.38996370       9.36636134      -0.01679680      -0.00137019       0.03471196
H        1.56609434       3.75251623      10.19333718       0.00889343       0.01987847       0.01222810
H        1.98419738       3.83228698       8.62449361      -0.02274839      -0.01585834       0.00482668
N        8.68913481      12.19503307       6.44542634      -0.00374624      -0.01252602       0.00887182
H        9.53800858      11.83215368       6.87361785      -0.00417523      -0.00846139       0.00966931
H        8.55980280      11.72334172       5.54809076      -0.00404132      -0.01582302       0.00973825
H        7.90205646      11.94205548       7.04036574      -0.00963755      -0.00419386       0.00518244
N        2.48259050       9.95764693       6.66886977       0.01034957      -0.00726095      -0.00810969
H        2.74478245      10.63934528       7.37482165       0.02201366       0.01383049      -0.02902672
H        2.10992180       9.15158715       7.16764528       0.01585515       0.00551473       0.01304133
H        1.71392530      10.37802155       6.15889682       0.00539225      -0.01551513      -0.00625394
N        5.64329341      11.69360243       7.75940617      -0.00194976       0.00765308       0.00191892
H        5.18214803      11.90783970       6.87640894      -0.01348882       0.00662944       0.00700376
H        5.32102483      12.39300793       8.42110097       0.00802518       0.00955120       0.00573112
H        5.23600531      10.82139411       8.08715181       0.00485601       0.00831298       0.00800679
N       11.98978040       6.09285879       5.19917426      -0.00946588      -0.00324183      -0.00565821
H       11.86129501       5.28856426       5.80510295      -0.01267023      -0.00352300      -0.01111886
H       11.48250783       6.86535993       5.62363646      -0.00324859       0.00111738      -0.00113115
H       12.98445512       6.32371066       5.22201751      -0.00870005      -0.00454551      -0.00780366
N        1.82167960       0.10363771       2.89272045       0.03400296       0.01392807      -0.01665550
H        0.87413387      -0.26614929       2.90763084       0.03124787       0.01406833       0.00271803
H        2.29632097      -0.32687532       2.10262045       0.01727798       0.00542713      -0.02404104
H        1.76270340       1.09520024       2.69211445       0.03626845       0.00823050      -0.00901862
N        6.17144939       6.50017174       1.85411541       0.00277209       0.00010160      -0.01925357
H        5.45756518       6.82484287       2.49486130       0.01855576      -0.01107259       0.00585191
H        5.80681195       5.69241369       1.35145396      -0.01667692       0.01260444      -0.02685114
H        6.35460865       7.25467870       1.19989401       0.00265607       0.01448195       0.00041577
N        5.46938513       9.72053458       2.58181339       0.00548610       0.00782256      -0.00065255
H        5.48008495      10.73188458       2.46556542      -0.00112183       0.00753533       0.00108922
H        4.53937038       9.42205201       2.30730174      -0.00506697       0.00545688       0.03214757
H        6.11345259       9.35196440       1.88166126      -0.01493040       0.00328488      -0.01569517
N        7.98838746       3.66408185       2.51146153      -0.02477971       0.01616769      -0.00356328
H        7.52707954       4.38497530       1.96592755      -0.03934655       0.02052010       0.02105614
H        8.14304164       4.07778414       3.43194087      -0.01581337      -0.00182324       0.00387144
H        7.29737376       2.92549694       2.62617662      -0.00929615      -0.00207720      -0.00702840
N        8.28203831      10.92157683       3.56953288       0.00074921       0.00197431      -0.01180306
H        7.85915293      11.66347916       3.01450826       0.00561022       0.00440940      -0.00645945
H        7.63440566      10.14114833       3.53312537       0.00222615       0.00246526      -0.00845540
H        9.14008897      10.61952636       3.12422875       0.00977439       0.00109022      -0.00255811
N        6.62799661       1.80583876       5.70829576       0.01387067       0.01444277      -0.00222749
H        7.23808610       1.07884906       6.08049695       0.01649597       0.02145892       0.00918086
H        6.47569024       1.55163998       4.73488323       0.01024818       0.00010712       0.00280108
H        5.72282136       1.67976733       6.15293427       0.01444472       0.01887351      -0.00097345
N        4.46590405       5.42221846       9.64335588       0.01402420       0.00084027      -0.01717579
H        4.02460258       5.04428652       8.80683820       0.00931567       0.01693935      -0.02264570
H        5.03590542       4.68126107      10.03290680       0.01206071      -0.00963300      -0.01847587
H        5.10455540       6.16414825       9.36392537       0.00552420       0.00587008       0.00818140
N        7.62676044       9.17437956      13.20728647      -0.02035165      -0.00090480       0.00944753
H        7.14204839       9.67462443      12.45573167       0.00195754      -0.00402820      -0.00386252
H        8.32134968       8.57149248      12.78438819      -0.00969863      -0.00382400       0.01998976
H        8.13723886       9.87705506      13.73122515      -0.02803715      -0.00095752       0.01099014
N        3.61098203       9.35035966       9.71157769      -0.01326296      -0.01094779       0.00141390
H        3.73886847       9.04388274      10.66925588      -0.00305860      -0.03261437      -0.00109188
H        2.95722167       8.70256968       9.27629466      -0.01090730       0.00424717      -0.00677707
H        3.15578580      10.26324750       9.75596078      -0.00882942      -0.00910418       0.01697353
N        2.31552247       2.09349259      -0.32807158       0.00230932       0.00944635      -0.00197595
H        2.45479059       3.06137976      -0.60173875       0.00950129       0.00926065       0.00250406
H        2.47477971       1.49536037      -1.13967686       0.00037459       0.00781172      -0.00066906
H        3.04718922       1.88181948       0.34085586      -0.00159221       0.00358670       0.00274866
N       12.31968599       2.75395500       6.67960660       0.00104606      -0.00807327       0.00544159
H       12.13533922       1.75668364       6.71943010       0.02595820      -0.01163752       0.01849443
H       12.84232866       2.98403548       7.52577892      -0.00501461       0.00841300       0.00539264
H       12.95495802       2.88537698       5.89965879       0.00274351      -0.00018770       0.00796909
N        8.49759924       4.52101002       5.60267535       0.01508952      -0.02211984       0.02168581
H        7.89793160       3.71269473       5.78322276      -0.00924063      -0.00733582       0.00999878
H        8.22030469       5.25630320       6.24182957      -0.01327484       0.00559208      -0.01271100
H        9.44294407       4.25966297       5.85686900      -0.01386336      -0.01657995       0.00338195
N        5.48397667       6.07831750       5.99641529       0.01434174      -0.01345263      -0.00230534
H        5.65365418       7.08942658       5.97226797       0.00507101      -0.01325487      -0.02386848
H        6.06479332       5.66920118       5.27286911       0.01160391      -0.02320378      -0.00564198
H        5.84599309       5.74547405       6.88334015       0.01562334       0.00748582      -0.00209170
N        9.39675251       1.23494985       1.47713947      -0.00893492      -0.01425314      -0.00096905
H        8.46701033       0.79505733       1.49568136      -0.01080596      -0.01225978       0.01782501
H        9.16185386       2.21180906       1.71612812       0.00178111      -0.00775799      -0.01453596
H        9.85648089       0.89840599       2.32423064       0.00661385      -0.01460741      -0.00930110
N       11.32055170      11.60734010      13.41684411       0.00136977      -0.00064468       0.00429267
H       10.47355982      11.06059801      13.55742925      -0.00556168       0.00951003       0.00176945
H       11.74770320      11.68022255      14.34302314      -0.00436792      -0.00620871       0.00596783
H       11.92409582      10.97407866      12.85749057       0.00124355      -0.00225291       0.01118694
N        1.86839994       4.92083705       2.26157165      -0.00049721      -0.00585207       0.02717546
H        0.90524539       4.65780498       2.44838904      -0.00049771      -0.00835981       0.01997436
H        2.45563285       4.18059297       2.64520420       0.00018210      -0.00719228       0.02558469
H        1.97967573       4.87648677       1.25165443      -0.00278438      -0.01117752       0.02674234
N        3.03613937       4.36022800       6.91071329       0.00293417      -0.00288540      -0.01097001
H        3.81660682       4.87423233       6.50138101       0.00633383      -0.01005626      -0.01474285
H        2.23188306       4.59563703       6.33988059      -0.00000946       0.00924456      -0.00115537
H        3.20993286       3.35686900       6.81415638      -0.00637799      -0.00425997      -0.01534119
N        6.11208442      10.99068294      11.16643526       0.00742632       0.00820099       0.00265546
H        5.91724253      11.80545528      11.73888591       0.01626720      -0.00144460       0.00796371
H        5.32898862      10.88752084      10.53054727       0.00149248       0.00299320       0.00956228
H        6.92376975      11.23399542      10.60749153       0.00335248       0.00603690      -0.01214043
N       -0.39546321       1.81232632       0.85428193      -0.00995749       0.00559057      -0.00242597
H       -0.26961109       1.17609994       1.64022634       0.00105039       0.01011603      -0.00021790
H       -0.62578968       2.71124179       1.29584796       0.00520134       0.00661649       0.00175117
H        0.55304120       1.91503549       0.44318589      -0.01154110       0.00614047      -0.00249022
N        5.75807400       9.11427269       5.78670574      -0.01238067       0.00801909      -0.01348387
H        5.73312112       9.21766773       4.77050943      -0.01734234       0.02591950      -0.01314556
H        6.35327863       9.85685595       6.13988352      -0.01794206       0.00587882      -0.00475736
H        4.81710156       9.32258588       6.11812770      -0.01221782      -0.00138005      -0.00482956
N       11.31267485       6.05986374       9.52496201       0.00248231      -0.01666676      -0.01091543
H       11.80025885       5.19619893       9.31158655       0.00119296      -0.01469710      -0.00928148
H       11.11710068       6.49836729       8.63194859       0.00223850      -0.00085996      -0.00436690
H       10.40820089       5.80911423       9.92077468       0.00034668      -0.01048393      -0.00857640
N        2.67167016       5.70907904      12.14511019      -0.00090688      -0.00458997      -0.01300531
H        3.26088455       6.10050551      12.87278413       0.00508513       0.00638919      -0.02162145
H        1.87548953       6.33224389      12.06436284       0.00473424      -0.00282051      -0.02880415
H        3.20274317       5.76562549      11.26982644       0.00085513      -0.02251768      -0.01424412
N        1.50880452       7.16330065       8.19010740       0.00544025       0.00865847       0.00489739
H        2.14294903       6.40956515       8.43542254       0.01256833       0.01663771       0.01063060
H        1.23639108       6.97213312       7.22985753       0.01044992       0.00430751       0.00430067
H        0.68451420       7.05260402       8.77159451       0.00540906       0.00721485       0.00537412
N        3.51116753      11.60732093      13.20517710       0.00822838      -0.00504074      -0.00359866
H        4.15563479      12.30800101      13.57081176       0.00864019      -0.01033318       0.00587714
H        3.13331781      11.96343733      12.32666059       0.00446257       0.00633336       0.00172757
H        4.11308826      10.82988418      12.95271125       0.00290728      -0.00776840      -0.00641509
