196
Lattice="13.117166156314358 0.0 0.0 0.0 13.117166156314358 0.0 0.0 0.0 13.117166156314358" Properties=species:S:1:pos:R:3:forces:R:3 energy=-1136837.375 stress="-0.00015973793051671237 -0.00022001305478625 -0.0018561508622951806 -0.00022001305478625 -0.0015200958587229252 0.0003367733006598428 -0.0018561508622951806 0.0003367733006598428 -0.00044879229972139" pbc="T T T"
Es      12.99981354      10.70083420       0.66877068      -0.00631106       0.00269806       0.00364670
S        7.96670391      12.24032580       4.05638846       0.00628960       0.00957827      -0.00248587
F        5.78269843      10.77585522       3.56243441       0.01771082       0.00287277      -0.02262577
F        5.58464406      12.85525869       2.99003514       0.01308803       0.00315934      -0.01918536
F        5.54093909      12.29232887       5.08137453      -0.00200668      -0.00198546      -0.02100632
O        8.07058435      13.61387206       4.48377378      -0.00038815       0.01091468      -0.00165123
O        8.48712322      11.96791071       2.71519593       0.01472712       0.01117255       0.00152898
O        8.29407403      11.21742719       5.02752443       0.00305474       0.01159954       0.00057852
C        6.12996727      12.02207301       3.89800409       0.00880945       0.00361994      -0.01708461
S       12.96437660      10.58951360      10.65464346      -0.00419271       0.01854509       0.04314329
F       11.93186987      12.57279415       9.23283257      -0.00047715       0.00217569       0.00443635
F       14.08437180      12.62115730       9.43153914       0.00163197      -0.00579149       0.00012043
F       12.83777101      13.15837739      11.12224282       0.00649261       0.00251051       0.00094535
O       14.21890951      10.57588389      11.42808212      -0.01057312      -0.00357854      -0.00199209
O       12.92670724       9.75027611       9.49249052      -0.01335269      -0.01567373      -0.01226300
O       11.84947814      10.49564125      11.61002306       0.00403225       0.00880932       0.00249714
C       12.93554202      12.34735218      10.05435912       0.00128128      -0.00064248       0.00438809
S        7.40435540      11.95862637      11.46941310      -0.00140786       0.00631911       0.00541621
F        8.99534601      13.77651545      12.58848803      -0.00106343       0.00422972       0.00844058
F        9.93412640      12.56282879      11.07280691      -0.00246698       0.00915405       0.00387353
F        9.55224217      11.73791546      13.03976849      -0.00031097       0.00337639       0.00189668
O        7.64739400      10.55052891      11.20241370      -0.00193724       0.00613701       0.00509349
O        7.21934123      12.76772755      10.27538155       0.00038415       0.00640810       0.00400519
O        6.48860986      12.23302423      12.55659014      -0.00117731       0.00701702       0.00407219
C        9.05699937      12.54452645      12.07873675      -0.00118732       0.00542033       0.00499892
O        9.51740118       5.90217275       7.45181251      -0.00958899      -0.03142202       0.01815429
C       10.05328754       4.70334000       6.90938107      -0.00220048      -0.01931754      -0.00011510
C       11.38794976       4.99835472       6.26772713      -0.00959933       0.00441545      -0.00484267
H       10.17981454       3.95088593       7.69323634       0.01095474      -0.02884024      -0.01114583
H        9.37450211       4.28097625       6.15616097      -0.00265920      -0.01676142      -0.00121158
H       11.83453244       4.07103727       5.90777242      -0.00050370       0.01664935      -0.02531642
H       11.26937254       5.68347032       5.42556425      -0.02393234       0.01918119       0.00916599
H       12.06333646       5.44319429       6.99883624      -0.01089383      -0.00019982      -0.00076227
H        8.80153391       5.64610995       8.05440663      -0.00246199      -0.04417001       0.02265768
O        3.32809527       8.65030350       3.92603822       0.00013924      -0.00033563      -0.00444174
C        2.60564982       7.87689852       2.99200015       0.00065487      -0.00268987      -0.00283539
C        3.45171846       7.44541905       1.81019919       0.00001398      -0.00148475      -0.00367641
H        2.16162745       6.99312474       3.47994878       0.00330146      -0.00325471      -0.00131059
H        1.78451327       8.51090804       2.64623049      -0.00124845      -0.00493124      -0.00201333
H        2.84489003       6.98237048       1.02902047       0.00019506      -0.00337210      -0.00267538
H        3.95442342       8.30605981       1.37473880      -0.00292601      -0.00043815      -0.00494289
H        4.21267830       6.72893408       2.12025260       0.00243969       0.00073287      -0.00440635
H        4.23861407       8.29029767       3.97794845      -0.00075763      -0.00203896      -0.00169788
O        3.30083179       9.10265690      11.75688596      -0.00124359       0.00347583       0.00726693
C        4.46320460       9.65349191      11.09370073      -0.00117242      -0.00201666       0.00456730
C        4.15893054      10.95994710      10.39998213       0.00293534      -0.00324553       0.00026381
H        5.22763709       9.78968754      11.85441718      -0.00006244      -0.00140318       0.00335154
H        4.83874518       8.91002467      10.38322100      -0.00374724      -0.00549176       0.00671095
H        5.05723541      11.34852569       9.92221400       0.00372505      -0.00861097      -0.00216539
H        3.38701609      10.83282685       9.63703689       0.00152670      -0.00319038       0.00158191
H        3.81582238      11.70791581      11.11459492       0.00673853       0.00050427      -0.00202300
H        2.52755275       9.38350311      11.24583907      -0.00219431       0.00462435       0.00668992
O        2.23350875      10.17998375       0.83198972      -0.00396596       0.00472692       0.00732279
C        3.19543343      11.17658765       1.25205806      -0.00356829       0.00479811       0.00461837
C        2.68310969      12.56574103       0.95929827      -0.00055146       0.00439346      -0.00275832
H        3.37983032      11.02259706       2.31533760      -0.00568504       0.00901380       0.00558782
H        4.13119405      10.99685392       0.72007022      -0.00281125       0.00067768       0.00744238
H        3.45009734      13.30060631       1.21241660       0.00057571       0.00402553      -0.00598812
H        2.43684772      12.67427702      -0.09944385       0.00057745      -0.00079152      -0.00342008
H        1.78975719      12.79199213       1.55518401      -0.00067073       0.00882662      -0.00470153
H        2.61175534       9.74939579       0.01701281      -0.00484058       0.00424513       0.00754859
O        4.95149399       7.49571004       6.83746841      -0.00290256      -0.00431472       0.00041156
C        4.54356573       8.84798996       7.10191639       0.00164190      -0.00289744      -0.00159499
C        5.77283402       9.69213257       7.30128034       0.00483632      -0.00666749      -0.00467356
H        3.94333482       9.22337215       6.26624211       0.00182879      -0.00218557      -0.00145245
H        3.91891510       8.86609050       8.00399509       0.00275338       0.00093143      -0.00082421
H        5.49459643      10.72717047       7.49987655       0.00883649      -0.00543833      -0.00570955
H        6.35773932       9.32704989       8.14579360       0.00479772      -0.00761887      -0.00514856
H        6.40087688       9.68789913       6.41026040       0.00335328      -0.01017431      -0.00565335
H        4.14886319       6.95104775       6.77668843      -0.00408205      -0.00241533      -0.00056223
O        7.73343855       6.77203853      11.80843797       0.00272556       0.00263134      -0.00140041
C        8.25789534       7.42008822      10.63927833       0.00011981       0.00867562       0.00085282
C        9.75967914       7.56813234      10.70919174       0.00182986      -0.00300463      -0.00632018
H        7.96923935       6.78433830       9.80369185      -0.00898954       0.01811659      -0.00311354
H        7.78621646       8.39668788      10.51381034       0.00639048       0.01305646       0.01216277
H       10.15295821       7.93436644       9.76011551      -0.00113606       0.00243963      -0.00569344
H       10.03585060       8.28578524      11.48226945       0.01146636      -0.01198862      -0.00174752
H       10.22757409       6.60566930      10.92488257      -0.00410749      -0.00829388      -0.01805972
H        8.13471948       7.13140507      12.62065434       0.00290185      -0.00010904      -0.00014985
O        8.81128287       7.82767927       1.02793829       0.00129454      -0.00028479       0.00174922
C        8.25723844       9.16310040       0.92374379      -0.00153509      -0.00148647       0.00074963
C        6.75990911       9.20244832       1.09173995      -0.00266421      -0.00662977      -0.00859478
H        8.72064092       9.81962557       1.65785168      -0.00707898      -0.00164360       0.00452948
H        8.53367366       9.50133401      -0.07139104       0.00357880       0.00109218       0.00307423
H        6.42699875      10.22172993       0.88822476      -0.00494216      -0.00747648      -0.00843249
H        6.27309379       8.52557111       0.38803270       0.00410030      -0.00678626      -0.01302062
H        6.46399378       8.94855279       2.10902185      -0.00826356      -0.00996678      -0.01109779
H        8.62533314       7.48170475       1.90714498      -0.00246577      -0.00154588       0.00035971
O        6.04328335       4.77455250      11.47140674       0.01035567       0.00034517      -0.01417381
C        6.30541769       3.91706184      12.57846902      -0.00251356      -0.00024083      -0.01107153
C        7.68763960       3.30730898      12.52178597      -0.00017387       0.00394452       0.00669193
H        6.17402733       4.47704633      13.51494145      -0.01669551      -0.00126094      -0.01249468
H        5.54606575       3.13088879      12.56009782       0.00013492      -0.00245437      -0.02203784
H        7.86274967       2.67549206      13.39203246      -0.00978585       0.00352657       0.00826305
H        7.79481165       2.68907249      11.63151959       0.01286277       0.00544025       0.00729246
H        8.44720060       4.09061199      12.49342446      -0.00214113       0.00621726       0.01746808
H        6.58711204       5.58288738      11.62071181       0.00789610       0.00077376      -0.00713868
O        7.54560168       4.57598764       9.06452539       0.00121945      -0.00318265      -0.00208592
C        6.95824153       3.66558519       8.13312410      -0.00114341      -0.00399011       0.00048621
C        7.17337976       2.22080177       8.52486866       0.00430612      -0.00278425       0.00122637
H        5.89221661       3.89085103       8.01489816      -0.00198114      -0.00580570       0.00551328
H        7.41982117       3.87960003       7.17018758      -0.00610214      -0.00297509      -0.00168848
H        6.86387495       1.54804654       7.72293102      -0.00039849      -0.00536425       0.00529669
H        8.22903549       2.02729132       8.71676060       0.00626780       0.00021322      -0.00645076
H        6.61754870       1.95227205       9.42341348       0.01186877      -0.00160289       0.00613010
H        7.04345627       4.53071860       9.90021271       0.00300817      -0.00054915      -0.00031126
O        2.12138065       3.98979382       8.74121149       0.00692996      -0.00034696      -0.00226271
C        2.94352143       4.12177861       9.90327319       0.00618491       0.00117499      -0.00201416
C        3.01845332       5.54652497      10.40865685       0.00289798       0.00119501      -0.00177871
H        2.49302114       3.46497734      10.65043085       0.00730336       0.00023124      -0.00225478
H        3.95006380       3.74234870       9.70051981       0.00703138       0.00347945      -0.00168099
H        3.61902897       5.59304194      11.31665572       0.00277795       0.00252334      -0.00185564
H        3.51092967       6.18863941       9.67523390       0.00115381       0.00254278      -0.00164966
H        2.02178986       5.94541548      10.60717762       0.00195794      -0.00130947      -0.00134112
H        2.39561124       4.64810083       8.08109634       0.00583073      -0.00016573      -0.00235027
O        9.22593375      11.99066227       8.21999596       0.01352757       0.01415348       0.00247052
C        9.21693059      10.58365245       8.04956101       0.00431669       0.01433992       0.00397810
C       10.42067379      10.19102394       7.22578661      -0.00192821       0.00534682      -0.00156537
H        9.23208124      10.07782883       9.02495657       0.00644536       0.01535198       0.00428504
H        8.31302065      10.26852168       7.52059096      -0.00037533       0.01933528       0.00899661
H       10.39432070       9.11875756       7.01481836      -0.01189946       0.00606622      -0.00284590
H       10.38983568      10.73562433       6.28303263      -0.00091424       0.00655246      -0.00087629
H       11.35034054      10.41396250       7.74554130       0.00205913      -0.00352947      -0.00488928
H        8.51354667      12.22564341       8.83090358       0.01518115       0.01816882       0.00310630
O        5.85174435       7.63536111       4.26166321      -0.00360318      -0.00627038       0.00241399
C        6.55216816       6.56634925       3.63324071       0.00428122      -0.00229770       0.00452646
C        7.91819778       6.33871988       4.24395715       0.00606114       0.00937492       0.00513160
H        5.97423680       5.63849750       3.67850961       0.01146075      -0.00652522       0.00697173
H        6.62996332       6.84495021       2.57957630       0.00229117      -0.00363615       0.00404507
H        8.43588363       5.52665185       3.72836799       0.01295804       0.01350325       0.00555354
H        8.53009577       7.24264020       4.19175099      -0.00160804       0.01446478       0.00443354
H        7.83294949       6.06153313       5.29525589       0.00831877       0.00939956       0.00537243
H        5.72956418       7.45113580       5.21784037      -0.00460911      -0.00646277       0.00227836
O        2.67875563       4.37975821       3.98168055      -0.00522938      -0.00257069       0.01943368
C        2.82460073       4.18615333       2.56682128      -0.00127922       0.00124145       0.01899126
C        2.45552977       2.78547346       2.13987784      -0.01139405       0.00611126       0.01210524
H        2.17671602       4.92290534       2.09164479       0.00719514       0.00840628       0.01881665
H        3.85442585       4.41211631       2.26947976       0.00193793      -0.00629485       0.02600728
H        2.58030060       2.66985417       1.06201689      -0.00954514       0.00972105       0.01192884
H        3.10804210       2.05282353       2.62039839      -0.01891951      -0.00161017       0.01039959
H        1.42144284       2.55089518       2.39575968      -0.01418619       0.01386588       0.00792050
H        2.87513222       3.53543838       4.40179374      -0.01989229      -0.00695011       0.01709842
O        0.52224461      11.51038915       6.53684002       0.00081503      -0.00655936      -0.00446796
C        1.70352123      12.10483234       6.01321010      -0.00049204       0.00056858      -0.00113279
C        1.58748318      12.41753734       4.53127840       0.00134552       0.00028097      -0.00098854
H        1.96780767      13.00375800       6.58027159      -0.00819179       0.00200403      -0.00045735
H        2.49963659      11.37480881       6.17201997       0.00317881       0.00535095       0.00103699
H        2.52441262      12.83190356       4.15132263      -0.00050882       0.00702833       0.00170963
H        1.37218023      11.50428356       3.97392592       0.00972545      -0.00086874      -0.00243158
H        0.78586320      13.13576979       4.34104528      -0.00234880      -0.00350727       0.00017091
H       -0.13087987      12.19727304       6.70014485      -0.00075016      -0.00964315       0.00070864
O       11.15630335      11.07467825       2.37133372      -0.01348311      -0.00472665      -0.00284065
C       10.86020248      10.01006039       3.31469635      -0.00244138      -0.00290523       0.00115311
C       12.10553303       9.63576024       4.06588219       0.00681123       0.00352700      -0.01078379
H       10.07412147      10.35210908       3.99301151       0.00235051      -0.00455993       0.00791311
H       10.48056051       9.14892570       2.75950497      -0.00422558      -0.00583595       0.00665256
H       11.88580754       8.78133386       4.70572783       0.01896114       0.00410658      -0.00612056
H       12.91534639       9.34573092       3.38492372      -0.00026424       0.00583111      -0.02026898
H       12.46412256      10.44087781       4.70510813       0.01059611       0.00730368      -0.01786003
H       10.32627801      11.58505859       2.26831425      -0.01526955      -0.00393829       0.00648163
O       12.52546862       3.39726418       9.11698799       0.00800613      -0.00098294      -0.00540942
C       11.94708384       4.39684998       9.93193826       0.00342695      -0.00497356      -0.00399053
C       12.32665491       4.25924775      11.39690938       0.00073375      -0.00746880      -0.00366640
H       12.21082369       5.40164468       9.57248822       0.00094877      -0.00312591      -0.00087659
H       10.86427314       4.30290061       9.82423678       0.00398242      -0.00783932      -0.00674354
H       11.82876359       5.02891955      11.98977366      -0.00479810      -0.01214078      -0.00228268
H       12.02584367       3.28333981      11.77869637       0.00522475      -0.01033565      -0.00752309
H       13.40483221       4.36815999      11.53443174      -0.00009620      -0.00201752      -0.00076787
H       13.46843750       3.60537274       8.99636593       0.00788836       0.00119001      -0.00255355
O        5.64300624       3.91054651       5.21750954      -0.02308339       0.00582272       0.00364700
C        5.31649646       2.55814427       4.91150155      -0.00944129       0.00139290       0.00865097
C        4.29402323       1.98490169       5.87628591      -0.00201142      -0.00629094       0.01191205
H        4.96145262       2.48338043       3.87427188      -0.01010245      -0.00596227       0.00941348
H        6.24953415       1.99686986       4.95675165      -0.00383866       0.01077324       0.00922359
H        3.97213879       0.99631793       5.55340210       0.01165050      -0.01260926       0.01786376
H        4.71293304       1.89758605       6.87771533      -0.00074282       0.00562681       0.01238468
H        3.40796122       2.62337218       5.96838569      -0.01070134      -0.01796007       0.00805577
H        4.83745127       4.43264424       5.14032596      -0.02667364      -0.00119960      -0.00720308
O       11.51409291       6.67435002       2.59366890       0.01117665       0.00146599      -0.00395602
C       11.87883463       6.63850785       1.22427511       0.00365836       0.00201777      -0.00605842
C       12.34858737       7.98794160       0.70536360       0.00033296       0.00189421      -0.00828210
H       12.64778067       5.87919741       1.04262368       0.00266954       0.00223881      -0.01062481
H       10.97815678       6.34552700       0.68835233       0.00067443       0.00204424      -0.00115772
H       12.59749956       7.94347777      -0.35918794      -0.00795427       0.00265824      -0.01017109
H       11.54557668       8.72572037       0.83391374       0.00131667       0.00188656      -0.00173072
H       13.24859668       8.31194007       1.24815513       0.00471488       0.00130795      -0.01528041
H       12.30734095       6.80221674       3.12199194       0.01446611      -0.00193632      -0.00805561
O        2.49067580       6.07108349       6.83462805      -0.00122473      -0.00271933      -0.00319672
C        1.53011391       6.98571564       7.42361481      -0.00220488      -0.00425600      -0.00410888
C        0.92260386       7.91218825       6.40597213      -0.00216024      -0.00416240      -0.00405058
H        0.76399531       6.40267538       7.94214241      -0.00233313      -0.00473490      -0.00484475
H        2.08497719       7.53761871       8.18099386      -0.00313598      -0.00371248      -0.00351831
H        0.27704935       8.64011132       6.89901907      -0.00337116      -0.00496323      -0.00456159
H        1.69322150       8.45034863       5.85155932      -0.00241300      -0.00312476      -0.00319218
H        0.31287288       7.34525125       5.69802173      -0.00077726      -0.00449744      -0.00485314
H        2.17046404       5.79490839       5.96521297      -0.00074965      -0.00593999      -0.00268930
