198
Lattice="12.678811494538598 0.0 0.0 0.0 12.678811494538598 0.0 0.0 0.0 12.678811494538598" Properties=species:S:1:pos:R:3:forces:R:3 energy=-1122676.75 stress="5.3057930927025154e-05 -0.00021097805438330397 -4.4234968299861066e-05 -0.00021097805438330397 0.0018396301893517375 -0.00011326828098390251 -4.4234968299861066e-05 -0.00011326828098390251 0.002045178785920143" pbc="T T T"
Es      13.88054309      14.27718851      -0.81367338       0.00551812      -0.00190718      -0.00547466
P        2.81847585       8.98386648       2.30631833      -0.00723416       0.00189006       0.00631249
F        4.09370466       9.23206576       3.22782836      -0.00327566       0.00471843       0.00126784
F        1.83492006       9.05848104       3.57554208      -0.00130637      -0.00568862       0.01174194
F        2.61907551      10.56059037       2.04788555      -0.01452493       0.00317064       0.01332926
F        3.74889349       8.89500838       0.98136151      -0.01193937       0.01075228       0.00213738
F        2.94911146       7.36303069       2.50250698       0.00078345       0.00235634       0.00144066
F        7.64341861      12.33134365       3.49328653      -0.01622440       0.01758948       0.01595025
P       11.47644016      11.63832418       1.05467164       0.00951579       0.00197823      -0.01550041
F       10.36472185      10.51004554       1.23082308       0.00300553       0.00281882      -0.04787651
F       12.23212421      10.74102658      -0.09281538       0.03417474       0.00452475      -0.00273440
F       10.63828043      12.37458741      -0.09138214       0.03640173       0.00763738      -0.03218935
F       12.69154260      12.77828387       0.86026574       0.01454892      -0.00228670       0.01655351
F       12.41319450      10.91209739       2.16498732      -0.01983987      -0.00535490       0.00408740
F       10.84194529      12.56428180       2.18189225      -0.01646570      -0.00170255      -0.02640915
P        3.47932635      10.41388076       8.07105660       0.00034666      -0.00017204       0.01427415
F        3.65028037      11.87209538       7.40375601      -0.00796200      -0.00017107       0.00993147
F        3.37702193       8.98801720       8.83130485       0.00635749       0.00076179       0.01622654
F        3.44981447      11.14929299       9.54789604       0.02399280       0.00142801       0.01320732
F        1.89245282      10.52232836       7.96604474      -0.00184992       0.00470720       0.03892101
F        3.58637371       9.69202541       6.64338742      -0.02534948      -0.00104842       0.01218295
F       -0.13695111      13.59767137       7.31833334       0.00220317       0.00503930      -0.00140339
N        5.69975557      11.80569016       5.30912444      -0.01479983      -0.01048105       0.01177849
H        5.18151050      12.65139457       5.52261105      -0.01180059      -0.01066771       0.01953088
H        6.40237605      12.02944416       4.56694400      -0.01313637      -0.00237904       0.01446865
H        5.02020237      11.17718796       4.89349421      -0.01510632      -0.00283380       0.00296383
N       11.55770219       5.76141264       7.34543257      -0.00039288       0.00260556      -0.00267798
H       11.51736918       4.81045289       7.70830945      -0.00071877       0.00366395      -0.00229567
H       10.59766490       6.03525781       7.14623170      -0.00085730       0.00474622       0.00105436
H       11.82958903       6.34514212       8.13075270       0.00354914       0.00289270      -0.00318259
N        0.25691704       8.74609665       9.75477005      -0.00353765      -0.01529169       0.00147149
H        0.92095913       8.85570030      10.51063570      -0.00665250      -0.01312834      -0.00086834
H       -0.52513037       8.18565631      10.09792032      -0.00606164      -0.01405361       0.00086108
H       -0.12039355       9.66664123       9.54481979      -0.00472970      -0.01397163      -0.00171774
N        4.78581170       6.56575771       4.99930111       0.02047325       0.00337575       0.00209181
H        4.28278717       6.42355655       4.12961483       0.00741604      -0.02117706       0.01358399
H        5.72428782       6.21537727       4.82484789       0.02468616       0.01939501      -0.00917808
H        4.88360283       7.57530924       5.05641542       0.00202295       0.00603215      -0.01485177
N        1.66658165       2.05423940       3.04774480      -0.00490877      -0.00980267      -0.00660174
H        2.58346915       2.45745049       2.88933893      -0.00534313      -0.00971521       0.00949927
H        1.54725458       1.30956097       2.36778562       0.00701074      -0.01091412      -0.00990375
H        1.70349313       1.55041713       3.93624388      -0.01983057      -0.01323581      -0.00635829
N       10.94447525       2.76910203       8.74661085      -0.00560161      -0.00301604       0.00052285
H       11.43501961       2.15028455       8.08714780      -0.00347472      -0.00174051       0.00062833
H       10.05353857       3.03850079       8.32718413      -0.00485840      -0.00205673      -0.00060134
H       10.71365307       2.18661162       9.54526319      -0.00654826      -0.00416531      -0.00070858
N        7.38329379      10.12186184       1.63603774       0.00799325       0.01988990      -0.00530922
H        7.37710241      10.90271150       2.31501164      -0.00807619       0.01145433       0.00193889
H        7.85079782      10.51232711       0.82312823       0.01192012       0.03392643       0.00341582
H        8.07615960       9.47604003       2.00473023       0.01300913       0.02390355      -0.00504706
N        4.55509969       4.39294469       8.15617244       0.00766453       0.00451100       0.00411426
H        4.25619010       4.62558584       7.21422975       0.02937908       0.01681013      -0.00077482
H        3.70405007       4.30888433       8.70091507      -0.00485144       0.00215622      -0.01621939
H        4.97682186       3.46697922       8.12537894       0.00441327       0.00394618       0.00233045
N        8.72240614       9.76418596      10.59069894       0.01098829      -0.00147939       0.01106508
H        9.09415680      10.54992295      10.06928637       0.01393488      -0.00386133       0.00786505
H        9.23019721       9.77347324      11.47013218       0.00269158       0.00733391       0.01558656
H        7.75218464       9.98310607      10.80936990       0.00839894      -0.00343877      -0.00013730
N        9.00769140       8.06215028       7.36753135       0.00297021       0.00796646      -0.00095500
H        8.70601733       8.61256507       8.16571097       0.00877021       0.00253326       0.00545685
H        8.44252160       8.33935197       6.56507993      -0.00186639       0.01187526       0.00480351
H        9.96512052       8.35533610       7.16703426       0.00237752       0.00871141      -0.00525755
N       11.49960265       5.87354560       0.41184258       0.00475533      -0.00780305      -0.00390765
H       11.86857646       6.35899944       1.22413273       0.00671083      -0.01157857      -0.00229177
H       10.49958951       6.09058574       0.40801787       0.00416546      -0.00703904      -0.00034336
H       11.88786224       6.34235596      -0.40019439       0.00278262      -0.00608009      -0.00258403
N        8.78943843       3.59339216      11.30629751       0.00153309      -0.01021352       0.01872751
H        9.75691251       3.89570294      11.29912474       0.00173360      -0.00840139       0.01068599
H        8.64277717       3.11262996      10.42659057       0.00029881      -0.02354956       0.02560089
H        8.69950965       2.92251671      12.06543341       0.00416213       0.00116257       0.02809232
N       10.37503825       7.04902770      10.17308280      -0.00587875      -0.00558856       0.00266899
H       10.08643103       6.66350774      11.06255038      -0.00313362      -0.02275925      -0.00786491
H       10.08786187       6.39025346       9.45893274      -0.01088808       0.00930028      -0.01320256
H        9.79543986       7.87800673      10.04387951      -0.00235336      -0.00007907       0.01943320
N       11.07909279       1.85950945       4.94788812      -0.01118741      -0.00604583      -0.01090510
H       10.44524321       1.12111316       4.65752603      -0.01765017      -0.00365882      -0.00242625
H       11.53532660       1.54453850       5.81014492      -0.01093389      -0.00090820      -0.00944032
H       11.81853810       1.87132405       4.25141206      -0.01270401      -0.01776363      -0.01322509
N       12.34722449       2.91819036       0.70909434       0.00395992      -0.01199760      -0.00858700
H       12.85041105       2.86535496       1.59952809      -0.00063641      -0.00814564      -0.00826654
H       11.48208779       2.39840667       0.84781659       0.00276402      -0.00792852      -0.01271189
H       12.08364309       3.90242090       0.55529796       0.00677907      -0.00973129      -0.01617533
N        2.63319608       7.04443624      11.70109793      -0.01567087      -0.00036493       0.01070777
H        2.27850439       6.58542506      10.86111762      -0.01454013      -0.00016305       0.01001155
H        3.23265720       6.36565481      12.16106884      -0.02001531      -0.00165064       0.01374035
H        3.26387315       7.76436730      11.36301424      -0.01222868      -0.00221139       0.01207336
N        5.97285442       7.57041141       7.96300068      -0.00130870      -0.00087374      -0.01086135
H        5.56972513       7.23198524       7.09329694      -0.01148412      -0.01656732       0.00046307
H        5.57785370       6.96719666       8.67699065       0.01145032       0.00860491       0.00578071
H        6.96538178       7.35162961       7.91843892      -0.00094594       0.00443761      -0.01928567
N        0.53759369       0.28708614       9.85317390       0.01602565      -0.00785339      -0.00432754
H        0.26245227       0.67963407       8.92156647       0.01149289      -0.00565095      -0.00178942
H       -0.20710215      -0.38307993      10.05510916       0.01516116      -0.00816362      -0.00180024
H        1.34535896      -0.28683371       9.61893101       0.01373769      -0.00682215      -0.00696390
N        2.79306553       1.93381987       6.46565579       0.00350235       0.00558861       0.00063804
H        1.94767626       1.37247051       6.53980046      -0.00132343       0.01208574      -0.00138881
H        2.52625808       2.90467252       6.60448113       0.00837904       0.00865038       0.00412215
H        3.40849373       1.65650758       7.21877269       0.00078520       0.00036779      -0.00235948
N        9.81688108      10.95780449       4.62865385      -0.01296094      -0.00661056      -0.02286786
H        9.97986808      11.27124080       5.57791271       0.00758282      -0.01665302      -0.02142698
H        9.08124959      11.55516147       4.21107110      -0.01793003       0.00281856      -0.00271217
H       10.67359895      11.13973799       4.12247100      -0.02454001      -0.00992375      -0.03796999
N        5.89571328       1.39592599       8.84216644      -0.00535694      -0.00205809      -0.00626555
H        6.19016748       1.71894241       9.75596190      -0.01222689       0.00425117      -0.00491274
H        6.60512459       0.73973830       8.50655189       0.00098909       0.00106768       0.00098619
H        5.04407101       0.86068322       8.97174750      -0.00194143      -0.00568783      -0.00903028
N       11.94232487       7.80056464       3.09507463      -0.00850666      -0.00600020       0.00305718
H       12.57708520       7.85455109       3.88347265      -0.01323170       0.01129837       0.00707139
H       11.26182377       7.07936405       3.32312266      -0.00077251      -0.01214792       0.00804267
H       11.43645699       8.68210452       3.08085070      -0.01739503      -0.01281486      -0.01158930
N        1.89176209       6.23808598       8.73416206       0.00098138      -0.00537115       0.00662181
H        2.80562451       6.53545678       8.40826359       0.00289340      -0.00018604       0.01519624
H        1.34872730       7.09945816       8.84102107      -0.00341407      -0.00867824       0.00491318
H        1.48611249       5.72135607       7.95996702       0.01028752      -0.00541680       0.00112524
N        4.05482509       4.29669228       1.81244741      -0.00604904       0.01291716       0.00884277
H        4.40910689       3.88786778       2.68577690      -0.00346838       0.00223748       0.00279936
H        3.42524701       5.05262957       2.05281226      -0.00113932       0.01306603       0.01792564
H        4.83953404       4.70956216       1.31808422      -0.00543389       0.01382750       0.00895071
N       11.04649875      11.34254855       8.41478573       0.00619341      -0.00308420      -0.00381853
H       10.14546067      11.78477619       8.54266013       0.00177959      -0.00528319       0.00041504
H       10.90791632      10.49368373       7.87323499       0.00810721       0.00082983      -0.00456826
H       11.59863337      11.99743050       7.85172246       0.00105168       0.00245755      -0.00163400
N        0.85222428      12.27916263       4.81716091       0.00209966      -0.00037812       0.01601825
H        0.08461644      12.10313704       4.18252435      -0.00396752      -0.02818114       0.02027205
H        0.46639582      12.50965604       5.73196111      -0.00238629       0.01348302       0.01182781
H        1.38979186      11.42379327       4.88652026       0.01522678       0.01863655       0.02916868
N        2.00973380       4.85450469       5.66364399      -0.00683327       0.01069109       0.00842091
H        1.14924137       5.38288139       5.74168561      -0.00990534       0.00886040       0.00685149
H        1.90789809       4.23696771       4.86585886      -0.00290840       0.01141956       0.00845772
H        2.77084547       5.49912883       5.47054938      -0.00929670       0.01311165       0.01143062
N        8.22281318       3.43040437       7.26899244      -0.00718355      -0.00067397      -0.00293283
H        7.93682689       4.39333214       7.14024441      -0.01075707       0.00034585       0.00265178
H        7.38182136       2.88910073       7.44102489      -0.00415521      -0.00289879      -0.00083146
H        8.61801159       3.12031210       6.38772354      -0.01087115       0.00480093      -0.00625477
N        8.28573004       6.17447524       3.70555809      -0.00210865       0.01147734       0.00399031
H        9.13755541       5.73510660       4.05395959      -0.00653218       0.00064504       0.00193386
H        8.16980032       7.05552549       4.20114941       0.00446121       0.00769444       0.01154186
H        8.48590537       6.40033799       2.73608415       0.00313377       0.01763402       0.00630325
N        1.09527000       3.25975811       9.93492199      -0.00796083      -0.00312373      -0.00482035
H        1.42770666       4.22485472       9.92157998      -0.00727412      -0.00321737      -0.00125272
H        0.10911429       3.28361261       9.63971032      -0.00901169      -0.00175916      -0.00247413
H        1.57183080       2.77992497       9.17355941      -0.01017411      -0.00019259      -0.00808169
N        7.95301538      12.21502497       7.33065056       0.00761679      -0.00028669      -0.00052324
H        7.29420641      12.13320963       6.55019161       0.00820433       0.00413709      -0.00013851
H        8.45752748      11.33344939       7.33443129       0.00463359      -0.00221984      -0.00292826
H        8.63824860      12.90951888       7.04773085       0.01028869      -0.00169864       0.00181742
N       -0.62893779       8.80972397       6.71218470       0.00862911       0.01358368      -0.01118469
H        0.06121362       8.85119831       7.45778512       0.00483401       0.00268596      -0.00419773
H       -0.35483737       9.47693795       6.00070726       0.01543795      -0.00006265      -0.00406202
H       -0.56559212       7.88072301       6.31231193       0.00339329       0.00255743      -0.00665832
N        5.30333079      10.28237548       8.18277766       0.00025353      -0.00357595      -0.01690203
H        5.70756472      10.83112714       7.41161755      -0.01135901      -0.00690666      -0.02377516
H        5.59708155       9.24875122       8.09486483      -0.00217043      -0.00552762      -0.01642885
H        5.65812484      10.62551037       9.07621953       0.01391065      -0.00118041      -0.02048206
N       11.22090449       4.92190852       4.33900597       0.00100270      -0.00586524      -0.00303050
H       10.99892160       3.95472999       4.59403764      -0.00271861      -0.00494468      -0.00497047
H       11.62107649       5.33631104       5.17786588      -0.00693255      -0.00511563       0.00109136
H       11.96463896       4.85605668       3.65335258       0.00954646      -0.00746476       0.00574112
N        3.47062675       2.02777301       0.15809765      -0.00208259       0.02234152      -0.00673103
H        4.21394918       2.05337578      -0.53235282      -0.00479713       0.03367910      -0.00636105
H        3.58768664       2.88896751       0.74024661      -0.00875139       0.02003023      -0.00123599
H        3.64460146       1.23227480       0.76255967       0.00642410       0.02059355      -0.00931543
N        5.99560516       7.02776945       1.71017792      -0.00122574       0.01494987      -0.00738725
H        6.21990041       8.02182838       1.74509917       0.00680393       0.01327084      -0.01622352
H        6.39129438       6.59724975       2.54146261       0.00546847       0.01687861      -0.00919050
H        4.99123900       6.97525979       1.80776297      -0.00049679       0.02285812       0.00577841
N        5.63116653      10.43861693      -1.15135335       0.02095082       0.00212386      -0.00135091
H        5.91568459      10.09770549      -0.23224119       0.01782229       0.00576202      -0.00203758
H        4.71550931      10.05049102      -1.34253410       0.01314615       0.00686655       0.00105404
H        5.50316375      11.43956910      -1.05356345       0.02923234       0.00094176      -0.01304401
N        8.57827504       2.10264640       2.11226547      -0.00891910      -0.00234573      -0.02920026
H        9.16505591       2.56140420       2.80251922       0.01171961      -0.01150997      -0.04098433
H        8.32638891       1.19335166       2.52170474      -0.01163146       0.00119153      -0.02161062
H        7.72172968       2.64617274       2.09752605      -0.00237262       0.00767881      -0.00737935
N        7.31735914       9.11818456       4.85819604      -0.00364815      -0.00400714      -0.00342886
H        8.20069800       9.57985900       4.61268880      -0.00251335      -0.00473642      -0.00734156
H        6.82472340       9.82790095       5.39610644      -0.00848134       0.00322029      -0.01920797
H        6.78557220       9.06381091       3.99342169       0.00211941      -0.02431513      -0.00488758
N        4.99174406       2.73372617       4.30399975       0.00222099      -0.01158649      -0.00853518
H        5.56240290       1.94392542       4.01791518       0.00316130      -0.01153313      -0.00529657
H        4.27794174       2.38103853       4.94818177       0.00262744      -0.00905544      -0.00682430
H        5.60362413       3.34036207       4.83795928       0.00164773      -0.00852554      -0.00983458
N        5.70129069       4.89480775      11.04073554      -0.00807760      -0.02066861       0.01710873
H        6.65602233       4.55219768      11.11726797      -0.00464432      -0.01371367       0.00503688
H        5.74001024       5.85326392      11.37010088      -0.01531253      -0.02696292       0.03759504
H        5.47767259       4.92441937      10.04746355      -0.01351322      -0.00215540       0.01891933
N        1.36955758       8.60142404       1.23197565      -0.00875542       0.00055820       0.01056644
H        0.61519989       8.14849097       1.79663892      -0.00894845       0.00141993       0.01259869
H        1.67733202       7.98406825       0.44801428      -0.01079528      -0.00225288       0.01199257
H        0.95406656       9.44629887       0.84140540      -0.00843346      -0.00104409       0.00728908
N        8.36380424       6.58937796      12.55521216       0.00293347      -0.00675057       0.00445639
H        7.52090113       6.61441340      13.13638681      -0.00006346      -0.00353789       0.00068517
H        8.31476998       5.72198369      12.02418946       0.00017915      -0.00545859       0.00291617
H        8.25122476       7.34111066      11.88189869       0.00957740      -0.00451300       0.00636347
N        2.30800930      11.91032443      12.12055427       0.02222052       0.01315629       0.02801406
H        1.69738085      11.63013635      12.87888762       0.02326009      -0.00249462      -0.00018516
H        2.07807193      11.33860258      11.31659798       0.02967884       0.01157328      -0.00068617
H        3.24709913      11.64758759      12.39804140       0.01391566       0.02476105       0.01276538
