196
Lattice="17.946618589274127 0.0 0.0 0.0 17.946618589274127 0.0 0.0 0.0 17.946618589274127" Properties=species:S:1:pos:R:3:forces:R:3 energy=-2470021.5 stress="0.0003616922185756266 -3.144659785903059e-05 7.457872925442643e-05 -3.144659785903059e-05 0.0002985238388646394 0.0001906349789351225 7.457872925442643e-05 0.0001906349789351225 0.00019188916485290974" pbc="T T T"
Es      18.20872523      18.82571143       0.02924866       0.00250433       0.02132365      -0.01440360
P       16.74615833      14.22291119       3.89995092       0.01526940       0.00101102       0.00577696
O       17.92464885      13.97091389       4.83123924      -0.02002573      -0.01002079       0.01356399
O       17.37766411      14.26734227       2.41657496       0.01639819       0.01550061      -0.00937176
O       15.75475257      13.06094363       3.92561389      -0.00973988      -0.00198591      -0.00816321
O       16.03671886      15.55491548       4.13777943       0.00891614       0.00105572      -0.01975353
Cl       9.85036712       6.09759448      10.95034364      -0.00873786       0.00846007       0.01100144
Cl      11.61240350       4.29348441      12.42401397      -0.00319366      -0.00019339      -0.00627101
Cl      12.69758518       6.69564060      11.17645553      -0.00501153      -0.00141472      -0.01061025
C       11.28901846       5.97402874      11.96980641      -0.00077993       0.00096331      -0.00221269
H       11.09767000       6.53215688      12.87825044       0.00804624       0.00114705       0.00271052
Cl       3.80832134      13.09835812      -0.24493219      -0.00979644      -0.00172637       0.00002244
Cl       6.26282192      12.56947276       1.23460750      -0.00514513       0.00396454      -0.00492946
Cl       5.80991320      15.20103015       0.05467654      -0.00813432      -0.00044651      -0.01406027
C        5.04957917      13.78758175       0.80369595      -0.00677999       0.00263808      -0.00575837
H        4.58056448      14.10645466       1.72797924      -0.00369669       0.00654982      -0.00686511
Cl       9.48048018      12.10500136      12.39932835       0.00220397      -0.00184840       0.00118654
Cl       8.70818389       9.84708179      10.72553894      -0.00702485      -0.00047290       0.00337672
Cl      10.92451459       9.58280895      12.61079647       0.00200599      -0.00249857      -0.00626226
C        9.35455539      10.34639995      12.29266139      -0.00053986      -0.00249334       0.00225623
H        8.66716039      10.01600885      13.06198667       0.00460291      -0.00196449       0.00290743
Cl       3.67692911       3.15992966      15.48825787      -0.00688818      -0.00071336      -0.00389812
Cl       3.42896027       1.59579601      17.94823538      -0.00793212       0.00151263      -0.00197603
Cl       5.99539126       2.76799022      17.21738533      -0.01119843       0.00693081       0.00254245
C        4.25408677       2.98986279      17.13875000      -0.00938240      -0.00062072      -0.00529436
H        3.98950652       3.87863950      17.70222593      -0.01666525       0.00583133      -0.00331313
Cl       6.29738942      14.14696488       4.99471151      -0.00155668       0.00230950       0.00013363
Cl       4.09810914      12.42118208       4.15349904      -0.00192985       0.00112635       0.00123429
Cl       6.72014350      11.26607382       4.76221867      -0.00255921       0.00101992       0.00540650
C        5.54354466      12.53872503       5.14404451      -0.00323346       0.00232695       0.00546264
H        5.25560832      12.41554130       6.18070499      -0.00288635       0.00515938       0.00054500
Cl       9.60850283      10.73984102      15.96774177       0.00169784       0.01009724      -0.00335723
Cl       7.41982102      12.63985229      15.60957218      -0.00336275       0.00235730      -0.00570199
Cl       6.88880790       9.76557846      15.57901485       0.00588357      -0.00113936      -0.00714993
C        7.88910234      11.06901913      16.25480958      -0.00000167       0.00318521      -0.00553352
H        7.72945121      11.08667198      17.32595546      -0.00303948       0.00072593      -0.00663117
Cl       0.02110512       7.35580880      17.57911335      -0.00036474       0.00043812      -0.00881132
Cl       2.27059638       7.34807323      15.70811631       0.00231585      -0.00193295      -0.00607055
Cl      -0.44557098       6.93033004      14.72727755       0.00400966      -0.00871384      -0.00910744
C        0.56429621       7.74845182      15.93098136       0.00074162      -0.00130733      -0.01031548
H        0.44654502       8.81723577      15.79686692      -0.00077011      -0.00614652      -0.01307084
Cl      11.85069800      19.16889292       4.22391310       0.01105652       0.00198376      -0.00400399
Cl      11.60203703      17.79532242       1.67442814       0.00405892       0.00013887      -0.00243744
Cl      13.31628576      16.67797763       3.77038749       0.00829697       0.00116587      -0.00613976
C       11.84802381      17.57805112       3.42573923       0.01199905       0.00423052      -0.00448352
H       10.99963416      17.02298325       3.80690862       0.00655690       0.00074118       0.00091125
Cl       1.99036339      16.74677796       1.08131898       0.00028497      -0.00792077       0.01380649
Cl       1.96935550      15.54963740       3.73953959       0.01521458      -0.00860304       0.02024293
Cl       4.28742477      17.14427990       2.88460325       0.00080587       0.00750592       0.01606798
C        2.53815401      16.90159939       2.85584655       0.00031633      -0.00572632       0.01105970
H        2.05578556      17.81389766       3.18627179      -0.00346534      -0.01285768       0.01241424
Cl      14.17108630       4.85981787       7.66312073       0.00807497      -0.00806496       0.00322507
Cl      11.59448113       3.76981010       8.48026383       0.00407043      -0.00066826       0.00505039
Cl      12.07164962       4.44116351       5.68213644       0.00118750       0.00606549       0.00495300
C       12.80226902       3.85115802       7.19179445       0.00319740      -0.00476664       0.00171480
H       13.16908277       2.84895319       7.00338347      -0.00348794       0.00034925      -0.00022481
Cl       5.52884335      -1.59622908      14.22379205       0.00058256      -0.00001068       0.00211498
Cl       5.22536891       0.27032008      11.99680898       0.00873936       0.00467995       0.00336918
Cl       7.83453685      -0.89260461      12.58497870       0.00359148      -0.01103838      -0.00063253
C        6.09620619      -1.15846972      12.59461353      -0.00040451      -0.00736715      -0.00337334
H        5.86932313      -1.98335013      11.93003954      -0.00316107       0.00424890       0.00381814
Cl       0.84284803      11.00412305       4.52873521      -0.01059847       0.00594467       0.01028517
Cl       1.74073754       8.35582435       3.63805625      -0.00703086       0.01371016      -0.00764176
Cl       2.77304853       9.48217771       6.12395648      -0.01226574      -0.00250947       0.00247249
C        1.37282911       9.41924071       5.03741027      -0.00785573       0.00435516      -0.00194106
H        0.56549763       8.94479524       5.58148790      -0.01190659      -0.00269720      -0.00392023
Cl       4.58622905       6.43904606       5.10452437      -0.00183105      -0.00139286      -0.00234422
Cl       5.29371010       6.02827571       7.90451025      -0.00428025       0.01083522       0.00047076
Cl       5.65370706       3.85761910       5.97584309      -0.00201289       0.00275475       0.00965412
C        5.67573044       5.62391445       6.22689354      -0.00323792       0.00356773       0.00256008
H        6.68556287       5.95815600       6.02155118      -0.00227574       0.00342025       0.00206997
Cl      14.41699632      15.99080278       0.33579058       0.01477340       0.00448100       0.00484211
Cl      16.96949275      16.57955577      -0.98534291       0.01275125       0.01658885       0.02385655
Cl      16.28591817      17.95370779       1.62299536       0.03725078       0.01048666       0.00547890
C       16.08829104      16.13862925       0.70651606       0.01267570       0.00688365       0.01187378
H       16.90670734      14.91189651       1.82761603       0.02172831      -0.00348550       0.01421261
Cl       6.02360353       7.35000202      11.64944325       0.00727390      -0.00487050      -0.00177887
Cl       5.42719701       6.69575338      14.43396923       0.00901984      -0.00192592      -0.00070736
Cl       4.01878827       5.31760188      12.27226687       0.00401685      -0.00016231       0.00191347
C        5.54059529       6.08070931      12.76873693       0.00520731      -0.00206752      -0.00039946
H        6.30833464       5.31683989      12.76606046       0.00551130      -0.00535801      -0.00080236
Cl       5.64292623      16.29426985       8.71666945      -0.00536161      -0.00457045      -0.00182336
Cl       7.75860914      18.28849171       8.46291128      -0.00297958      -0.00690399       0.00057766
Cl       5.54246500      18.23477138       6.55515668      -0.00221568      -0.00215027      -0.00040072
C        6.04382586      17.94897656       8.24119509      -0.00345515      -0.00444415      -0.00042485
H        5.47743254      18.62478658       8.87149613      -0.00291830      -0.00481413       0.00002599
Cl      14.27603181      10.16946005      11.06021563       0.00064701      -0.00226563      -0.01104861
Cl      16.15936133       7.97420481      10.65471693       0.00640777      -0.00395614       0.01581335
Cl      17.08693164      10.74385528      10.56079454       0.00209352      -0.00185040      -0.00796747
C       15.93479264       9.61104544      11.29002913       0.00266707       0.00231179       0.00548665
H       16.12743876       9.57789856      12.35563341      -0.00233703       0.01291719      -0.00398865
Cl       8.61298854       7.53395781       7.50902212       0.00462347       0.00140224       0.00220796
Cl       9.13988474       6.72647953       4.75450889      -0.00528245       0.00482451      -0.00064248
Cl      10.33467963       9.17262855       5.80881623       0.00125972       0.00094840      -0.00064041
C        9.79990032       7.53757453       6.19191936      -0.00316419       0.00368960      -0.00269256
H       10.65922284       6.96539154       6.51980504       0.00249398      -0.00200292      -0.00410351
Cl       1.77550543       3.92495002       4.80452557       0.00677524      -0.01209130      -0.00303763
Cl       0.77873707       2.20238953       2.70762851      -0.00901568      -0.01143803       0.00305918
Cl       2.30911152       4.62463802       2.02525432      -0.02943406      -0.00478939      -0.00842388
C        2.11441244       3.32880566       3.20047945      -0.01053724      -0.00647840      -0.00711501
H        3.02170407       2.73402732       3.21451736      -0.00522890      -0.00347806      -0.01821162
Cl      15.36242655       4.54417161      12.43553880       0.00114623      -0.00402701       0.00242938
Cl      16.35165613       2.39359986      10.72699944       0.00902225      -0.00022954       0.00376874
Cl      18.11772726       4.60686920      11.47421037      -0.00270477       0.01065446      -0.00505193
C       16.76508895       3.56952120      11.98210632       0.00280489       0.00819765      -0.00602029
H       17.09152092       3.02161312      12.85778449       0.01258911       0.00479577       0.00583380
Cl       9.23616448      14.98296682       2.08769909       0.00247447       0.00066006       0.00300205
Cl       9.90540409      12.31135583       1.12759199      -0.00379407       0.00026532       0.00194275
Cl      10.83680117      13.18896927       3.74569474       0.00185931      -0.00152861      -0.00017223
C        9.54333729      13.29955515       2.55963389       0.00541346       0.00253627      -0.00002116
H        8.63101707      12.91661304       3.00164494      -0.00265241       0.00037861       0.00595498
Cl       8.36013650       4.40987075      14.60532663       0.00031740      -0.00539094      -0.00109163
Cl       8.13107327       2.84536463      12.15186884      -0.00280951      -0.00056898      -0.00421035
Cl       9.73189298       1.84115405      14.39079898      -0.00402552      -0.00723173      -0.00634392
C        8.31318939       2.77365076      13.91200319      -0.00257295      -0.00395067      -0.00434493
H        7.43783420       2.27638695      14.31369765      -0.00358480      -0.00316279      -0.00518693
Cl       9.07279064      16.34555244      16.22174738      -0.01025677      -0.00911067      -0.00505013
Cl      11.07062239      14.79866388      14.75641893      -0.00112418      -0.01257041       0.01087734
Cl      11.80454366      17.35224074      15.96127026      -0.01157413      -0.00461599      -0.00067084
C       10.78145168      15.90307678      16.10248192      -0.00915815      -0.00621405       0.00341791
H       11.05580990      15.39978540      17.02169286      -0.01097100      -0.00051692       0.00783426
Cl      15.40739385      13.32476587      13.14581364       0.01887798      -0.00115295      -0.01372924
Cl      12.88810274      13.53395529      11.69082243       0.00774091       0.00219556       0.00420857
Cl      15.02957065      15.46565067      11.20273789       0.01101083      -0.00575513      -0.01859659
C       14.64087794      13.79355929      11.61779976       0.00937069      -0.00538847      -0.01179789
H       15.03425558      13.15311630      10.83834119      -0.00118658      -0.00669059      -0.00916272
Cl      14.09227564       3.01279844       1.81948018       0.01115526      -0.00899255      -0.01526026
Cl      14.62939874       5.71166139       0.85309550       0.00693522      -0.00346408      -0.00252845
Cl      16.42077166       3.54229360       0.08801768       0.00183761       0.00154907      -0.02558276
C       14.70755030       3.98432321       0.51172433       0.00418127      -0.00020590      -0.00954473
H       14.13324945       3.78754846      -0.38660142      -0.00222371       0.00432283      -0.01317553
Cl      11.87645161       5.05959633      16.08783550      -0.00318854      -0.00666057      -0.00045997
Cl       9.85192716       7.08130563      16.66785510      -0.00219437      -0.00366054      -0.00676966
Cl       9.92217590       4.60571850      18.21676847      -0.00230312       0.00209798       0.00251442
C       10.88478327       5.81422656      17.34956595      -0.00259764      -0.00171735      -0.00276174
H       11.55823294       6.27869275      18.06075379      -0.00139323       0.00109152      -0.00448179
Cl      13.11766766       9.01476190      16.74765062       0.00218876      -0.00505681      -0.00148419
Cl      13.95166667       7.97453117      14.14783661       0.00187589      -0.00079779      -0.00388017
Cl      15.46712464      10.12362087      15.41424345       0.00957422      -0.01201232       0.00608265
C       14.48953499       8.66550334      15.68283727       0.00265232      -0.00891039      -0.00018512
H       15.11984778       7.93498981      16.17707885      -0.00248437      -0.01320240      -0.00169149
Cl      18.33336354      -0.03973129       5.97361258      -0.00881049      -0.00785798      -0.00676157
Cl      15.80092124      -0.36257178       7.39259088       0.00354576      -0.01146333       0.01409188
Cl      15.92413343       1.28916048       4.99742519      -0.01495112       0.00177979       0.02154876
C       16.56841367      -0.16301809       5.80494236      -0.01006045      -0.00341007       0.00826916
H       16.35631954      -1.05221700       5.17586713      -0.01473738       0.00152373       0.00464052
Cl      17.42118848       6.18272122       6.50583666       0.00373100       0.00587720      -0.00195131
Cl      15.96500159       4.89578442       4.32001924       0.00961843      -0.00211883      -0.00188606
Cl      15.94956365       7.80146728       4.57205948       0.00034058      -0.00110728      -0.00618159
C       16.87823471       6.32482818       4.81617838       0.00779594       0.00189796      -0.00474414
H       17.77067022       6.38154527       4.20377683       0.00394124       0.00372492      -0.00104077
Cl       3.99350618      12.68493377      13.80771896      -0.00317684      -0.00012083       0.00256535
Cl       1.71420553      13.40056965      12.12020228      -0.00162734       0.00097468       0.00083637
Cl       1.26837676      12.20546656      14.75581547      -0.00452518       0.00498766       0.00196806
C        2.32489194      13.25174424      13.77843867      -0.00238510       0.00092048       0.00059035
H        2.29718487      14.23809555      14.22518525      -0.00112802       0.00337493       0.00038958
Cl       6.45437768      12.81218344       8.72256476       0.00244147      -0.00021099       0.00435442
Cl       8.55409539      14.49908286       9.83933362      -0.00103132       0.00374448       0.00531203
Cl       9.22086496      12.45206265       7.86692092       0.00291392       0.00818399       0.00141034
C        8.01505588      13.61439533       8.41189429      -0.00016108       0.00567556       0.00268754
H        7.85314097      14.33248029       7.61711428      -0.00203113       0.00438485       0.00622594
Cl       1.97115081       1.83016374      12.62665344       0.00748388       0.00879192      -0.00708020
Cl       0.82646894       0.57658084      15.00346504      -0.00792624       0.00356244      -0.01359828
Cl       1.80237714      -1.07415186      12.81776278       0.01497693       0.00640593      -0.00849384
C        2.06312384       0.43252163      13.67144726       0.01457512       0.00752311      -0.00001629
H        3.02962680       0.40653183      14.16534507      -0.00747482       0.01141126      -0.00065030
Cl       1.15429220       2.93565902       8.23856655       0.00287423       0.00305416      -0.00333558
Cl       3.80653352       2.87903679       9.44355594       0.00056930      -0.00003877       0.00328222
Cl       2.34852281       0.38534541       9.02798117       0.00116878       0.00036457      -0.00760671
C        2.64760333       2.01179192       8.40785328       0.00440510       0.00227071      -0.00530124
H        3.10243884       1.91806026       7.42847469       0.00453956       0.00560975       0.00059140
Cl      11.72788603      18.17941031       7.90987133      -0.00771710      -0.00299528       0.00615498
Cl      11.99992055      15.48051181       8.95729946       0.00054376      -0.00618589      -0.00346285
Cl      10.52217887      15.93243363       6.48498860       0.00732645      -0.00326317      -0.00662853
C       11.88270998      16.45843661       7.50339862      -0.00003197      -0.00063827       0.00112674
H       12.78702747      16.32407705       6.92149671       0.00504065       0.00622948       0.00238809
Cl       0.30316718      14.82194609       8.83992018       0.00744028       0.01139283       0.00598869
Cl       2.71602199      14.63062682       7.21744609       0.00492984      -0.00502029       0.00554582
Cl       1.36872975      12.20448062       8.09901706      -0.00881507       0.00443304       0.00864093
C        1.14212921      13.88999283       7.58437664       0.00350559       0.00485479       0.01096514
H        0.54847561      13.89830395       6.66459302      -0.00136107       0.00654027       0.00546443
Cl      14.93867431      13.75431481       7.46375368       0.01450953      -0.00785649       0.02270740
Cl      15.59624738      10.95598911       6.96448794      -0.02917254      -0.01651150       0.01931256
Cl      12.97188614      11.99951332       6.20759591      -0.01698595       0.02302647       0.02633454
C       14.70488256      12.37208717       6.37665084      -0.00874484      -0.00240782       0.01905733
H       15.11359315      12.65301268       5.37313599      -0.01420814      -0.00978447       0.02654982
Cl       2.61301827       8.51248889       9.73428077       0.00281940       0.00111285       0.00106728
Cl       2.83725505       9.19654240      12.56176716      -0.00281034      -0.00214861       0.00243348
Cl       4.49227124      10.57675018      10.58268105       0.00105628       0.00027280       0.00742070
C        2.92840367       9.80192232      10.89915432       0.00029519      -0.00001280       0.00315633
H        2.16064115      10.55665048      10.78299696       0.00044852      -0.00008482       0.00248714
Cl       5.01448859       6.60068780       0.22451067       0.00141735      -0.00080148      -0.00817043
Cl       6.91992934       8.13159484       1.81893772      -0.00572531       0.00012970      -0.00269432
Cl       6.70389682       5.24264016       2.19436560      -0.00405832      -0.00244200      -0.00446092
C        6.60200484       6.58125823       1.03938591      -0.00045811      -0.00096443      -0.00407137
H        7.35440742       6.42277957       0.27561704       0.00194675      -0.00005016       0.00046904
