200
Lattice="13.014653441017606 0.0 0.0 0.0 13.014653441017606 0.0 0.0 0.0 13.014653441017606" Properties=species:S:1:pos:R:3:forces:R:3 energy=-1267644.125 stress="0.0017172666266560555 -0.0004549125296762213 -0.00037668812728952616 -0.0004549125296762213 0.0008701316546648741 0.00053832569392398 -0.00037668812728952616 0.00053832569392398 0.0011062290286645293" pbc="T T T"
Es      11.35782557      12.85058398       0.62601594       0.01986961      -0.00998724       0.01618584
Br       6.05978217      13.64586932       2.80282423      -0.00391206       0.01464021      -0.02173747
Br       2.95737773      13.58486712      10.03434347      -0.00767259      -0.00548484       0.00511003
Br       9.25102971      12.57916251      11.65181072       0.01619563      -0.00000267       0.00921507
N       10.14972917       8.31816777       6.72047148      -0.00788826       0.00431603       0.00192201
H        9.65637332       9.10110129       7.13499674       0.00746864       0.00957727      -0.00021951
H        9.43865971       7.65913453       6.41972125      -0.01038504       0.01584115       0.00026616
H       10.56875472       8.67524197       5.86269864       0.00144298       0.00433598      -0.00456950
N       11.28647763       6.98292123       0.56708705      -0.00097726      -0.00013319       0.02012360
H       10.84211193       6.75617207      -0.31941333      -0.00454354       0.01919334       0.01780561
H       10.56153605       6.91207506       1.28725790       0.00677010       0.00415014       0.01849772
H       11.93457669       6.22659239       0.75816653      -0.01238757      -0.02317012       0.00568892
N       10.60153982       2.69539732      10.86251206       0.00617045       0.00823134      -0.00044051
H        9.95959711       2.08765217      11.36990632      -0.00760794       0.01390794      -0.01435786
H       10.45026813       2.42811812       9.88593443       0.02012864       0.01877368      -0.00340253
H       10.25297687       3.64208600      10.96394486       0.02108949       0.01208537       0.00721687
N        9.34046437       6.99358105      10.90712098      -0.02285153      -0.01450673      -0.00058524
H        8.51655595       6.86385474      11.48429448      -0.01264408      -0.00796403      -0.00051191
H        9.05125343       6.78710890       9.95754777      -0.00753334      -0.00451074       0.00755754
H        9.54397057       7.98649252      10.92586302      -0.01198097       0.00520125       0.00729588
N       10.53618312       0.98499294       5.01454994       0.00723061      -0.01712914       0.00395265
H       10.21195279       1.93597282       5.16023073      -0.00664150      -0.01727611      -0.04446770
H       11.32585251       0.88770694       5.64304464      -0.01097577       0.01763792       0.03780796
H        9.79904789       0.36303239       5.38231097       0.00791489      -0.01107661       0.00395778
N       11.37498953       3.95729254       3.16654974      -0.01453689      -0.00150515      -0.01594174
H       11.50907222       4.96119410       3.23549104       0.00402646      -0.00740577      -0.00561117
H       11.71377662       3.58601525       4.05162852      -0.02179138      -0.01789095      -0.02050787
H       10.36532870       3.81584093       3.12795500      -0.01792864       0.01461514      -0.01796717
N        0.87986773       8.75012606      11.95219663      -0.01059455      -0.00881541      -0.01249895
H        1.06683864       8.52955263      10.97899067       0.00527671      -0.01873652      -0.00268406
H        0.31566992       7.99672639      12.33383864       0.00306539      -0.01495099      -0.00379859
H        1.77318132       8.72828279      12.42920302      -0.01459114       0.01758198      -0.00028735
N        5.61123588       8.07852181       9.18865560       0.02480564      -0.00510681      -0.01300924
H        6.39979148       8.64585937       9.48498178       0.01820220       0.00584800      -0.04297465
H        4.84774241       8.74797032       9.10083342       0.00709253      -0.02017509       0.01983447
H        5.81512411       7.71940581       8.26354594      -0.01018678       0.00177699      -0.02471370
N       -0.31743116       0.05445038      11.43419278      -0.01397347       0.00212961       0.01572663
H       -0.50253428      -0.74695377      10.83997200      -0.02626524       0.00784834       0.02072980
H        0.67884415       0.26267009      11.33108316      -0.01029885      -0.00361721       0.01198353
H       -0.83278753       0.83809492      11.03625698      -0.01078123       0.00957732       0.02451442
N        3.10425439       1.75955103       6.75962731      -0.00261464      -0.01048813      -0.00897833
H        3.03007964       0.95797173       6.13233496       0.00297123      -0.01182655      -0.00630800
H        2.17239510       2.15063863       6.84834777      -0.00233653      -0.00978155      -0.01868720
H        3.30779909       1.38579178       7.68596237      -0.00919639      -0.00648779      -0.00436212
N       11.73254727      11.88707130       2.93540132       0.00369653       0.00943583       0.00616294
H       11.47649116      12.60824866       3.61143099       0.01514853      -0.00887771       0.00383651
H       12.73681906      11.72670077       2.96331938       0.01066566      -0.00786100      -0.00147119
H       11.31227702      11.01083599       3.23604908      -0.00801846       0.00291428      -0.01970318
N        1.33483188      10.01094407       2.42683803       0.00175276       0.00190437      -0.00120261
H        0.97325411       9.38602012       1.71576540       0.00775693      -0.00126472       0.00215364
H        2.17953071       9.58450265       2.79036332      -0.00434842       0.00052084       0.01319484
H        1.58446468      10.88563960       1.96237906       0.00945315      -0.00494677      -0.00476248
N       11.76856034       8.60687381       3.75846603      -0.00716086       0.01697992       0.00072993
H       11.97548947       7.75986277       4.29461472      -0.01082645       0.01896610       0.00378636
H       12.65819999       9.04152860       3.52793674      -0.00448766       0.02173129       0.01783966
H       11.36487601       8.27893960       2.88722181       0.01844870       0.01417631      -0.00878816
N        2.48073614       7.02098653       5.70893094       0.00256229      -0.00321190      -0.00381154
H        2.58756644       8.03140525       5.73167265       0.00249318      -0.00182258      -0.00019344
H        2.29316049       6.77117837       4.73675989      -0.00953272       0.00360338      -0.00790593
H        3.40147847       6.63806056       5.91019624      -0.00247104      -0.00501105      -0.01587779
N        4.70894213       4.46457277       1.63978542       0.02317383      -0.00555186      -0.00329745
H        4.03305893       4.08126581       2.29573179       0.00729299       0.02990020      -0.00033438
H        5.25868450       3.68348658       1.30018678      -0.00194137      -0.01830114       0.01681360
H        4.20921774       4.85575688       0.84086613       0.02615511      -0.00566565      -0.01327311
N       10.90401579      11.32578556       8.52466453      -0.01879147      -0.00661110       0.01557800
H       10.44428883      11.56100177       9.40175886       0.00593639      -0.00373508       0.01114979
H       11.60561197      12.03514084       8.35477619      -0.01405026      -0.00207273      -0.00556185
H       11.38547450      10.44372401       8.64153502      -0.00665729      -0.00657680       0.00555843
N        3.20781946      12.31346687       4.61045026       0.01380955      -0.00125399       0.00399956
H        3.62497580      11.43609127       4.90668531      -0.01731673      -0.01256452       0.00292260
H        3.91968106      12.78165839       4.04889991       0.01817869      -0.01516472       0.01337293
H        2.46054066      12.05540613       3.97439099       0.00314896       0.01724164      -0.00775493
N        2.91452529       2.72757185       3.65412597       0.00947173       0.01205522      -0.00145259
H        2.05058989       2.23083675       3.46817355       0.00629155       0.00873135       0.00541416
H        3.04662398       2.71801369       4.66353979       0.01699693       0.00433006       0.00074920
H        3.67018686       2.14655257       3.29202362       0.00379452       0.02226745      -0.01232113
N        9.42246517       1.31517130       8.38145881      -0.00445375       0.00176035      -0.01091407
H        9.57451830       0.68428287       7.60182647      -0.04064176      -0.01114401       0.00183383
H        8.69275953       1.94800601       8.07194042       0.00038598       0.01135024       0.00393270
H        9.03217393       0.75503720       9.13499588       0.00399742       0.01886170       0.01444443
N        9.22477191       6.95522741       3.05834701      -0.00454585       0.00514387      -0.01802051
H        9.35896546       6.11042976       3.60328778      -0.00610704       0.00384087      -0.01353226
H        8.25444543       6.94276244       2.73090775      -0.00288785       0.01837468      -0.00297904
H        9.30088383       7.72013089       3.72018272       0.02249755       0.00776988      -0.01961674
N        0.67756127       3.16461835       9.06045372      -0.01407212      -0.00113014       0.00330439
H        1.33605911       2.40504656       9.24279810      -0.00849565      -0.00043303      -0.00359325
H       -0.07345630       3.05497144       9.73677888      -0.00201556       0.00095772       0.00684658
H        1.16104455       4.02116282       9.30767251      -0.00920511       0.00330664      -0.00242053
N        8.67496557      11.93367766       6.21881249      -0.01220687      -0.01145679       0.01039174
H        9.30007249      11.54166398       6.91963631      -0.01186578      -0.01643779       0.00673763
H        8.54391322      11.24441714       5.47963223      -0.00629097      -0.01171514      -0.00082761
H        7.76787169      12.07563526       6.65751065      -0.00868383      -0.02000661       0.00394208
N        2.26932590      10.18317305       6.62397975      -0.00287005      -0.00505608       0.01721220
H        2.60436172      10.98407869       7.14770830      -0.01215090       0.00800493       0.00721389
H        1.75160537       9.59541022       7.26730613       0.01738143      -0.00777039       0.02750756
H        1.61503177      10.54605573       5.94122910      -0.01706114      -0.02675951       0.02153412
N        5.46362893      12.26043988       7.39019453       0.00324076      -0.00887543       0.00030601
H        5.09125214      12.64963991       6.53005612      -0.01108777      -0.01122542       0.00518438
H        5.03262011      12.78367674       8.14965565       0.00462518      -0.01393032       0.00730915
H        5.08437331      11.32225523       7.46874072       0.01823757      -0.01126487       0.00291744
N       12.35149710       6.26520431       5.73850475       0.00147486       0.00910434       0.00157943
H       12.14381757       5.28577083       5.89528307       0.00986102       0.00656720      -0.01036509
H       11.81831784       6.81497092       6.40475430      -0.00416911      -0.00227772       0.00440272
H       13.34227755       6.40524057       5.93387649       0.00185272       0.01380445       0.00747702
N        2.03180773      -0.05875945       1.44518807      -0.00994471      -0.01891783      -0.01511864
H        1.67348403       0.70645636       0.87917181      -0.00487018      -0.01524359      -0.02155785
H        2.77568810      -0.49298334       0.87757841      -0.00262144      -0.02048835      -0.00525419
H        2.53289693       0.39418052       2.20321803      -0.01842779      -0.01458396      -0.01772841
N        6.22849984       7.14989556       2.08482057      -0.00918515       0.00691833       0.00260494
H        5.83572899       7.61418525       2.89754713      -0.02926819       0.00384276      -0.00931387
H        5.75941662       6.23983459       2.02165588       0.00642097       0.00440352      -0.00680318
H        5.91466372       7.69229561       1.28810173      -0.00319765       0.00512231      -0.00967415
N        4.84813151      10.27865157       2.45210144       0.00420216      -0.00065115      -0.00506231
H        5.12020037      11.23615501       2.67784889       0.01563907      -0.00121335      -0.00412829
H        3.94646132      10.37904372       1.99791064       0.01391280       0.00995104      -0.01109893
H        5.47820188      10.00955223       1.69536801       0.01023611      -0.00842825       0.00066183
N        8.02199962       3.86408303       2.92051837       0.01243880      -0.01021878      -0.00079154
H        7.58458178       4.54676992       2.30935942       0.00980985      -0.01813031       0.01054559
H        7.96844256       4.26420148       3.85456652       0.00499496      -0.02223276       0.01033446
H        7.39747348       3.05898321       2.93021106       0.02170188      -0.02357991      -0.00556545
N        8.00991036      10.22520560       3.58907254      -0.00784972       0.00488126      -0.00395137
H        7.58045774      11.08143378       3.24713299      -0.01043228       0.00694889      -0.01242800
H        7.34003161       9.48048509       3.43235279      -0.00191268       0.00453784      -0.00222177
H        8.80789255      10.02299267       2.99981529      -0.00848680       0.00400007      -0.00069444
N        6.68191145       2.04710565       6.11359434       0.00118941       0.00248696      -0.00238216
H        6.83078443       1.28557945       6.76709149      -0.00683310      -0.01369514      -0.01842663
H        6.57315948       1.60387229       5.20176348       0.01496534       0.02153179      -0.01252134
H        5.77083780       2.43406345       6.34387875       0.00062943      -0.00351606      -0.00738642
N        6.10230405       5.04164811      10.24911438      -0.00266257      -0.00178599       0.02309288
H        5.63061979       4.72480081       9.39417327      -0.00194576      -0.02539387       0.02183219
H        6.98544855       4.55385410      10.32500755      -0.00018045       0.01079984       0.02610260
H        6.27524551       6.03268526      10.10755480      -0.02553437      -0.00773180       0.00395710
N        6.96588481       9.82651152      13.10493889       0.01811296      -0.01524717      -0.01610300
H        6.99738128       9.66750882      12.10021739       0.02254131       0.00150447      -0.01072573
H        7.54504690       9.13260559      13.56252846       0.01467982      -0.02055508      -0.01928647
H        7.41757402      10.72650894      13.23861805       0.02395065      -0.01331477       0.00257530
N        3.34273333      10.14753978       9.79632742       0.00280976       0.00813959       0.01303382
H        3.37574124      10.02502204      10.80217779      -0.00914399       0.00535754       0.01817591
H        2.69185217       9.44848551       9.44146503      -0.00252050       0.01912002       0.00709120
H        2.95239390      11.07791552       9.65796604       0.01961596       0.01206082       0.01406576
N        2.05051224       2.70527816      -0.35609173       0.01445571      -0.00127316       0.02109777
H        1.89723496       3.61610107      -0.77437582      -0.00257748       0.00369287       0.01972953
H        2.41388784       2.11299514      -1.10655828       0.00832780       0.00468296       0.01514059
H        2.81814921       2.84341528       0.29414440       0.01386821       0.00855999       0.00927401
N       13.10142483       3.18484805       5.88675582       0.00088790      -0.00709425      -0.00046015
H       13.35379112       2.26107814       5.55303959      -0.00874124       0.00256397       0.00217455
H       13.19008709       3.16345445       6.90722992      -0.00412669      -0.00176358       0.00335474
H       13.82968505       3.80863440       5.55217825       0.01316935      -0.00484153       0.00572216
N        8.55497214       4.47377928       6.05880262      -0.00349000       0.00792886       0.00380489
H        8.02051597       3.59342997       6.06112386      -0.00509607       0.00778262       0.01784764
H        8.51312344       4.82429372       7.00923989       0.00209191       0.02116348      -0.00384365
H        9.52817853       4.25075254       5.88291795      -0.00402412      -0.00062748       0.00387833
N        5.61193084       5.96641028       5.28990987       0.01380949      -0.00139022      -0.01083753
H        5.65980217       6.98637538       5.25017861       0.00010361       0.00112303      -0.01475055
H        5.25702661       5.64437808       4.39581395       0.01644868      -0.01030552      -0.00339979
H        6.56106806       5.61238588       5.37326348       0.02144751       0.01577366      -0.01194869
N        9.63785215       1.00325807       2.01167581      -0.01362264      -0.00132939      -0.01391560
H        8.72933251       0.54550597       2.09178382      -0.01913220       0.01453967      -0.01243056
H        9.41944751       1.96365476       1.75844215      -0.00082338       0.00172728      -0.00614264
H       10.02213387       1.05039489       2.96009449      -0.01272457      -0.00977275      -0.01531272
N       11.47554365      10.34658521      12.97158515       0.01725711       0.00549531       0.00534540
H       10.73089923      10.51997093      12.29801064       0.01174545       0.01335658       0.00340880
H       11.22807930       9.51324219      13.50007593       0.00681468       0.01945964       0.01470584
H       12.32806978      10.08975482      12.46551942       0.01102786      -0.00297300       0.00497039
N        1.76275574       5.97696933       2.70546754       0.00739063      -0.00213291       0.00499320
H        0.78832378       6.22742179       2.59249653       0.00248863      -0.02032360       0.00989417
H        1.80758256       4.98558367       2.92087933       0.02780005      -0.00027285       0.00514128
H        2.22283322       6.09613203       1.81027855       0.00126594       0.00870291       0.00289051
N        4.36904134       4.55464459       7.75924018      -0.01303182       0.00208583       0.00645049
H        4.76804569       5.01557022       6.93607671      -0.00739790       0.00586849       0.01434392
H        3.57416278       5.12032508       8.03561497      -0.01626599      -0.00915954       0.00278412
H        3.99128379       3.66641161       7.43700264      -0.00606770      -0.00192994      -0.00651852
N        6.57789545      10.91771119      10.16411312       0.00471312       0.00227186      -0.00001733
H        6.74625506      11.66897149      10.82533567       0.01496864      -0.01593360      -0.00218327
H        5.57278023      10.85900846      10.01642658      -0.00807775       0.00489496       0.01024248
H        6.96362089      11.24818787       9.28513169      -0.00999159      -0.00740708      -0.00483263
N       -0.81740489       2.16910213       0.61834471       0.00077221       0.01054168       0.01655181
H       -1.02231923       2.75450579       1.43484235      -0.01391496       0.01273127       0.00130422
H       -1.33942446       2.53267562      -0.17993976       0.01473691       0.00919704       0.00051696
H        0.17403122       2.29115120       0.36997908       0.00441031       0.01514968       0.02850287
N        5.36727337       9.15966585       5.29379249       0.00397022       0.00036070       0.00948799
H        5.13329595       9.50384961       4.35710486      -0.00112794      -0.00427726       0.01574033
H        6.11701436       9.74551830       5.64367985       0.00821778       0.00138957       0.00512605
H        4.54999800       9.32505741       5.87391687       0.00819382      -0.00076392       0.02150474
N       12.21526607       6.08349306       9.49529754      -0.01136762       0.00181157      -0.00447585
H       12.21744613       5.21242560       8.97638610      -0.00818951       0.00429209      -0.00627719
H       11.89698016       6.79450021       8.84526406      -0.01755249       0.00417890      -0.01249051
H       11.49317823       6.01282007      10.20503058      -0.00441159       0.00411137      -0.00756591
N        3.69047156       5.85083988      12.02145183      -0.01731417       0.01089561      -0.01971367
H        3.96163049       6.82835052      12.00553160      -0.01016439       0.01329906      -0.01445890
H        2.85098844       5.79426214      11.45668176      -0.00594385       0.01437181      -0.02605525
H        4.43354591       5.37135326      11.49774231      -0.00967039       0.00902439      -0.00976390
N        2.00440567       7.44083021       8.89887782       0.00167562      -0.00945911      -0.01106025
H        2.88762151       7.14150517       9.30051683       0.00306198      -0.01433137      -0.00432000
H        2.03635720       7.21110645       7.90521533       0.00326246      -0.01021256      -0.00446858
H        1.25664047       6.87961609       9.30486239      -0.00065055      -0.00618332      -0.00754629
N        4.41381458      11.96837505      12.85879997       0.00896327       0.00637905      -0.00452343
H        4.97887020      12.57097504      13.45315012       0.00241887       0.00542970      -0.01308157
H        4.26410060      12.44755243      11.97415706      -0.00197560       0.00373678      -0.00991878
H        4.97571267      11.14107230      12.69338116       0.01288195       0.00563571      -0.01359504
