196
Lattice="19.189003545851065 0.0 0.0 0.0 19.189003545851065 0.0 0.0 0.0 19.189003545851065" Properties=species:S:1:pos:R:3:forces:R:3 energy=-2270406.5 stress="7.474940503016114e-05 -8.277682354673743e-05 8.766513565205969e-05 -8.277682354673743e-05 -0.00021278987696859986 4.751270535052754e-05 8.766513565205969e-05 4.751270535052754e-05 -0.00015783995331730694" pbc="T T T"
Eu      20.76016728      20.66673059       0.91566821      -0.00293258       0.00932509      -0.00270092
O        4.77148241      18.11314724       2.77897837      -0.00651415       0.00724912      -0.01608038
O        3.79682285      15.79429310       3.57771324      -0.01062143      -0.00275302      -0.00024301
O        4.01935857      17.74983401       5.26120146      -0.00745392       0.00001526      -0.00025797
O        6.17543729      16.61315137       4.37702499       0.02494121      -0.00292718       0.00392777
Mn       4.73096568      17.07537072       3.98091796      -0.03376922      -0.00325024      -0.00328863
O        8.19892018      15.43945955      12.22928253      -0.00375414       0.00118795      -0.01319593
O       10.45787309      15.79483621      10.95973802       0.00196397      -0.00014907      -0.00257754
O       10.41389626      14.35811014      13.16098917      -0.00945485      -0.00069094      -0.00218153
O       10.05125654      16.93202931      13.26273071      -0.00887090       0.00046802      -0.00482845
Mn       9.77226321      15.62818296      12.40349393      -0.00563913      -0.00104314      -0.00560684
O        6.75368121      15.07439737      -0.27577193       0.01097441       0.01435447       0.00808382
O        8.65318720      13.44822374       0.52233094      -0.00061512       0.00183713       0.00407416
O        6.13763849      12.91945987       1.06784206       0.00219250      -0.00431848      -0.01538935
O        7.35728031      14.87774041       2.25810379      -0.00800386      -0.01685858       0.01650500
Mn       7.22766991      14.08416742       0.88372488       0.00255889       0.00025725       0.00119983
Cl      -1.48971525       4.54452134      20.53953374       0.00621021       0.02666715       0.01603745
Cl       1.13124808       4.07432163      19.22626889      -0.00840047       0.01247890      -0.01076545
Cl      -0.25851131       6.58050425      18.89728003      -0.02086002       0.01309333      -0.01303371
Cl      -1.34433321       4.18398255      17.66933416      -0.01362932       0.00487451       0.00740578
C       -0.57982529       4.86997614      19.07904553      -0.01137844       0.01493514       0.00219434
Cl      12.26835665       9.41100647      12.28721876      -0.00210047      -0.00309178      -0.00047732
Cl       9.76285843       9.66210352      10.85445418      -0.00083026      -0.00309585      -0.00261772
Cl      10.60991986      11.77324358      12.64808249      -0.00064177      -0.00100112      -0.00515829
Cl       9.76153498       9.22036851      13.72784113      -0.00301743       0.00104403      -0.00213701
C       10.60292321      10.03776332      12.37756859      -0.00146433      -0.00132838      -0.00263321
Cl       3.23869224       3.85134251      16.33150138       0.01255858       0.00072628       0.00924137
Cl       2.69396565       4.27102300      13.52457556       0.00255395      -0.00175828       0.01183948
Cl       4.22106137       6.23752395      15.01472682      -0.00098991       0.00474420       0.00735384
Cl       1.38505010       5.93573515      15.50353318       0.00128174      -0.00576515       0.01488843
C        2.89041290       5.08922480      15.09650256       0.00369773      -0.00042085       0.01106715
Cl       5.85690440      11.09998865       6.19522035      -0.00256367       0.00316584       0.00437047
Cl       6.08587724      13.29175468       4.29821902      -0.01185751      -0.00148338      -0.00521421
Cl       5.62920149      13.84918557       7.10022917      -0.01481499       0.00511199      -0.00611693
Cl       3.52060029      12.65648927       5.50534418      -0.00797248      -0.01181829      -0.00483932
C        5.30305863      12.73920709       5.75533430      -0.00935712      -0.00134973      -0.00341201
Cl       8.57998244       8.31494418       0.06792305       0.00114197      -0.00686249       0.00545336
Cl       6.61408183      10.40445068       0.52106398       0.00125241      -0.00617552      -0.00182679
Cl       6.07611913       7.67961528       1.38261548       0.00405276      -0.00156337       0.01416779
Cl       6.10723632       8.32918526      -1.44656851       0.00053298      -0.01607028       0.00916249
C        6.84489674       8.70207697       0.13001205       0.00105963      -0.00805494       0.00683881
Cl      13.22737687      19.43421469       3.26888130       0.01042348      -0.00150526       0.00360122
Cl      13.13728088      17.22391043       1.38950077       0.01064640       0.00359803      -0.00366756
Cl      15.42554451      17.54169463       3.13393963       0.00723022      -0.00561714       0.00091380
Cl      14.98658728      19.41107967       0.96324127       0.01406264       0.00314683       0.00706634
C       14.17683698      18.39811664       2.17806096       0.01066676       0.00021066       0.00222253
Cl       1.65584849      17.42954602       7.40115042       0.00669962      -0.00041273       0.01006496
Cl      -0.47219791      19.71933489      -0.10221067       0.00689688      -0.00222732       0.02074783
Cl      -0.54926778      16.82257811       5.67015927       0.00416714      -0.00087184       0.01183188
Cl       2.05777433      15.70077279       5.16839180       0.00212827      -0.00283352       0.00965551
C        1.06266025      16.59316760       6.09026786       0.00468652      -0.00047874       0.01131404
Cl       5.84453077       2.10480863       2.17321325       0.01042131      -0.00703886       0.01722136
Cl       8.00624913       3.45898774       3.56012909      -0.00034213      -0.00561494      -0.00130720
Cl       8.45887130       0.86607559       2.34094437      -0.00268725      -0.00438145      -0.01117212
Cl       6.82678447       1.07511884       4.71840043       0.01898253      -0.01114997       0.00497329
C        7.28477019       1.86203488       3.20449680       0.00135782      -0.00753810       0.00139214
Cl      16.09077873       6.08130955       9.96836470       0.00312996       0.00089894      -0.00031121
Cl      13.79633743       5.14828521       8.45873008       0.00389166      -0.00137541       0.00100076
Cl      13.98238927       7.93603400       9.24393615       0.00095656      -0.00178397       0.00066566
Cl      13.49693957       5.89765038      11.24880160       0.00404119      -0.00215283       0.00178793
C       14.34011144       6.26617348       9.72889917       0.00271985      -0.00114855       0.00133274
Cl       1.22177236      10.00570260       4.54670177      -0.00363683       0.00132948      -0.01315397
Cl       0.34347704       9.67011008       1.81218495       0.00685510      -0.00172338      -0.01842731
Cl       3.11423122      10.35259698       2.36559131       0.00087798       0.00936813      -0.00828521
Cl       1.02186876      12.31010791       2.78936221      -0.00711113       0.00029260      -0.01186685
C        1.44353075      10.58385234       2.88016928      -0.00150792       0.00211518      -0.01276713
Cl       4.09860517       7.73763412       4.88107597       0.00366504       0.01772428      -0.00400670
Cl       4.87906417       5.06991089       4.07161526       0.00936788       0.01820111       0.00012316
Cl       2.48772193       6.29149829       2.96728978       0.00649169       0.00970559      -0.00004852
Cl       2.55315416       5.45459174       5.75966508       0.01018916       0.01489440       0.00180241
C        3.51753472       6.14403002       4.42890090       0.00717416       0.01513290      -0.00031284
Cl      16.88441361      16.10009041      -0.37174549       0.00381084       0.00037259      -0.00126711
Cl      18.62334272      15.40808985       1.83809479      -0.00063747      -0.00346605       0.00219095
Cl      18.26409246      13.54371867      -0.35943121       0.00341535       0.00180933      -0.00369513
Cl      16.08742786      14.03211875       1.49520911      -0.00058848      -0.00235786      -0.00755644
C       17.45456852      14.76887486       0.64161956       0.00213984      -0.00069425      -0.00198084
Cl       2.39136616       9.51564226      14.00638415       0.00137556      -0.01032101       0.00569147
Cl       2.71750654      10.42071882      11.27353512      -0.00311773      -0.00339270       0.00647226
Cl       2.33202352       7.60148315      11.83038359       0.00789262      -0.00557265       0.00064726
Cl       4.82382315       8.90143427      12.55606276       0.00250679       0.00181602       0.00349270
C        3.06849686       9.11316975      12.42013226       0.00186147      -0.00399089       0.00415918
Cl       7.45350890      17.16157066       9.87797402      -0.00240079      -0.00469762      -0.00961488
Cl       9.05269968      17.88948338       7.57861926       0.00017548       0.00772178      -0.00436264
Cl       7.49652968      19.91206924       8.95347866      -0.01007463      -0.00304985       0.00564894
Cl       6.16334741      17.88150965       7.36525963       0.00300705       0.00185752      -0.01246244
C        7.53407083      18.19126071       8.44979162      -0.00182595       0.00043298      -0.00545912
Cl      17.87110920       9.73002333      12.74306863       0.00723433      -0.00060096      -0.00492105
Cl      15.31190061       9.01757224      13.89864348       0.00756437       0.00016328      -0.00025519
Cl      17.68482203       9.04445298      15.56149803       0.00916080       0.00296041      -0.00394842
Cl      17.35876819       6.98955251      13.54498664       0.00583165       0.00066328      -0.00259069
C       17.05086340       8.69916496      13.93033531       0.00780787       0.00109969      -0.00312573
Cl      10.93445363      10.91143894       3.97461822      -0.00121903       0.00137079      -0.00120902
Cl      10.70974090       8.16372112       4.87354074       0.00950894       0.00044763      -0.00276285
Cl       8.35390783       9.61945774       4.01862843       0.00324953      -0.00616425       0.00133851
Cl       9.67896669      10.32094052       6.51222319       0.00495005      -0.00181542      -0.00027430
C        9.91758711       9.75827107       4.84183820       0.00379513      -0.00220193      -0.00018486
Cl       1.81991435       2.95574209       3.32104576       0.00578213       0.00547934      -0.00564122
Cl       3.37029991       1.45414063       5.26716245       0.00100738       0.01222238       0.00094355
Cl       1.73133806       0.04886867       3.28640896       0.01904648       0.00517446      -0.01600136
Cl       0.48174798       1.52635038       5.48256553       0.00124238      -0.00063083      -0.01373493
C        1.87522017       1.50312395       4.43443579       0.00592715       0.00280800      -0.00851792
Cl      17.24679416       0.98989886      12.66349416       0.01209952      -0.00343686       0.00694141
Cl      16.53441645       2.13459218      15.22687449       0.00391792      -0.01236797       0.00958048
Cl      15.86907869       3.54384546      12.77941901       0.00763193      -0.00437936       0.01349109
Cl      18.63296558       3.34852707      13.62396271       0.00594699      -0.00589535       0.01875702
C       17.06230211       2.51429116      13.56221826       0.00714034      -0.00653876       0.01172249
Cl      11.34935152      16.54320490       4.49632074      -0.01465238       0.00403780      -0.00772537
Cl      10.61733957      14.35143854       2.74684656      -0.02253130      -0.00108841       0.00142789
Cl       9.93883758      14.24369653       5.55482576      -0.01006913       0.00683123       0.00473070
Cl      12.71296346      13.99946132       4.73195882      -0.01389599       0.00418440      -0.00696522
C       11.14480152      14.78121787       4.36689161      -0.01538053       0.00348146      -0.00250484
Cl       8.30587927       4.06557410      11.53022104      -0.01668474      -0.01079209      -0.01710254
Cl       6.70205272       3.62504962      13.90512154      -0.00276352      -0.00175238      -0.00730345
Cl       5.63093538       5.16445241      11.68484111      -0.00986874       0.00706344       0.00152999
Cl       7.74373300       6.27144374      13.32335000       0.00857535      -0.00622910      -0.01554404
C        7.09665472       4.78615988      12.59957040      -0.00558987      -0.00306464      -0.00902274
Cl      10.69844021      15.14549804      18.39303271      -0.00448388       0.00534827      -0.00175196
Cl      11.32074247      15.16814881      15.57051317      -0.00784019       0.00273472      -0.00147367
Cl      13.46379368      15.36930329      17.51291178      -0.00596708      -0.00097346      -0.00287655
Cl      11.63322828      17.58733859      17.13049504       0.00033920       0.00328386      -0.00068268
C       11.76329661      15.81086932      17.14264072      -0.00531845       0.00269507      -0.00190276
Cl      15.87612216      14.30938855      11.16353406       0.00103396      -0.00336075       0.00937969
Cl      13.00985461      13.95095873      10.96456824      -0.00473613       0.02270761       0.01815608
Cl      14.46052286      12.77070831      13.17081834      -0.00800268       0.00417009       0.00913286
Cl      14.80336093      11.70078244      10.50347595      -0.02487142       0.00907803       0.00499696
C       14.51647284      13.18891582      11.44912759      -0.00911239       0.00860152       0.01038587
Cl      15.94323599       8.71388668       3.20273261      -0.00257474      -0.00201420      -0.00309092
Cl      15.15103805       7.42985587       0.72488292       0.00007412      -0.00047350      -0.00432453
Cl      15.82856580      10.25330604       0.75757330       0.00164574      -0.00167370      -0.00348583
Cl      13.38471492       9.33272100       2.01569994      -0.00077558      -0.00082020      -0.00503539
C       15.07243739       8.94008435       1.67604281      -0.00013964      -0.00091586      -0.00410898
Cl      12.32332290       6.70107663      14.91635628      -0.00890154      -0.00873682      -0.01740333
Cl      14.74240094       5.73962625      16.19974809      -0.00426599       0.00657205      -0.01339684
Cl      12.79796908       3.85286751      15.14855784       0.00008383      -0.00583571      -0.00118122
Cl      12.18210832       5.41993933      17.51524592      -0.00272545       0.00768383      -0.01032725
C       13.00474011       5.42511110      15.93966984      -0.00355374      -0.00037091      -0.01067494
Cl      12.23293841      11.49569930      15.65691284      -0.00158286       0.00081526      -0.00127679
Cl      12.53150976      11.88223866      18.50706426      -0.01084504      -0.00766057       0.00082374
Cl      14.87394022      11.84137724      16.78898821      -0.00586390       0.00459448       0.00681089
Cl      13.39132084       9.39960006      17.28900372      -0.00039507      -0.00158983      -0.00548766
C       13.24436285      11.15843305      17.06391927      -0.00451930      -0.00120509       0.00003958
Cl      16.74182251       1.19882704       6.93014588      -0.00298383       0.00028914       0.00101638
Cl      15.46622315       1.61682695       9.48491502       0.00600138      -0.00113018       0.00612187
Cl      18.21189767       2.46552719       9.10465015       0.00611596      -0.00319935      -0.00341262
Cl      17.58820393      -0.35325540       9.22887935       0.00273854      -0.00210369      -0.00007330
C       16.98695405       1.23644599       8.69729288       0.00387518      -0.00195594       0.00010832
Cl      17.80040922       4.81355523       6.72041275      -0.00400046       0.00256988      -0.00057340
Cl      18.47632362       6.52732094       4.48049742      -0.00037929       0.00711164       0.00444448
Cl      16.39727329       7.31503166       6.34079100      -0.00079331       0.00699225       0.00085831
Cl      15.94508462       5.10350362       4.51250043       0.00002730       0.00835451      -0.00302610
C       17.15771270       5.94823522       5.51359326      -0.00187251       0.00595081       0.00154597
Cl       1.76838460      14.18142246      15.87697792       0.00413141       0.00264284       0.00950900
Cl       2.71530894      11.72707318      17.07247999       0.01195019       0.00500304       0.00369823
Cl       4.25208818      14.16619652      17.40589129       0.02352720      -0.00193447      -0.00172698
Cl       4.13898442      12.88569626      14.81411523      -0.00610152      -0.00167970      -0.00201547
C        3.24508237      13.24303515      16.29941354       0.00921234       0.00589357       0.00547117
Cl       8.14299653      13.26269232       9.99527542      -0.00727952      -0.00323620      -0.00831279
Cl       5.40011807      13.82800316      10.77521527      -0.00496501       0.00116950      -0.00145869
Cl       7.08166071      12.21600186      12.48147129      -0.00156415       0.00117956      -0.00397915
Cl       6.17169600      11.15769383       9.93590877      -0.00977457      -0.00021613      -0.00039572
C        6.71114720      12.62294555      10.79619191      -0.00616567      -0.00012882      -0.00303377
Cl       2.73464710      -1.71945704      16.05343739       0.01809229      -0.00225431       0.01011100
Cl       3.33700514       1.07648348      18.38836912       0.02400106       0.00249632       0.01920307
Cl       0.89435768       0.43602783      15.66577902      -0.00521410      -0.01960683      -0.00084434
Cl       3.54897769       0.62753477      14.63122120      -0.01542294      -0.00002193      -0.00711912
C        2.39824280      -0.21996147      15.46017871       0.01224026       0.00491011       0.03785008
Cl       4.87687460       1.57774465      11.63445143       0.00056499       0.00726898       0.00008497
Cl       3.70574969      -0.49618588       9.99227530       0.00322545      -0.00307098       0.00071590
Cl       3.70036284       2.26288190       9.08385334      -0.00567859      -0.00544272      -0.00081849
Cl       1.99486746       1.45976944      11.28803370       0.00104910      -0.00403832      -0.00232986
C        3.57062528       1.19532299      10.49323194       0.00163043      -0.00312237       0.00141320
Cl      14.26122270      17.30388313       9.52026805      -0.00025171      -0.00576460       0.00048554
Cl      12.16389418      16.02132709       8.01461429      -0.00499970       0.00315899      -0.00148388
Cl      14.65541339      16.73109870       6.70426946      -0.00157386      -0.00741783       0.00112990
Cl      12.79821975      18.79958155       7.50612485       0.00579453       0.00078052       0.00050487
C       13.45611930      17.20618894       7.94521512      -0.00017716      -0.00199622       0.00026128
Cl      11.42082454       2.27905721      10.35432839       0.00147178      -0.00350058       0.00337723
Cl      13.23989768       0.89229156      12.13954794      -0.00134814       0.00378888       0.01010475
Cl      11.04807784      -0.55091970      10.91368666       0.00863060      -0.00576150       0.00183165
Cl      10.51484162       1.40599094      12.97497065      -0.00631946      -0.00683817      -0.00071812
C       11.53527361       0.98204837      11.58991727       0.00042526      -0.00357911       0.00315921
Cl       0.34210538      13.10166752      10.99199943       0.01149110      -0.00449118       0.00782710
Cl       1.84888649      13.72059888       8.59301192       0.00875589      -0.00679651       0.00454867
Cl       1.95241163      15.50851306      10.87269071      -0.00391257       0.00473040      -0.00528532
Cl      -0.47862538      15.30178792       9.30664679      -0.00386205      -0.01984899      -0.00335859
C        0.92233189      14.39730658       9.94602983       0.00288188      -0.00643754       0.00048387
Cl      17.19767847      12.02577111       4.85366694      -0.00456604       0.00683457      -0.00559378
Cl      15.12171478      10.86553818       6.51682805       0.00034767      -0.00443590      -0.00749517
Cl      16.13284428      13.51786424       7.09358333      -0.01657486       0.00154865      -0.00808269
Cl      17.80959726      11.19499743       7.56547080      -0.00262874       0.01152143      -0.00455403
C       16.56917266      11.90192697       6.50167646      -0.00538963       0.00393239      -0.00639093
Cl       4.94482505       7.94994109       8.61631485       0.00061715      -0.00905268      -0.00530294
Cl       7.12406120       7.76450499       6.70495568       0.00631991      -0.00995556       0.00039464
Cl       6.12960002       5.37542837       7.99872924       0.00537312      -0.00825429       0.00289684
Cl       7.62789736       7.34982548       9.51831554      -0.00071916      -0.00203207       0.00232464
C        6.45968729       7.11210398       8.20944249       0.00310931      -0.00744359       0.00000787
