190
Lattice="13.773337468752969 0.0 0.0 0.0 13.773337468752969 0.0 0.0 0.0 13.773337468752969" Properties=species:S:1:pos:R:3:forces:R:3 energy=-450181.8125 stress="-0.001316803740337491 8.874884952092543e-05 -0.0003141843480989337 8.874884952092543e-05 -0.0013425886863842607 0.0001263083759113215 -0.0003141843480989337 0.0001263083759113215 -0.0003125213843304664" pbc="T T T"
Eu      17.37329297      11.00726888       3.64653779       0.00844584      -0.00909108       0.01158129
S        5.95828198      11.07277490       9.01832094      -0.00444829      -0.01030648       0.00502318
F        7.84394507      12.68229113       8.04042398      -0.00551206      -0.00420672       0.01465808
F        7.92939368      10.66432592       7.26358825       0.01596856      -0.00341606       0.01599547
F        8.63046909      11.07850058       9.27016584      -0.00948012       0.00029002       0.02379423
O        5.83419163       9.63005431       8.88881317       0.00329280      -0.01147795       0.00371742
O        5.16231458      11.82488483       8.05516369       0.00016606      -0.02181959      -0.00918901
O        5.98944878      11.59943575      10.35854148      -0.02393293      -0.00937992       0.00290418
C        7.67863657      11.38705618       8.38671738      -0.00223112      -0.00494561       0.01421171
S        5.62098780      10.31203562       0.77060095      -0.01433051      -0.01458007      -0.01944335
F        3.48815726      11.84744048       0.27702071      -0.00227594      -0.00236689      -0.03476810
F        5.36190080      12.74671671      -0.34453909      -0.00384670       0.01122712       0.02465676
F        4.85130399      12.61104840       1.78557972      -0.03935216      -0.01420245       0.01527819
O        7.00798917      10.62400109       0.93233722      -0.01336783       0.01244892       0.01478483
O        5.19158562       9.48726576      -0.31581835       0.01438124       0.01818466       0.00809503
O        4.93999915       9.95462002       2.05887353      -0.01749381      -0.01258098      -0.00718558
C        4.80642392      11.96127646       0.53669145      -0.01468907      -0.00131720       0.00572792
S        1.45413806      12.18159264       5.50327682      -0.00131983      -0.00735694      -0.00795126
F       -0.77328014      11.94933591       4.02827160       0.00455526      -0.00577514      -0.01403889
F       -0.45614339      10.34002825       5.43132838      -0.00194843      -0.00291896      -0.00838830
F        0.81140911      10.49053624       3.65428418       0.00173274      -0.01023176      -0.00585878
O        2.35088677      11.09181792       5.89554125      -0.00321286      -0.00638700      -0.00153323
O        0.83095723      12.95635796       6.52441916      -0.00536057      -0.00505103      -0.01118404
O        2.05900526      12.90828102       4.36034869       0.00255938      -0.00981064      -0.00677508
C        0.13981495      11.20991918       4.63757212       0.00117269      -0.00657082      -0.01003697
O        6.80343366       1.09517599      10.25985445       0.00245918       0.00105309       0.00124663
C        7.96468389       1.83683800       9.95926733       0.00217813      -0.00027756      -0.00288804
C        5.61793407       1.79426241       9.94992468       0.00238973      -0.00151317      -0.00441395
C        9.16844871       0.98149702      10.27836358       0.00285217       0.00416473       0.00570814
C        4.44387059       0.85927287      10.10985795       0.00257778      -0.00113565      -0.00152501
H        7.96122511       2.11124776       8.89188059       0.00339280      -0.00907600      -0.00494975
H        7.97664757       2.77473977      10.53644317       0.00020049       0.00418299      -0.01029745
H        5.52476105       2.67030113      10.61730110       0.00082578       0.00177884      -0.00932336
H        5.66887107       2.17976553       8.91884541       0.00390987      -0.00680891      -0.00619864
H       10.08941630       1.51852120      10.04522713       0.00216731       0.00262164       0.00028902
H        9.17677341       0.71079685      11.33501507       0.00334403       0.01498350       0.00823958
H        9.14097914       0.06238707       9.69724714       0.00352018      -0.00156820       0.01495899
H        3.51086207       1.39139790       9.91087512       0.00274478      -0.00204539      -0.00456079
H        4.52953967       0.01519175       9.42714959       0.00296457      -0.00408804       0.00222081
H        4.41382891       0.45991986      11.12373410       0.00154312       0.00313105      -0.00001656
O       11.91572603      10.76119403       8.77230475      -0.00068420       0.00025386      -0.00183982
C       12.54188543      10.11380454       9.85812063      -0.00610759       0.00092858       0.00143169
C       12.09701447      12.16504214       8.80402759      -0.00152990       0.00022042      -0.00139794
C       12.13855983       8.66019118       9.84506105      -0.00506555       0.00078404      -0.00032931
C       11.37334218      12.76217631       7.62332894      -0.00100613      -0.00026104      -0.00188434
H       13.63536220      10.22302003       9.78320577      -0.00593615       0.00179809       0.00763542
H       12.23409620      10.58774192      10.80282851      -0.01172149       0.00089088      -0.00042641
H       11.69341321      12.56491804       9.74670696      -0.00259084      -0.00029248      -0.00173622
H       13.16860277      12.40671832       8.76917818      -0.00172025       0.00096252      -0.00036670
H       12.59372837       8.13274645      10.68309248      -0.00991486       0.00149011       0.00276048
H       11.05503785       8.57278524       9.92105720      -0.00530499       0.00029740      -0.00681673
H       12.45896956       8.18253702       8.91875685       0.00085552       0.00048338       0.00210796
H       11.46979708      13.84820096       7.63066068      -0.00255257      -0.00010017      -0.00117829
H       11.79460523      12.38351613       6.69280013       0.00068374       0.00090300      -0.00145070
H       10.31608674      12.50558120       7.65636488      -0.00059217      -0.00186250      -0.00300072
O        4.37151314       9.30661104       5.05018223       0.01529484      -0.01364765       0.00577004
C        5.58291951       9.86203358       5.65311047       0.02331214      -0.02165365      -0.00359470
C        3.80934098       8.21091310       5.81346463       0.01569030      -0.01329883       0.00638798
C        5.72538191      11.29703622       5.16511875       0.02188292      -0.02142450      -0.00239667
C        2.47698432       7.81787465       5.22307639       0.01601729      -0.01210439       0.00523536
H        5.46741045       9.84516683       6.73481030       0.03301287      -0.02515966      -0.00288594
H        6.43064948       9.24999843       5.34218400       0.01750234      -0.02390245      -0.01398638
H        4.52444413       7.38366057       5.77994647       0.01484576      -0.01403835       0.00658637
H        3.71406176       8.54670190       6.84938240       0.01617359      -0.01319367       0.00638968
H        6.56514287      11.77494562       5.67011387       0.02562192      -0.02163225      -0.00849649
H        5.94927189      11.36869934       4.08103078       0.01378302      -0.02108957      -0.00410877
H        4.86267475      11.91480840       5.49363374       0.02390934      -0.02248107       0.00555762
H        2.14157388       6.89076139       5.68947105       0.01118140      -0.00771646       0.00991730
H        1.71600751       8.57399330       5.41549568       0.01849058      -0.00804970      -0.00159355
H        2.54548489       7.63526723       4.14747181       0.01865657      -0.01876757       0.00670627
O        8.42935349       2.82972930       4.75836971      -0.00404656       0.00101098       0.00515831
C        8.10769662       1.68753357       3.99017055      -0.00742376       0.00167629       0.00598761
C        9.78182323       3.19952060       4.55122207      -0.00489554       0.00123072       0.00009239
C        6.69756574       1.25653721       4.29929751      -0.00694257       0.00331907       0.01032782
C       10.15359598       4.34910823       5.45212811      -0.00208887       0.00081527      -0.00075364
H        8.22191368       1.91799500       2.91853665      -0.01055254       0.00179377       0.00579035
H        8.81748400       0.87719178       4.21873103      -0.00764430       0.00095698       0.00355382
H       10.42688605       2.33673181       4.74432506      -0.00389454       0.00134492      -0.00285162
H        9.93223499       3.47250576       3.49594214      -0.00921153       0.00185424      -0.00028896
H        6.43436696       0.40560499       3.66843351      -0.01003270       0.00394317       0.01087238
H        6.60380545       0.96339789       5.34543734      -0.00405559       0.00278699       0.01027188
H        5.99570816       2.06731006       4.10091188      -0.00655045       0.00413065       0.01276383
H       11.19544860       4.62065391       5.27991054      -0.00247116       0.00017813      -0.00314041
H        9.52982124       5.22013467       5.25611614      -0.00210242       0.00111818       0.00085342
H       10.03383141       4.07560062       6.50072301       0.00007023       0.00073253      -0.00058475
O       12.58779444       2.09051260       3.84239429       0.00042783       0.00407612       0.00101702
C       12.97339442       1.31430852       4.97003259       0.00308406       0.00363547      -0.00036472
C       12.36873323       1.26881791       2.71039608       0.00251403       0.00479269       0.00019598
C       13.02304686       2.16721129       6.21506292      -0.00096508       0.00175890       0.00090849
C       12.14319835       2.14006364       1.50052437       0.00013388       0.00506920       0.00100374
H       12.25828765       0.49208383       5.11085659       0.00635096       0.00061998      -0.00204057
H       13.95176825       0.86635461       4.77167572       0.00478262       0.00763735      -0.00066030
H       13.23556576       0.60944665       2.55663702       0.00421700       0.00732276      -0.00040933
H       11.49903219       0.61778515       2.89200595       0.00441074       0.00231159      -0.00031282
H       13.40105090       1.56293419       7.03895492       0.00144042       0.00232320       0.00019635
H       13.68855623       3.02105356       6.09065690      -0.00485040       0.00488992       0.00225580
H       12.03516542       2.54190009       6.48054960      -0.00257349      -0.00303725       0.00117424
H       11.95065926       1.52203216       0.62269199       0.00187439       0.00513618       0.00069643
H       11.28498357       2.79493413       1.65394127      -0.00165682       0.00256132       0.00139239
H       13.01736539       2.76131820       1.30232188      -0.00164190       0.00750165       0.00146659
O        1.32012510       4.05654600      12.04901926      -0.00158411      -0.00079082       0.00012592
C        1.91583978       5.32439956      11.84221293      -0.00002906      -0.00243717      -0.00550304
C        2.28759028       3.06425224      12.35053604      -0.00267102      -0.00167084      -0.00000373
C        0.82466276       6.35404603      11.69805559       0.00150374      -0.00048584      -0.00248873
C        1.60019938       1.72347105      12.42451149      -0.00424922      -0.00070339       0.00118405
H        2.57204740       5.57046617      12.68573712       0.00457752      -0.00201520      -0.00942272
H        2.54992638       5.29544098      10.94375315      -0.00465018      -0.00581088      -0.00843966
H        3.06719056       3.05587634      11.57375456      -0.00321063      -0.00322687      -0.00035295
H        2.77411018       3.30669682      13.30525522      -0.00170361      -0.00169714      -0.00047135
H        1.25780547       7.34253778      11.53804387       0.00262170      -0.00203274      -0.00795968
H        0.18343581       6.11359128      10.84969528      -0.00367868      -0.00160026       0.00186025
H        0.21448001       6.38955651      12.60074528       0.00679071       0.00360500       0.00074963
H        2.32692993       0.93441366      12.62022137      -0.00551295      -0.00139575       0.00265953
H        0.85556692       1.71896345      13.22165749      -0.00492288       0.00123994       0.00051335
H        1.10078681       1.49796064      11.48193697      -0.00374162      -0.00130252       0.00112058
O        3.32367783       2.84530215       2.20254558       0.00541253       0.00609559       0.00308137
C        4.05234957       1.73194976       1.72938225       0.00306201       0.00656780      -0.00126517
C        2.27285900       2.44743938       3.07304072       0.00402185       0.00538495       0.00074130
C        5.25063831       2.21162002       0.94590416       0.00350639       0.00733155       0.00012794
C        1.59765876       3.67763801       3.61686569       0.00615487       0.00470042       0.00490627
H        4.37382698       1.12704100       2.58629411       0.00231166       0.00264999      -0.00388014
H        3.40323360       1.09466345       1.10825545       0.00155479       0.01022029      -0.00321668
H        1.55745441       1.81518897       2.52536706       0.00302386       0.00913739      -0.00208747
H        2.68374495       1.83446168       3.88713618       0.00209334       0.00153795      -0.00125068
H        5.84454987       1.36562631       0.60037119       0.00215534       0.00754637      -0.00252136
H        4.94375337       2.78697126       0.07191033       0.00458410       0.01070224       0.00196809
H        5.87866363       2.84718981       1.57210668       0.00444843       0.00415979       0.00220387
H        0.79832185       3.39186030       4.29174797       0.00712365       0.00356618       0.00556615
H        2.31865015       4.29907150       4.14785116       0.00753370       0.00256428       0.00547162
H        1.15332423       4.26615794       2.81655026       0.00542838       0.00728715       0.00733460
O        7.83318784       8.24579860       3.31420883       0.00162500       0.00500947       0.00755189
C        7.78795846       6.84130296       3.16468993      -0.00235653       0.00508443       0.00487754
C        9.12290056       8.70204386       3.68827180       0.00454502       0.00111955       0.00179632
C        6.40740594       6.44214721       2.70872268      -0.00407064       0.00906653       0.00694023
C        9.12252019      10.21144030       3.69495633       0.00835365       0.00104511       0.00687832
H        8.54629789       6.52243351       2.43199547      -0.00470310       0.00497186       0.00276956
H        8.03700840       6.35175790       4.11759039      -0.00149259       0.00307947       0.00337553
H        9.38360378       8.30278404       4.68041337       0.00836465      -0.00294912      -0.00127405
H        9.86662362       8.31858448       2.97409175      -0.00060686       0.00185509      -0.00356591
H        6.34499580       5.35828065       2.59879486      -0.00686316       0.00932524       0.00621828
H        5.65623385       6.75813251       3.43436279      -0.00222609       0.01007394       0.00833939
H        6.17230992       6.90958863       1.75212436      -0.00458324       0.01021017       0.00772218
H       10.11373153      10.58415063       3.95748022       0.01211944      -0.00200457      -0.00384466
H        8.84013141      10.59180703       2.71390405      -0.00200845       0.00455323       0.01137567
H        8.41734163      10.58964117       4.43486188       0.01824519       0.00049642       0.01598775
O        8.04112542       4.89079364      12.22471836       0.00021050       0.00892117       0.00188142
C        6.96282938       5.57425255      12.84401368       0.00211275       0.01119648       0.00286931
C        9.04024719       4.52636044      13.15664143       0.00255132       0.01136148       0.00003198
C        5.95862265       5.97237629      11.79254176      -0.00050715       0.00853190       0.00459477
C       10.21835776       3.94648092      12.41309322       0.00043967       0.00964312      -0.00166410
H        6.50090682       4.92266694      13.60131340       0.00410448       0.01358870       0.00594360
H        7.34476681       6.46325796      13.36528256       0.00393036       0.01247019      -0.00082925
H        9.34548016       5.41239810      13.73273297       0.00407358       0.01274443      -0.00298455
H        8.63232584       3.79742783      13.87531130       0.00462279       0.01319820       0.00293660
H        5.14592995       6.53734318      12.24960012       0.00173913       0.01107524       0.00519300
H        6.42032483       6.60630152      11.03679451      -0.00219098       0.00559768       0.00122096
H        5.54171702       5.08950971      11.30512012      -0.00291238       0.00744860       0.00869664
H       11.03568650       3.72929084      13.10044201       0.00188974       0.01014783      -0.00320999
H        9.94105165       3.02344937      11.90742995      -0.00126442       0.00917542       0.00037806
H       10.57606794       4.65521480      11.66642474      -0.00088010       0.00826031      -0.00349556
O        4.93377711       4.64411896       7.48637705      -0.00643136       0.00577573      -0.00091642
C        3.80969260       4.66338780       8.33988611      -0.00498575       0.00153822       0.00094193
C        6.06879929       5.25646948       8.08466374      -0.00684714       0.00659868      -0.00092441
C        2.68823697       3.89018429       7.68981119      -0.00436971      -0.00010836       0.00204581
C        7.22557095       5.14801358       7.12679608      -0.00757337       0.00974280      -0.00200069
H        4.07175548       4.21350239       9.30941650      -0.00207810       0.00086132      -0.00038362
H        3.50885308       5.70422385       8.54007882      -0.00721158       0.00041521       0.00307306
H        5.84724276       6.30626923       8.32498160      -0.00817598       0.00572181       0.00106006
H        6.30409965       4.74634890       9.02881829      -0.00533114       0.00544354      -0.00199145
H        1.80595411       3.89205155       8.33157258      -0.00267597      -0.00360902       0.00425330
H        2.42262957       4.33220588       6.72903566      -0.00807732       0.00098327       0.00364551
H        2.98788449       2.85617563       7.51764718      -0.00228584       0.00100784      -0.00064064
H        8.11905290       5.59023637       7.56850791      -0.00785576       0.01042526      -0.00223736
H        7.43336802       4.10664247       6.88132686      -0.00629766       0.01055416      -0.00389146
H        7.00660361       5.67096603       6.19464737      -0.00902957       0.01094811      -0.00083852
O        1.73974771       7.89224122       1.16966160      -0.00472856      -0.00218850      -0.00486940
C        3.05790991       7.34984656       1.06720582      -0.00483116      -0.00083065      -0.01169667
C        1.70528128       9.24311800       0.78285988      -0.00874344      -0.00323826      -0.00957401
C        3.03369014       5.93551933       1.56887593       0.00015505      -0.00122571      -0.01267660
C        0.27666275       9.70760863       0.66221876      -0.01037800      -0.00852677      -0.01096679
H        3.39029590       7.41204438       0.02297928      -0.01048920       0.00021895      -0.01313061
H        3.75864792       7.95672296       1.65036569      -0.00275856      -0.00088376      -0.01486233
H        2.24543637       9.85606487       1.54696025      -0.01039198       0.00082418      -0.01237833
H        2.26182664       9.39231403      -0.15184123      -0.01072180      -0.00547940      -0.01075745
H        3.99401059       5.44695976       1.41021590       0.00003500       0.00082942      -0.01955624
H        2.82175911       5.90699809       2.63550651       0.00765777      -0.00294962      -0.01139855
H        2.26739591       5.34987933       1.06197570      -0.00197515      -0.00216074      -0.00824180
H        0.24872800      10.77967249       0.46059644      -0.01400152      -0.00888370      -0.01128795
H       -0.22476593       9.18737823      -0.15328623      -0.00739859      -0.01040339      -0.01158838
H       -0.27131544       9.51211636       1.58280360      -0.01085410      -0.01041246      -0.01180577
