199
Lattice="13.727437098485964 0.0 0.0 0.0 13.727437098485964 0.0 0.0 0.0 13.727437098485964" Properties=species:S:1:pos:R:3:forces:R:3 energy=-1314877.125 stress="-0.0006250577862374485 -8.99053666216787e-05 -0.00039774148899596184 -8.99053666216787e-05 0.0005877879448235035 -0.00022800167789682746 -0.00039774148899596184 -0.00022800167789682746 -0.0012044688919559121" pbc="T T T"
Fm      14.38156868      13.80608827       0.90819604      -0.01412332       0.00451118      -0.00002310
Br       5.03128500      11.67154699       5.45981669      -0.03919655      -0.02180371      -0.01969470
Br       7.65978937      13.61479575      14.12103516       0.00903893      -0.00534585      -0.00541126
Br      12.98877600      12.91083948      -1.23310414       0.02112946      -0.00764906      -0.01721752
O       12.87545224       1.82451246       1.89929462       0.00565653      -0.02068284       0.03011888
C       13.09646424       3.68548692       3.30379211       0.00973204      -0.00372690       0.00886303
C       12.97696064       2.44543906       4.19275953       0.00770947       0.00535267       0.02217644
C       12.45725545       3.20897139       2.01854839       0.01247638      -0.01666077       0.01196158
C       13.16178791       1.29265952       3.20875533       0.00354648      -0.00877613       0.03667754
H       12.59053720       4.55676264       3.71618990       0.00710824       0.00028659      -0.00274517
H       14.13762587       3.95603801       3.12607053       0.01019070       0.00022934       0.01243050
H       13.70557765       2.41364150       5.00148445       0.00535753       0.01674821       0.02435783
H       11.98032306       2.39516764       4.63202071       0.00591505       0.01134086       0.01970266
H       11.36512093       3.23274792       2.08748532       0.01229045      -0.01121890       0.00687181
H       12.79464480       3.73203881       1.12915168       0.01854472      -0.02836858       0.00749195
H       14.20759690       0.94087912       3.20730847       0.00011694      -0.02038932       0.03848234
H       12.50437704       0.43967548       3.39780882      -0.00571817       0.00122133       0.04792538
O        8.73454305       0.57551698       5.24459608       0.00482854      -0.00911611      -0.00057080
C        9.07865914       2.81169555       4.53819546      -0.01128240      -0.00531888      -0.00171323
C        8.88885315       1.91617561       3.31448092      -0.00405061      -0.01172784      -0.00271112
C        9.38645953       1.78059111       5.61906858      -0.00625263      -0.01191300      -0.00094923
C        8.16075967       0.73035702       3.92550749       0.00024709      -0.01475924       0.00054049
H        9.87653699       3.55135418       4.43203954      -0.00957790      -0.00511904      -0.00558768
H        8.15911288       3.34776361       4.77745470      -0.01208344      -0.01470256      -0.00242360
H        8.33056866       2.37283197       2.49919222      -0.00864623      -0.01339862      -0.00207521
H        9.85570896       1.59500953       2.91251020      -0.00420648      -0.00463957      -0.00355655
H       10.46478057       1.58960876       5.66725683      -0.00261742      -0.00274728      -0.00386195
H        9.05538778       2.08954631       6.61609921      -0.00402001      -0.00664714      -0.00212109
H        7.09076221       0.92179368       4.01816456       0.00070262      -0.02195244      -0.00384337
H        8.29618028      -0.19532919       3.37126879       0.00728478      -0.01628268      -0.00007674
O        1.04507745       3.63488079      13.70074064       0.01768942      -0.00644137       0.00197157
C        1.45124455       4.11838905      11.44854192      -0.00389700       0.00104883      -0.00150865
C        1.78783841       2.64019405      11.66205665       0.00331357       0.00174728      -0.00680593
C        1.57530751       4.66677188      12.85841623       0.00354499      -0.00169621      -0.00101250
C        1.21711575       2.37244262      13.05272360       0.01158862      -0.00359957      -0.00502032
H        2.10964607       4.61136266      10.73645859      -0.00648506       0.00390506      -0.00216883
H        0.42508599       4.22968848      11.09646447      -0.00574252      -0.00027110       0.00302234
H        1.37110589       1.98211102      10.90305567       0.00332926       0.00153631      -0.00713700
H        2.87120202       2.49543735      11.66398821       0.00409687       0.00786150      -0.01145408
H        2.62423943       4.85738184      13.12278016       0.00481057       0.00387962      -0.00975664
H        1.00226046       5.57316009      13.05338557      -0.00103572      -0.00612953       0.00588132
H        0.24202577       1.85874069      13.01436471       0.00896019       0.00089230      -0.00650673
H        1.92240571       1.76084684      13.64249355       0.01416907      -0.00757647      -0.01179053
O        5.08288627       1.89023071       3.23604963       0.00693616      -0.00285755       0.00144610
C        3.94481928       2.91244112       1.44919932       0.00161633      -0.00884247      -0.00062123
C        2.93140294       2.19861087       2.34242261       0.00803202      -0.02457469      -0.00698717
C        5.22624246       2.19817296       1.83996559       0.01027331       0.00770307       0.00177428
C        3.72566575       2.06934828       3.63797080       0.00468361      -0.00872671      -0.00242737
H        3.73578660       2.83926286       0.38340866       0.00676953      -0.00901771      -0.00097832
H        3.98422524       3.97412140       1.71258950      -0.01389318      -0.00883245       0.00060414
H        1.99283830       2.74053466       2.44582835      -0.00029641      -0.03868426      -0.01044054
H        2.72589424       1.19230115       1.94350547       0.02338869      -0.02808963      -0.00674289
H        5.36956648       1.27095096       1.27639537       0.02290819       0.00809425       0.00345847
H        6.12863641       2.79634968       1.69838253       0.00314918       0.02204692       0.00617487
H        3.63890058       2.99140485       4.23242396      -0.00944709      -0.00506926      -0.00783646
H        3.43769137       1.22512958       4.26859889       0.01361273      -0.00910914      -0.00025904
O        6.45186700       5.43508109       5.20498856      -0.00701514       0.00925487      -0.00580442
C        7.41132237       6.93055977       3.67295843       0.00367612       0.00416028      -0.00405473
C        7.13465740       5.61817625       2.93925889       0.00213325       0.00409172      -0.00356978
C        7.46054258       6.44367650       5.11201082      -0.00337414       0.00597796      -0.00313622
C        6.16028230       4.93155388       3.89279677      -0.00354902       0.00838165      -0.00619864
H        8.32252216       7.43256512       3.34938342       0.00644016       0.00082008      -0.00120949
H        6.57810887       7.62578006       3.54380717       0.00622889       0.00668140      -0.00812340
H        6.72594384       5.74686740       1.93765984       0.00611834       0.00447667      -0.00503018
H        8.05507144       5.03646103       2.84539201       0.00062042       0.00108153       0.00032888
H        8.44213411       6.00675133       5.34547970      -0.00572848       0.00304148       0.00113831
H        7.24629315       7.21348298       5.85521372      -0.00387278       0.00762498      -0.00513342
H        5.12320004       5.19216684       3.64789393      -0.00201315       0.01128149      -0.01061377
H        6.23295985       3.84268872       3.89815242      -0.00658159       0.00823516      -0.00415936
O       13.70080910       1.75965797       9.10534961       0.00049999       0.00168792      -0.00679742
C       11.35174713       1.60181295       9.41912435       0.00091165      -0.01396228      -0.00239253
C       11.73048329       1.13077150       8.01895959       0.00440252      -0.01727886      -0.00028312
C       12.61185690       2.35746886       9.82250302      -0.00188822      -0.00879116      -0.00156003
C       13.18311313       0.75098448       8.23121479       0.00530505      -0.01035648       0.00488102
H       10.45962425       2.22785841       9.44906960      -0.00133783      -0.01656848      -0.00557181
H       11.19436846       0.74661033      10.07982415       0.00222242      -0.01292926      -0.00117996
H       11.11144396       0.32155900       7.63620566       0.00714624      -0.02059625       0.00179936
H       11.67034942       1.97143311       7.32276878       0.00335372      -0.02067307      -0.00367361
H       12.55395305       3.41419765       9.53023837      -0.00796271      -0.00788563       0.00500178
H       12.81101850       2.30149709      10.89413841      -0.00005977      -0.01378214      -0.00214249
H       13.26464514      -0.23311506       8.70924683       0.00774360      -0.00434572       0.01622051
H       13.78715151       0.75386284       7.32180896       0.00657067      -0.01915384       0.00606546
O        8.84586468       4.39045656      12.92708369      -0.00202376      -0.01398648       0.02346796
C       10.55458713       2.79154856      12.76237006      -0.00150567      -0.01074708       0.00546581
C       11.12351122       4.14655236      12.33841453      -0.00464827      -0.00855610       0.00584859
C        9.07405398       3.02307472      12.54325298      -0.00286555      -0.01081517       0.01247746
C       10.08273678       5.10659544      12.90727977      -0.00413358      -0.01046228       0.01178356
H       10.94207278       1.93811352      12.20945570      -0.00277741      -0.00790055      -0.00077558
H       10.74190606       2.60533122      13.81997803       0.00315821      -0.01149538       0.00389680
H       12.13119101       4.34778263      12.70513106      -0.00392100      -0.00749237       0.00472137
H       11.14143028       4.21998574      11.24681511      -0.00837731      -0.00613608       0.00625655
H        8.81978797       2.89267432      11.48072418      -0.00490251      -0.00289652       0.01215172
H        8.43329198       2.36671960      13.13302898      -0.00192493      -0.01505378       0.00984797
H       10.33696014       5.39865775      13.93538178       0.00138307      -0.00757314       0.00900453
H        9.95786448       6.01824248      12.31784856      -0.01120986      -0.01139396       0.01126739
O       10.31769595       6.71785344       7.38336121       0.00314867       0.00308636      -0.00104946
C       11.80247323       6.49712786       5.59707687       0.00016086       0.00156300      -0.00403219
C       12.40493493       5.74874484       6.78628264      -0.00008762      -0.00066450      -0.00520682
C       10.88314218       7.46957295       6.31241463       0.00232828       0.00240967      -0.00203526
C       11.20597263       5.64684722       7.73213707      -0.00036913      -0.00123853      -0.00563532
H       12.53928500       6.98675603       4.96078679       0.00088792       0.00151747      -0.00343753
H       11.20419743       5.81976905       4.98104829      -0.00091329       0.00353438      -0.00456257
H       12.81990352       4.77250686       6.53505285      -0.00138497      -0.00083649      -0.00707867
H       13.20121082       6.34608619       7.23602909       0.00038719      -0.00255731      -0.00422449
H       11.45478517       8.32369157       6.70400662       0.00357914       0.00178847      -0.00277206
H       10.06682717       7.85261132       5.69901082       0.00170875       0.00325857      -0.00098631
H       10.66489284       4.70291437       7.60194143      -0.00278029       0.00092846      -0.00970224
H       11.48833727       5.73928464       8.78567250      -0.00005567      -0.00634710      -0.00520277
O        1.56129642       6.91619592       1.94637304      -0.00183246      -0.00429447      -0.00028698
C        3.78804344       7.62582067       2.25104368      -0.00427550       0.00605892      -0.00672428
C        3.18112008       7.34474687       3.62321102      -0.00071833       0.00879720      -0.00420493
C        2.53357635       7.82743197       1.41605694      -0.00648457      -0.00191409      -0.00518198
C        1.98856835       6.47826054       3.24450695       0.00354055       0.00102994      -0.00007948
H        4.45565000       8.48621477       2.23750220      -0.00777684       0.00887501      -0.01122808
H        4.34402238       6.75294865       1.89574769      -0.00175448       0.00705424      -0.00402148
H        3.86021335       6.84555228       4.31170125       0.00288504       0.01313499      -0.00442816
H        2.86101108       8.27920225       4.08979785      -0.00327863       0.00830069      -0.00631245
H        2.16294594       8.85620508       1.51751974      -0.01040223      -0.00314885      -0.00874725
H        2.66642352       7.61300746       0.35354804      -0.00723652      -0.00530584      -0.00470939
H        2.28176526       5.42172514       3.17947106       0.00982422       0.00268167       0.00179685
H        1.14832719       6.55918193       3.93906330       0.00416014      -0.00227827       0.00118306
O        5.27573018      12.79429901      10.20346433      -0.01425838       0.00629038       0.00781393
C        6.52353527      10.84872182      10.50730088      -0.00548661       0.01000786      -0.00080347
C        7.49096026      12.02272141      10.66702643      -0.00661808       0.01368769      -0.00119042
C        5.43755221      11.48430850       9.65390255      -0.01047379       0.00882316       0.00248936
C        6.54597113      13.22713550      10.72278288      -0.01039433       0.01341197      -0.00660062
H        6.97617136       9.96621866      10.05430348      -0.00373508       0.01366949      -0.00425813
H        6.11631120      10.55685376      11.47913320      -0.00257716       0.00806028      -0.00061226
H        8.10508153      11.97631740      11.56654829      -0.01188791       0.01649997       0.00116104
H        8.14651146      12.08413992       9.79482799      -0.00500664       0.01342903       0.00100222
H        5.74411410      11.54759513       8.60049220      -0.01272717       0.01352015       0.00217825
H        4.47179778      10.98021417       9.70169991      -0.00790268       0.00474066       0.00344728
H        6.40870436      13.55940690      11.75480193      -0.00357293       0.02328414      -0.00879419
H        6.91839662      14.07317699      10.13405634      -0.01648329       0.00718898      -0.01830459
O        2.42999061      12.26132805       1.45217238      -0.00615054       0.02056377      -0.02262482
C        4.65588203      11.66694212       1.98608681      -0.00369525       0.02415936      -0.00901389
C        4.38386220      11.26535910       0.53705249      -0.00226873       0.01648477      -0.01123732
C        3.26616077      11.77620301       2.56997105      -0.00782195       0.02798516      -0.01568797
C        3.14532776      12.07511550       0.19394360       0.00655141       0.02819194      -0.01690698
H        5.26657418      10.96248718       2.54584684      -0.00829086       0.01963267      -0.00484076
H        5.17824604      12.62401402       2.01897620      -0.00912827       0.02186152      -0.01246834
H        5.21799921      11.51214643      -0.11800494       0.00463453       0.00815046      -0.00776450
H        4.17425732      10.19495766       0.45685768      -0.01346660       0.02272451      -0.00618289
H        2.87101170      10.80511256       2.88006669      -0.01096456       0.03828549      -0.01389840
H        3.17998963      12.46337440       3.40650876      -0.00684398       0.03268209      -0.01689917
H        3.42105012      13.06296264      -0.19272404       0.01157522       0.02697217      -0.01164033
H        2.46185210      11.59938363      -0.51194884       0.00979343       0.03275333      -0.02451983
O        6.40362565       3.66349163       8.95364933       0.00767596      -0.01171580       0.00739241
C        6.35025805       4.65491358      11.08912226       0.00326864       0.00557168      -0.00134575
C        4.91661276       4.42870394      10.62609314       0.00372726       0.00414142      -0.00260514
C        7.08588587       4.62624204       9.76210467       0.00501804      -0.00386024      -0.00010079
C        5.11061151       3.40019450       9.51665576       0.00372458      -0.00232089       0.00299010
H        6.51682095       5.57903779      11.63811494       0.00266425       0.00941384      -0.00734496
H        6.66996246       3.82607078      11.72106394       0.00196754       0.00979048       0.00475445
H        4.26857711       4.06809181      11.42126321       0.00199425       0.00935984      -0.00154483
H        4.49157347       5.35343555      10.22991635       0.00540081       0.00235009      -0.00815719
H        7.04992094       5.61024373       9.27673787       0.00414916      -0.00766683      -0.00788552
H        8.13323356       4.32720680       9.84833707       0.00527129      -0.00197217       0.00338381
H        5.09906586       2.37849603       9.91413264      -0.00270160      -0.00054395       0.00712684
H        4.36018739       3.46495387       8.72435526       0.00708127      -0.00176828      -0.00022167
O        3.13321768       9.02001455       8.86454939      -0.00011951      -0.00252748       0.01103348
C        4.23795652       8.35616287       6.87414104      -0.00883316      -0.00348395       0.00474316
C        5.14714864       8.07800281       8.06772306      -0.00178421       0.00195496       0.00186276
C        3.26006819       9.35818783       7.46633960      -0.01012558      -0.00620449       0.00879848
C        4.13557924       8.06801401       9.20611535       0.00165635      -0.00265372       0.00513041
H        4.76013628       8.78588363       6.01981728      -0.01415223      -0.00032942       0.00338089
H        3.73146623       7.43543377       6.57326805      -0.00524151      -0.00507933       0.00730662
H        5.69729597       7.14007748       7.98759597       0.00175903       0.00439808       0.00030192
H        5.86058536       8.89620453       8.18925344      -0.00629413       0.00505716      -0.00143784
H        3.65855858      10.37174160       7.36013306      -0.01537225      -0.00480819       0.00241908
H        2.26597276       9.33257080       7.01251098      -0.01312202      -0.01156069       0.01541391
H        3.67073130       7.07517992       9.29321039       0.00341758      -0.00368774       0.00338191
H        4.55967175       8.33172048      10.17934239       0.00385888      -0.00492235       0.00498945
O        8.40602554       7.84325911      11.19468832       0.00013214       0.00120933       0.00181821
C       10.12010604       9.46309982      11.15505010      -0.00210279       0.00421262       0.00372648
C       10.53303594       8.29028211      10.26677781       0.00025594       0.00438346       0.00419500
C        9.06510138       8.80886378      12.03216082      -0.00267282       0.00280249       0.00230160
C        9.18879914       7.61826448      10.01847016       0.00139481       0.00275919       0.00245489
H       10.93482052       9.90695068      11.72477137      -0.00335732       0.00366461       0.00537489
H        9.67021332      10.24872816      10.54487889      -0.00182492       0.00442976       0.00332317
H       11.02387719       8.58326294       9.34035384       0.00167198       0.00406359       0.00515369
H       11.20471477       7.61949714      10.81163958      -0.00114651       0.00480562       0.00656602
H        9.52271229       8.29346338      12.88250781      -0.00240797       0.00324953       0.00256848
H        8.32267021       9.50172968      12.42609953      -0.00445315       0.00125760       0.00108010
H        8.68470903       8.06386505       9.15262346       0.00133511       0.00222313       0.00216779
H        9.26069808       6.54372176       9.84297052       0.00271476       0.00317746       0.00144358
O        9.96934908       9.84919902       1.13077291       0.00856137      -0.00379054       0.00011632
C       11.30293787      11.26482519       2.49199413       0.00242323       0.00777632      -0.00504482
C       11.91010332       9.86240716       2.43518817       0.00656298       0.00883527       0.00228894
C        9.88304233      11.01266350       1.98772585       0.00408912      -0.00238749      -0.00243244
C       11.30865064       9.36674448       1.13171306       0.00906754      -0.00354095       0.00662833
H       11.31226843      11.71294075       3.48551206      -0.00152406       0.01303022      -0.00702891
H       11.83709175      11.92565740       1.79738072      -0.00279771       0.00855336      -0.00807425
H       12.99943957       9.83726659       2.44048811       0.00687149       0.00962968       0.00172044
H       11.54649314       9.25596139       3.27075618       0.00378107       0.01511104       0.00561829
H        9.20836744      10.76957225       2.81570558       0.00478160      -0.00457208      -0.00233424
H        9.44515963      11.84135680       1.42626128      -0.00106674      -0.00412160      -0.00019115
H       11.86537594       9.78839638       0.28168960       0.01068127      -0.00975248       0.00416100
H       11.28520646       8.27886793       1.03145324       0.00966315      -0.00434017       0.01554810
