200
Lattice="12.721721551744832 0.0 0.0 0.0 12.721721551744832 0.0 0.0 0.0 12.721721551744832" Properties=species:S:1:pos:R:3:forces:R:3 energy=-1098164.625 stress="0.0015752199105918407 0.00011294962678221054 -9.771174154593609e-05 0.00011294962678221054 0.0009462921298108995 -0.00021449660562211648 -9.771174154593609e-05 -0.00021449660562211648 0.0017997322138398886" pbc="T T T"
Fm      11.56208197      10.35998150       0.21188506      -0.00120622       0.00194180      -0.00345075
O        9.57678919      11.65322583       9.66615986      -0.00126004       0.00137517       0.00284535
O       10.16400935      11.90876436      11.78393349       0.00250569       0.00498402       0.00192809
O       11.19614231      10.36282148      10.54814732       0.00569212       0.00308233      -0.00150955
C       10.34369421      11.29729757      10.69038403       0.00100198       0.00237598      -0.00611567
H        9.84559271      11.12629424       8.81341546      -0.00059129       0.01127210      -0.00459877
O        4.31530490      12.17768954       8.64844889      -0.00428271       0.00923550      -0.00867954
O        6.26282213      12.20184846       7.59204748       0.01453340       0.01476645      -0.00524622
O        5.40518855      10.24231069       8.30100362      -0.00934892      -0.00294423       0.00332958
C        5.40068963      11.48924220       8.14712003      -0.02432638      -0.01669896       0.01276073
H        3.66156017      11.51704364       9.00141411      -0.01353997      -0.00179960      -0.00302621
O       10.87467558      11.24180684       2.32623289       0.00591397       0.00515997      -0.00480688
O       11.86281292       9.25203154       2.17728708       0.00115275       0.00046599      -0.00288647
O       11.12369475       9.97112584       4.16862125      -0.00558697       0.00441447      -0.00534153
C       11.28396894      10.13917636       2.93766789      -0.00085427       0.00454923      -0.00153372
H       10.40500835      12.16503907       3.63673737      -0.00641043       0.00922346      -0.01016074
N       11.79093841       4.00439364       2.45466953       0.00258057      -0.01052658       0.00320575
H       11.14624119       4.23482216       3.20651529       0.00100432      -0.00534599      -0.00026490
H       12.67049671       3.74299102       2.89167620       0.00181080      -0.00631554       0.00656656
H       11.42444818       3.16730650       1.99676692       0.00309402      -0.01576147       0.00952673
N        0.22382950       8.49447027      11.97379484      -0.00153825       0.00581032      -0.00206667
H       -0.21880460       8.60118575      11.06836347       0.00641762      -0.00410010      -0.00593975
H        0.19623208       7.50867257      12.27791141      -0.00399955       0.00789703       0.00877731
H        1.19726671       8.75286918      11.87408587      -0.00105691       0.00606220       0.00544053
N        6.12914841       7.22236674       8.27831563       0.00045553      -0.00623909       0.00130103
H        5.53379252       6.79750867       7.57569928      -0.00509463      -0.00725810       0.01254530
H        5.97397522       8.22834689       8.23953128      -0.00239062       0.00204325      -0.00312152
H        5.78582255       6.90382248       9.17866916       0.01311484       0.00570061       0.00645217
N        0.62283218      -0.60817781      12.37788546       0.00135005       0.00030872      -0.01331693
H        0.15590884      -0.01603744      11.69983640       0.00493405       0.00263651      -0.01143835
H        1.54071765      -0.82853586      12.01147414       0.00409024       0.00056568      -0.00763631
H        0.76016686      -0.06205781      13.24321247      -0.00012919      -0.00297974      -0.00939649
N        2.74139361       1.25821238       6.45669655      -0.01109043       0.00148692      -0.00307311
H        3.22531913       0.71765806       7.17077717      -0.00442660       0.01333307      -0.01536722
H        1.75377721       1.21639567       6.67672961      -0.00972408       0.01017087       0.01176542
H        3.01322192       2.23343489       6.60843473      -0.00954681       0.01414813      -0.00841059
N       10.11771321      12.61628854       4.54624856       0.00075262       0.00148871      -0.00069879
H        9.63354671      13.52336161       4.39030224       0.00918819      -0.00141037       0.01164663
H       10.95545826      12.68331309       5.13380937      -0.00101292      -0.02012122       0.00105944
H        9.42456972      11.97075874       4.97947686      -0.01454863      -0.00232613      -0.00767362
N        5.60528304       2.32811357       8.92503692      -0.01090334      -0.00356311      -0.00561528
H        6.46718263       2.83916302       9.09805954      -0.00627352      -0.00083971      -0.00937396
H        5.82708727       1.53089174       8.33077173      -0.00926485      -0.00526013      -0.00258809
H        5.30025024       1.92878175       9.80516691      -0.00999373       0.00586592      -0.00605741
N        1.92907308      10.53835066       3.44993724       0.00329185       0.00478643      -0.00832929
H        1.16243518       9.90698214       3.23363830       0.00179073       0.00393890      -0.00413722
H        2.36645022      10.20237488       4.30482231       0.00369404       0.00929962      -0.00770727
H        2.63331082      10.41198517       2.72802599       0.00102383      -0.00005370      -0.01011762
N        7.62644167       0.98478106      11.34842322      -0.00782771       0.00457641       0.00259906
H        7.72811931       1.98779237      11.23994636       0.00403182       0.00552412       0.01875960
H        7.34090813       0.64772760      10.43415970      -0.01702259       0.01934603       0.00116549
H        8.55951093       0.60175968      11.49445501      -0.00830093      -0.00598672      -0.00671791
N        9.22560450       7.91130829       5.36152787       0.00883502      -0.00994600       0.00421983
H        9.75859563       8.69732433       4.98342796       0.00431517      -0.00522312       0.00466480
H        9.91631611       7.27270085       5.74473927       0.01586372      -0.00858188      -0.00425836
H        8.67592169       8.23842794       6.14770514       0.01337756      -0.01793064       0.01042245
N        2.27462456       7.30778711       5.90494887       0.00433805      -0.01257141      -0.00509401
H        3.03613514       6.64547046       5.78766286       0.00160804      -0.01496336      -0.00501574
H        2.71028078       8.22692230       5.81995514       0.00997387      -0.01228115      -0.00395846
H        1.68848462       7.19160998       5.07209106       0.00480337      -0.00856672      -0.00368282
N        3.83348501       7.58670255       2.52925923      -0.01280457      -0.00569054       0.00757305
H        2.93083771       7.43711186       2.97320479      -0.01591669       0.00962030       0.00702241
H        3.79561699       7.11553700       1.63281207      -0.01486020      -0.01599914       0.01362337
H        3.90701307       8.58526041       2.33519124      -0.00274412      -0.00757207      -0.00331631
N       10.23966210      10.49907828       7.42207406       0.00113043       0.01595753      -0.00345254
H       10.43789914       9.50596592       7.41738458       0.01135363       0.01574719       0.01314504
H       11.07540964      10.96203482       7.08443014      -0.00411385       0.01791740      -0.01707314
H        9.52444594      10.65780225       6.71452496      -0.00357121      -0.00450347       0.00063032
N        4.34459720       9.62634915       5.48051295       0.00071438       0.00438651      -0.01007627
H        4.79376989       9.62032262       6.39410537       0.00242662      -0.00556902       0.00007784
H        4.61198473      10.50606988       5.04117205      -0.00097120       0.00688346       0.00601558
H        4.75501188       8.88352130       4.92558922       0.00077906       0.01119451      -0.01157315
N        2.28232334       3.27091073       3.87109766      -0.00953072       0.00191659      -0.00056024
H        2.53661176       4.04413445       4.47676191      -0.01152601       0.00102165       0.00050450
H        2.67280103       3.45078505       2.94770839      -0.01070867       0.00596979      -0.00216816
H        2.74203424       2.45851091       4.27268525      -0.00792138       0.00200839      -0.00469218
N        8.87363377       1.68073294       7.81160954      -0.00038728      -0.00947565      -0.01222679
H        8.53538540       2.45380233       8.37926440       0.00188347      -0.00683668      -0.01540083
H        8.46822921       0.83619518       8.20337625      -0.00250017      -0.00632799      -0.00723634
H        8.43571138       1.78790756       6.90379097      -0.00014278      -0.01470485      -0.01382329
N        9.82683355       6.73371312       2.08865296       0.00257257      -0.00769998       0.00067614
H       10.49573836       7.49458619       2.20842084      -0.00069043      -0.00116913      -0.00101300
H       10.39014398       5.92813333       1.83327643       0.00566973      -0.00440319       0.00726525
H        9.47884837       6.53884147       3.02159897       0.00264204      -0.00263757       0.00189351
N        0.93862168       3.79977573      10.17690483       0.00356867      -0.00076057       0.00137702
H        1.10789173       4.32153106       9.32366186      -0.00343445       0.00697643       0.00468780
H        0.41258865       2.96496795       9.92142322      -0.00092138       0.00205304      -0.00210339
H        1.85424378       3.50852787      10.50091049       0.00528932      -0.00655634      -0.00958598
N        7.81547987      11.05928744       5.39712538      -0.00491929       0.00248170      -0.00910880
H        7.68758094      10.10305348       5.08389023       0.00879278      -0.00205042       0.00854802
H        7.30565925      11.18447926       6.27931133      -0.01156180       0.01215607      -0.00485961
H        7.28718792      11.60781930       4.72496620       0.00054267      -0.00967720      -0.01386454
N        0.09564663      11.87944454       5.70237118       0.00113195       0.00460458       0.01278066
H        0.60621465      11.64753788       6.54690081      -0.00627141      -0.01402212       0.01182164
H        0.81106569      12.12917941       5.02317632       0.00862381       0.01067808       0.02384321
H       -0.31009533      11.01725272       5.32833280      -0.00074899       0.00925282      -0.00405892
N        4.53894747      12.71302417      11.83678996       0.00819260      -0.01191005      -0.00262655
H        3.85881539      13.41019623      12.12003456       0.00620290      -0.01227911       0.00975405
H        4.42234892      12.58907096      10.83362293       0.01311936      -0.00249655       0.00976288
H        5.46070095      13.13345038      11.95187700       0.01368254       0.00074860       0.00884826
N       11.97013841       5.78247101       6.68670114       0.00998248      -0.01124549       0.00278905
H       11.62741986       5.88342666       7.64239458       0.00138999      -0.01240132       0.00124416
H       12.78329178       6.38573851       6.59497429       0.00577229      -0.00477052       0.00894523
H       12.31996082       4.82812061       6.62173147       0.01773998      -0.00826225       0.00780512
N        0.79427203       0.56358977       2.38574250       0.00111827      -0.00042951      -0.00701553
H        1.23626662      -0.23863330       2.84269979      -0.00179841      -0.00000793      -0.00220687
H       -0.20589711       0.45181194       2.51437110       0.00013271      -0.00141628      -0.01657375
H        1.06363570       1.40509731       2.88499720      -0.00458437       0.00092144      -0.00665962
N        6.69340802       6.70771636      -0.67870862       0.00419861      -0.01162037      -0.00840077
H        6.25780247       7.57145414      -0.37297069       0.00231427      -0.00621983      -0.01683886
H        7.52274085       7.00213165      -1.19692736       0.01025992      -0.01575636      -0.00134342
H        7.03434525       6.25607685       0.16301532      -0.00856002      -0.01146390      -0.00609280
N        4.77205125      10.59637192       1.93462603       0.00062981       0.00387025      -0.00270225
H        4.74432719      11.15481321       1.08580085       0.00671379      -0.00009958      -0.00151028
H        5.63726017      10.06367866       1.95414873       0.00449747       0.00557099       0.00871892
H        4.80905063      11.23228903       2.72812462      -0.00682886       0.00621740      -0.00181626
N       11.89266426       1.37800247       8.94403278       0.00535905       0.00573649      -0.00405910
H       10.90584577       1.39738518       8.68309939       0.00423121      -0.00499560      -0.01076687
H       12.37649434       1.73716173       8.12570198       0.00510088       0.00524078      -0.00270239
H       12.14074074       0.39789811       9.02068023       0.01211315       0.00876108       0.00272792
N        8.30730898       1.98562508       3.79825459      -0.00751954       0.00662780       0.01128918
H        7.45927904       2.21026680       4.30265723      -0.00612658       0.03186403       0.00334533
H        8.05817001       1.35667033       3.02948299      -0.01634084       0.01395929       0.00762013
H        8.68285605       2.85597338       3.44033510       0.01855781      -0.00165887       0.01293349
N        7.88981465      12.30435912       1.85738189       0.00357616       0.01717585      -0.00350951
H        7.67095607      12.53231187       0.89088209       0.00596143       0.02631393      -0.00290977
H        7.23820248      11.57914653       2.13791066      -0.00632181       0.02102534      -0.00733472
H        8.81617835      11.88102337       1.85493968      -0.00091511       0.01381326      -0.00109457
N        4.98138024      -0.05525248       4.71929820      -0.00177542       0.01661026      -0.01111899
H        5.50995765      -0.04409401       5.59147070       0.00263797       0.01472294      -0.00554509
H        4.06470601       0.31420224       4.98046269       0.00483534       0.01283925      -0.01246400
H        5.40703420       0.62760310       4.10332908       0.00680769       0.01911281      -0.00512508
N        7.96160443       4.59470057       9.26346769       0.00313421      -0.00471082      -0.00775260
H        7.41102602       5.22988763       8.68926523       0.00402634      -0.00446148      -0.01140932
H        8.92775449       4.79180088       9.02057659       0.00372235      -0.00259735      -0.00225770
H        7.84059048       4.94676758      10.20857436      -0.00364897      -0.00767359      -0.00895909
N        8.82790163       7.98619771      10.11084358       0.00914883       0.00400537      -0.00575776
H        8.15825140       8.71773371      10.34779909       0.00242098       0.00023809       0.00055590
H        8.52966562       7.60706754       9.21790855       0.00411539       0.00678088      -0.00687004
H        9.71767647       8.45792150       9.98049310       0.00239734       0.01017819      -0.00613531
N        2.62527474      10.27354030       9.69400209      -0.01012510       0.00758952       0.00340462
H        3.15619370      10.01016454      10.51547870      -0.00782482       0.01002182       0.00614190
H        2.79574864       9.55896306       8.99547384      -0.01598050       0.00135148       0.01111150
H        1.64008188      10.25369914       9.93096138      -0.00748226       0.01655719       0.00801520
N        3.20273443       3.23107566       0.74211252      -0.00198525       0.00607507       0.00135328
H        3.89981220       2.51506657       0.90804528      -0.00348596       0.00411593       0.00375526
H        3.45485322       3.68651406      -0.13840272       0.00159469       0.00394324       0.00049834
H        2.32181005       2.74862696       0.60008947      -0.00176596       0.00772260      -0.00055775
N       12.46350712       2.61657371       5.74699271      -0.00697686      -0.00903260       0.00004804
H       11.55838364       2.88400333       5.37628613      -0.00494809       0.00292198      -0.00249708
H       12.47757777       1.60057499       5.75080416      -0.01983096      -0.00922918       0.00692704
H       13.15846220       2.90153248       5.05728003      -0.00476480      -0.02109077      -0.00069628
N        9.49188694       4.71385910       5.02447838       0.00960487      -0.00880903       0.01034462
H       10.30503963       5.13249127       5.48354619       0.00442182      -0.01534255       0.02581557
H        9.17449404       3.97229474       5.63864857      -0.00373644      -0.01418174      -0.00320798
H        8.77823535       5.43540246       5.04900935       0.00996025      -0.00659094       0.00438727
N        5.30657782       5.28477470       4.19072656      -0.00421438       0.00509742       0.00751561
H        4.90893067       6.06663158       3.66776166      -0.01186450       0.00122883       0.00609530
H        4.93413632       4.44214729       3.76769737       0.00051033       0.00116028       0.01136497
H        6.30197024       5.29088712       4.00211567      -0.00474276       0.01179365       0.00477615
N       10.42747042       1.58956017       0.91104137      -0.00265780      -0.01065612       0.01271462
H        9.42742122       1.74634814       0.97313882      -0.00675616      -0.01876492      -0.00442923
H       10.54796980       0.58954775       1.04618965      -0.00158326      -0.01191937       0.00120540
H       10.66762598       1.74058380      -0.06354337       0.01191994       0.00445401       0.01887432
N        9.29987813       9.28556781      13.07605705       0.00024211      -0.00349951      -0.00301386
H        8.60960527       9.50165875      12.36006309      -0.00660390      -0.00393301       0.00344122
H        8.95485242       9.70243372      13.93544695       0.01152450      -0.00626760       0.00236814
H        9.29374269       8.28025372      13.23799611       0.01388294      -0.00493850      -0.00702506
N        0.36071619       6.87166231       3.53960445      -0.00788973      -0.00540524       0.00112236
H       -0.04124227       7.72527106       3.14447844      -0.00192140      -0.00278462      -0.00348724
H       -0.28463444       6.57398584       4.26581057      -0.01041625       0.00392109       0.00268589
H        0.28166138       6.16663250       2.81411459      -0.01258985      -0.00753964       0.00583641
N        3.82978573       4.18501425       6.95817969       0.00188043       0.00311914       0.00204806
H        3.35144379       4.90512522       7.48987055       0.00602235       0.00443386       0.00691763
H        4.42389181       4.63288963       6.26479578      -0.00219032       0.00641473      -0.00242297
H        4.42558320       3.67488703       7.61123021       0.00334363       0.00162305      -0.00523216
N        6.94075561      10.37600366      10.96653719       0.00435130       0.00003314       0.00487383
H        7.64459586      11.03139131      10.63689869      -0.00204365      -0.00265337       0.00259966
H        6.36505836      10.88693267      11.62775124       0.00226253      -0.01070918      -0.00026255
H        6.35125617      10.19013545      10.15534226      -0.00542611       0.00127462      -0.00661104
N        0.49880488       5.55270637       0.00794503       0.00826378       0.00484543       0.00302690
H        1.43456775       5.46550862       0.39197085       0.00474249       0.00555257       0.01408177
H        0.49208778       4.94565200      -0.81664495       0.01747622       0.00312997       0.00464362
H       -0.11773874       5.12701034       0.70165310       0.00338712       0.00169189      -0.00263663
N        7.04346003       8.36769833       2.92137580       0.00226852      -0.00403742      -0.00520284
H        7.56597859       7.90403801       2.18415893      -0.00147709      -0.00878333      -0.00363097
H        6.11207163       7.95990139       2.93292402       0.00412191      -0.00813617       0.00558041
H        7.51670263       8.08565417       3.77806352       0.00929907       0.00430176      -0.00476855
N       11.04960435       5.72588903       9.87876405       0.01343050      -0.00176822       0.00341976
H       11.08620788       4.74515948      10.13632342      -0.00322320      -0.00399348       0.00351402
H       10.24591181       6.14638914      10.33904209       0.00856742       0.00624057      -0.01326515
H       11.87021629       6.12178194      10.32412281       0.00805208      -0.01172850       0.02091516
N        4.21812028       4.67996487      10.71264284      -0.00553229      -0.00567070       0.01178710
H        3.58370235       5.25068998      10.15763403      -0.00675374       0.00516726       0.02203598
H        4.66617129       4.05669096      10.04631789      -0.01414312       0.00099248       0.00307759
H        4.94146479       5.29480746      11.08095846       0.00158717      -0.01005962       0.01086816
N        2.37119215       6.71764579       8.89099722       0.00474420      -0.00656253       0.00001335
H        1.61011849       6.97234943       9.50870958       0.00314815      -0.00972704      -0.00093290
H        2.11108135       6.95963278       7.92852201       0.00252299      -0.01061965      -0.00127503
H        3.16280551       7.30102237       9.13327557       0.00226884      -0.00160888      -0.00269192
