198
Lattice="12.511762030344915 0.0 0.0 0.0 12.511762030344915 0.0 0.0 0.0 12.511762030344915" Properties=species:S:1:pos:R:3:forces:R:3 energy=-1126153.375 stress="0.0021616313606500626 0.00010376033606007695 0.000988786923699081 0.00010376033606007695 0.0025394021067768335 0.0003030537045560777 0.000988786923699081 0.0003030537045560777 0.002123449230566621" pbc="T T T"
Fm      12.63155813      11.55456198       0.81766884      -0.00161235       0.00551069       0.00352786
P        2.26773673       4.11706209       2.90379391      -0.01438889       0.01789650       0.02801543
O        2.44393467       4.30229203       1.31908631      -0.00637034      -0.01223244       0.00327486
O        3.71497564       3.57001292       3.32256892       0.01251775      -0.00464652      -0.00462536
O        2.04002415       5.45307009       3.56095048       0.00551528      -0.04608130      -0.00589260
O        1.23305042       3.04857634       3.15392805       0.02178448      -0.01263028       0.00995298
H        1.56738365       4.62259446       0.94673335      -0.00846469      -0.00577047       0.00950528
H        4.20335041       4.27168679       3.86797768       0.00821993       0.00000548      -0.00416366
P       10.66453489       9.28096459       1.32853710       0.02720581      -0.02172588      -0.00513089
O        9.17180268       9.03381196       1.75207338      -0.00045717       0.01544738       0.00545149
O       11.35850887      10.09091433       2.53402427      -0.00717737      -0.00075980       0.02303421
O       11.39673711       7.97658182       1.19045723      -0.02290189       0.03964603       0.01727210
O       10.72096150      10.23442537       0.13961008       0.00366928       0.01026022       0.01916760
H        9.11571561       8.16250707       2.40211498      -0.00542280       0.01020095      -0.00152642
H       10.78552914      10.75161508       3.08395157      -0.00483342       0.01239027       0.01502751
P        4.47968823       7.12347419       9.14937537      -0.01783508       0.01165856      -0.02163863
O        6.04964966       7.38805753       9.16879160      -0.00001895       0.00945362       0.00089527
O        4.17419539       6.86149200      10.70890036      -0.00421456       0.00542232      -0.00484949
O        3.79361205       8.39884182       8.72953949       0.00719857      -0.01918757      -0.01055145
O        4.14940851       5.88731726       8.34966523       0.01074503       0.00733292       0.00279915
H        6.58967412       6.53376546       9.28764051       0.00189285       0.01434798      -0.00338863
H        3.16868492       6.71923868      10.81263014       0.00005928       0.00190042       0.00062191
N        4.15884068      11.67225475       4.68052445       0.01455505      -0.00046748      -0.00115559
H        3.34925796      12.07607850       5.14401918       0.00728944       0.00473295      -0.01039597
H        4.93236722      12.28073684       4.91913011       0.01025216      -0.00635988       0.01396870
H        4.34315019      10.77929577       5.14644493      -0.00040297      -0.00118356      -0.00070315
N       11.00562086       5.15584889       8.39779574      -0.00429480       0.00662303      -0.00480519
H       10.98919999       4.38783796       7.73637145      -0.00513551       0.00381321       0.00073925
H       11.13742028       4.73625827       9.31509557      -0.00329536       0.00819958      -0.00112367
H       11.84448178       5.69728935       8.19337482      -0.00473466       0.00392816      -0.00341609
N        0.23385366       9.27504359       9.02959034       0.01168258       0.00219466       0.00155424
H        1.23639698       9.43575245       9.09102944       0.00677054      -0.00141303       0.00269111
H        0.12961770       8.30457231       8.74719836       0.00925200      -0.00176306       0.00643499
H       -0.11534536       9.28473645       9.98278735       0.01100865       0.00423752       0.00454004
N        4.66159136       5.63718634       4.74246984       0.00583363       0.00140524       0.00064126
H        3.70347080       5.96250230       4.60159104       0.00678651       0.00394619      -0.00355272
H        5.28224510       6.29746467       4.28487794       0.00908402       0.00398514       0.01405409
H        4.85969610       5.65376111       5.73798811      -0.00511141      -0.00255649       0.00415128
N       -0.66775639       1.25073512       1.78310553      -0.00952604       0.00399584       0.00454482
H        0.09040034       1.89103093       2.05210370      -0.00984569       0.00264461       0.00242694
H       -1.40031666       1.83240240       1.38405208      -0.01052399      -0.00439210      -0.01250085
H       -1.02872563       0.92532910       2.67583581      -0.01709589       0.00472379       0.00038263
N       10.70510897       1.75031578       7.93661059      -0.00198616       0.00811088      -0.00385949
H       10.43680630       0.77551956       8.08299183       0.01678387       0.00090940      -0.01155582
H        9.85696522       2.29417284       7.79648546      -0.01189816      -0.00809492       0.01353277
H       11.12546861       2.06111562       8.80281898      -0.00058761       0.00566906      -0.00088672
N        7.83865608      11.65939554       0.84072346       0.00081003      -0.00027145       0.00913401
H        7.86415735      12.66929582       0.77580422       0.01294373       0.01077354       0.01098710
H        8.71706270      11.31307113       0.45863903       0.00289897       0.00485286      -0.01013499
H        7.87396111      11.40847122       1.82179120       0.00697390      -0.00337841      -0.01283927
N        3.92075245       3.10635506       9.77089380       0.00375076       0.00336822      -0.00791427
H        3.99338446       4.00590333       9.29440828       0.01023139       0.00713898      -0.00212336
H        4.52792741       3.16010516      10.58815819       0.00245113       0.00095209       0.00187105
H        4.27648173       2.39929175       9.14005823      -0.00426920       0.00442514       0.00046620
N        7.97907796       9.88415154      10.57940327       0.00139280      -0.00033532      -0.00191206
H        7.26195363      10.28977090      11.17162480       0.00901632       0.01625616       0.00320496
H        8.76926248       9.72187996      11.19794292      -0.00342468      -0.01113914      -0.00134736
H        7.62780852       8.98757228      10.25707256      -0.01737109       0.01066227       0.00333799
N        9.75790654       8.06148283       6.05772285       0.01355223      -0.02245086      -0.00648004
H        9.49949495       9.02416432       6.23934242       0.01892527      -0.02091068       0.00254860
H       10.71421273       8.04981069       5.70450156       0.01164213      -0.01977707      -0.01443389
H        9.77202855       7.58812558       6.95441262       0.01347786      -0.02872518      -0.01561968
N       12.41856486       5.11031002       0.68019354      -0.00044650      -0.00426504       0.01439179
H       11.86052666       4.87355727      -0.13661521       0.00049945      -0.00767225       0.00717762
H       12.22851232       6.08993496       0.89465172       0.00307539       0.00287510      -0.00256296
H       12.02046636       4.57913054       1.44868610      -0.00566719       0.01206310       0.01008375
N       10.42587935       3.36414460      11.18677532      -0.00868635       0.00005865      -0.00300729
H       10.11420162       3.37894839      12.16176225      -0.00069729       0.00050502       0.00045165
H       10.89827576       2.47956390      11.04288629      -0.01336661      -0.01601649      -0.00409085
H        9.58857288       3.33297583      10.61584903       0.00399925       0.00830127       0.00505633
N       10.90084578       7.41841505      10.77166551       0.00615591      -0.00231566       0.00815729
H       10.82929380       7.24290887      11.77000699      -0.00802751       0.01667685       0.01237129
H       10.41404482       6.69090542      10.26187635       0.00120972      -0.00694090       0.01681706
H       10.39776654       8.28323924      10.61349038       0.02258231      -0.00386620      -0.01259422
N       12.29403180       1.20389130       5.21391596       0.01115303       0.00340675      -0.00669743
H       13.07408584       0.71409988       5.64646766       0.01018377       0.00682654       0.00019230
H       11.77391588       1.59042251       6.00350872       0.00646945       0.00739545      -0.00926810
H       12.71201512       1.97408933       4.69171506       0.01151617      -0.00010859      -0.00634699
N        9.47316533       3.87200038       1.60744521      -0.01634443      -0.00105500      -0.00515707
H       10.01699834       4.08963952       2.44550506      -0.01641957      -0.00117198      -0.00464946
H        8.56477189       3.52318190       1.91425505      -0.01696845       0.00026735      -0.00666472
H        9.29082574       4.76517598       1.15860836      -0.01307646      -0.00097482      -0.00696278
N        1.56063227       6.36079936      10.74048536      -0.00737035      -0.01208495      -0.02637690
H        0.78196888       6.98160759      10.95163875      -0.01973133      -0.02531939      -0.03279706
H        1.41961770       5.52348951      11.29371973      -0.01076880      -0.01204993      -0.01113354
H        1.45232630       6.11046656       9.76075571       0.01257640      -0.01214780      -0.00940904
N        4.70734956       8.83542963       5.98116285       0.00299110       0.00253570       0.00199818
H        4.18852750       8.24197371       5.34101740       0.00434269      -0.00290573       0.00823890
H        4.25546447       8.73003063       6.89874117       0.00423656       0.00531544       0.00493101
H        5.59660450       8.35893826       6.10153130       0.00255173       0.00461486       0.00385596
N        0.20747723      -0.52786848      10.88843591       0.01273779       0.00641514      -0.00084311
H        0.40026223       0.43805339      10.60442548       0.00175632       0.00832550       0.00071313
H       -0.55085176      -0.88206193      10.31567343       0.00706227      -0.00117589       0.00926563
H        1.04964419      -1.06875895      10.67234720       0.01407367       0.00871234       0.00066590
N        2.31228278       0.42682847       7.27279532       0.00806082       0.00052068       0.00281820
H        1.59487424       0.42894168       7.99171556       0.00660611       0.00572904       0.00118500
H        2.56614201       1.40600694       7.12322436       0.01115010      -0.00152777      -0.00129289
H        3.11656364      -0.03012815       7.69244753       0.00621501      -0.00064819       0.00645916
N       10.12441092      11.80832280       4.10722205      -0.00090969       0.00378013       0.00122899
H        9.66194940      11.30461831       4.86056248      -0.00185835      -0.00034184      -0.00232425
H        9.41088578      12.43898304       3.75544619       0.00399257       0.01453507       0.01003802
H       10.85994819      12.39868591       4.52324535       0.00565459      -0.00870721       0.00430080
N        7.42957066       0.72888393       8.22400925       0.00449855       0.02023053      -0.02358976
H        7.61103080       1.72549285       8.16621561      -0.00375381      -0.00535393      -0.02605961
H        8.24301014       0.29926850       8.65451425      -0.00706351       0.01040371      -0.00945750
H        6.64367306       0.57194709       8.84468207      -0.01154559       0.01753544      -0.00770029
N       12.54940424       7.62706759       4.23971457      -0.00309249      -0.00342256       0.00081179
H       13.32311615       6.99402704       4.03441311      -0.00356741      -0.00965264       0.01569804
H       12.15242409       7.87623134       3.33744132       0.00403742      -0.01192378      -0.00308231
H       12.94105754       8.48454360       4.62121472      -0.00254678       0.00106050      -0.00853273
N        1.40040589       6.65112927       7.28355963      -0.00973715      -0.00280139       0.00243124
H        1.48675590       7.65739269       7.20582826      -0.01705770      -0.01111902      -0.00742152
H        1.20071258       6.31123752       6.34856794      -0.01108742      -0.01394401      -0.00308685
H        2.33831307       6.33325463       7.53763343      -0.01033556      -0.00156574      -0.00275346
N        5.27532629       4.28253135      -0.23300975       0.01509086      -0.01259016       0.01543219
H        4.49680079       4.17773060       0.41234296      -0.01681250      -0.01135623       0.00173878
H        5.12040704       5.16693007      -0.71009219      -0.00252301       0.00132695       0.00553958
H        6.12052141       4.37214182       0.31704817      -0.02545074      -0.00997506       0.00635469
N        9.86930375      11.14468117       8.36346909       0.01380454       0.00435935      -0.00557472
H        9.40257665      11.05913758       7.46636476       0.01156699      -0.01753534      -0.00428492
H        9.24112021      10.72428957       9.05277911       0.01594154       0.01428260       0.00148126
H       10.70978726      10.57241503       8.32742585       0.01423278       0.00720051       0.00407284
N        1.27541532      11.65494698       3.00765821      -0.00142935       0.00316782      -0.00069785
H        2.28336839      11.52979889       2.97793348       0.00332627       0.00438739      -0.00998931
H        0.91542335      10.92960617       3.62536785       0.00904697       0.01388950       0.00749810
H        1.11999845      12.53601325       3.48958084       0.00216532       0.01041134      -0.01151083
N        2.68595476       3.59324630       6.75219611       0.00751694       0.00121525       0.00669222
H        3.26232499       4.35299121       7.11214015      -0.00450735       0.00436579       0.00835157
H        1.77885791       3.73357509       7.18459142       0.00209564      -0.01118223      -0.00346813
H        2.54467517       3.76153034       5.76043116       0.01000178       0.00347886       0.00207333
N        8.37442220       3.63283927       6.67382137      -0.01507907      -0.01189077       0.00329077
H        7.41461215       3.44517022       6.38046774      -0.01357093      -0.00304753      -0.00418749
H        8.95934384       3.34610904       5.89687822      -0.00945110      -0.00038953       0.01281977
H        8.48916053       4.63658104       6.75704327      -0.01704276      -0.00449421       0.01432005
N        9.05850572       7.00222349       3.31022411      -0.00189531      -0.00129950      -0.00292996
H        8.18091296       6.49833349       3.26166483       0.00435570      -0.00932352      -0.01649170
H        9.18912592       7.30428861       4.28531049      -0.01136685      -0.00920998       0.00127971
H        9.80465173       6.34093731       3.11372609       0.00549805       0.00553299       0.00192433
N        0.94957361       2.47180600      10.08032393       0.00128194      -0.00035125      -0.00418286
H        0.54888263       3.13075713      10.73975960      -0.00071358      -0.00460321      -0.00010133
H        0.60779919       2.76450850       9.17089820      -0.00401667       0.00297506      -0.00036258
H        1.96517872       2.65252611      10.05996014      -0.00072198       0.00702427      -0.00700849
N        7.53384245      11.24950789       5.79051681      -0.00059420      -0.01506525       0.00632944
H        7.45283694      11.95965432       6.52553570      -0.00967769      -0.00786883       0.00102713
H        6.79620197      10.56953514       5.94642277       0.00533648      -0.01796795       0.00708519
H        7.31139409      11.70315250       4.91198831       0.00168739      -0.02361624       0.00078446
N        1.28411883      10.13612371       6.02092996      -0.00247649       0.00813299       0.00346464
H        1.55485757      11.09015479       6.25960343       0.00553829       0.00594758      -0.00100968
H        2.13526983       9.59274485       6.12466579      -0.00592195       0.00065339       0.00715723
H        0.67307330       9.84717291       6.78186799      -0.00317664       0.01559811       0.00495134
N        5.36189267      10.94602875       8.58154057      -0.00246412       0.00681327       0.00563423
H        5.44061826      11.17585105       7.59850958      -0.00355140       0.00098217      -0.00243886
H        4.86786648      10.05114491       8.63220553       0.00302822       0.00839943       0.00909184
H        6.30823904      10.75981465       8.90019791      -0.00342317       0.01918436       0.00223701
N       11.33113051       4.71930329       4.12461378       0.00353436      -0.01034193      -0.00307603
H       12.18140029       4.19966924       3.89756614       0.00028596      -0.00940666       0.00116351
H       10.95154704       4.29961997       4.96484383      -0.00090406      -0.01065233      -0.00123031
H       11.63863590       5.65759280       4.38573259       0.00142269      -0.01067076      -0.00135575
N        2.22943860       0.33326882       0.42662932      -0.00947678       0.00416780       0.01369321
H        2.25798995       1.22688960       0.91006121      -0.00971027      -0.01219398       0.03503228
H        2.42129093       0.52412135      -0.55078552      -0.01528815       0.02986657       0.01362735
H        3.00754794      -0.23701561       0.77499785      -0.01346084      -0.00901272      -0.00589722
N        3.71101621       7.64122388       1.62257768       0.00725128      -0.00862247       0.01016801
H        4.63233194       7.50660265       2.02700341      -0.00268966      -0.00145436       0.02523401
H        3.76768122       7.31219512       0.66314272       0.02446852      -0.01416848       0.01174715
H        3.09162130       6.99484759       2.11073891      -0.00141949      -0.00804978       0.00177911
N        4.49997220      10.90150921       1.52405400      -0.00133634       0.00638649      -0.00454853
H        5.43742512      11.04115733       1.15674589      -0.00326492       0.00008468      -0.00983763
H        4.32113872       9.89892070       1.54165897      -0.00667021       0.00841118      -0.00312221
H        4.49499528      11.21070455       2.49628320       0.01101467       0.00362672      -0.00227926
N        6.61039330       2.66507474       2.61888599      -0.00341159      -0.00347047       0.00443918
H        6.75561714       2.53865394       3.61527367       0.00225019       0.00495295      -0.00207065
H        6.56350032       1.74229362       2.20362246      -0.00234332      -0.01972718       0.01112291
H        5.66967001       3.04556899       2.53803740       0.00053701      -0.01377416      -0.00073881
N        6.37980830       8.48799760       3.33071376       0.00038774       0.00547764       0.00767620
H        6.75080172       8.85710551       2.46022780       0.01756542      -0.00330772       0.00254144
H        7.12302357       8.60442807       4.01119867      -0.00545949       0.01144918       0.00666681
H        5.63088094       9.10905161       3.61763020       0.00310181       0.00694387      -0.01571602
N        5.57292715       2.28241191       5.94221991      -0.00531524       0.01346135      -0.00399597
H        5.07299407       2.04861057       5.09035668       0.00217409       0.02074710      -0.00665260
H        4.85086299       2.64663597       6.55942598      -0.00928423       0.00775966      -0.00342670
H        5.91840922       1.42473689       6.36194683      -0.00651947       0.00934342      -0.00674173
N        7.48247400       5.21455466       9.73316937       0.00615096       0.00194567       0.00813428
H        6.86885451       4.40911069       9.77030510       0.00960608      -0.00415203       0.00302736
H        7.73725785       5.46072551      10.68818901       0.00508292      -0.00357229       0.00278264
H        8.31620324       4.97395748       9.20957942       0.00973598       0.00339764       0.00427669
N        1.35704441       9.45671986       0.58006900      -0.01317003      -0.00910962      -0.01477164
H        0.64262739       8.74052203       0.73483898      -0.00255073      -0.01690757      -0.01836267
H        1.65498906       9.40352277      -0.38871181      -0.00920036       0.00640976      -0.01812906
H        2.16606087       9.19374048       1.14329397      -0.01025070      -0.00040564      -0.02306336
N        7.28537104       6.88375893      12.44743540      -0.00734070       0.00259727      -0.00522310
H        6.57814932       7.22890566      11.80392629       0.00506774      -0.00281436       0.00464408
H        6.79050754       6.63773295      13.29674610      -0.00331026       0.01069203       0.00711378
H        7.88929558       7.66611549      12.68050724       0.00359169       0.00475444      -0.00168933
N        3.16936021      10.56537881      10.81102750      -0.01017335       0.00085795      -0.00800803
H        3.51862811      10.57398558      11.76521708      -0.01102743       0.00273993      -0.01693816
H        3.35838823       9.63950543      10.42303738       0.00769505       0.00037922      -0.00942379
H        3.79267321      11.16868491      10.27860227      -0.01523061       0.00801977      -0.01167148
