195
Lattice="13.67491017088061 0.0 0.0 0.0 13.67491017088061 0.0 0.0 0.0 13.67491017088061" Properties=species:S:1:pos:R:3:forces:R:3 energy=-795775.1875 stress="-0.002988127525895834 0.00044286415504757315 -0.00016790183872217312 0.00044286415504757315 -0.0036136209964752197 0.00016414521087426692 -0.00016790183872217312 0.00016414521087426692 -0.004755150061100721" pbc="T T T"
Fr      13.62300747      13.55706335       1.75277018      -0.00164074      -0.00591353       0.00622791
O       11.81122541      12.62064672       3.47646001       0.00194907      -0.01020616      -0.00116789
O       11.78512639      12.93533955       5.70472918       0.00012517      -0.00028998      -0.00722456
C        9.72984966      12.50658451       4.61265930       0.00142276      -0.00259563      -0.00029542
C        8.99794610      12.86676309       5.74203759       0.00817149       0.00198241       0.00993642
C        9.05027048      12.01476969       3.49981803       0.00156146       0.00231320       0.00999071
C        7.61405878      12.75576164       5.75578672       0.00130180      -0.00012245       0.00598103
C        7.66840277      11.87508225       3.52028118      -0.00202671       0.00205019       0.00696385
C        6.94430229      12.25304779       4.64564155       0.00470531       0.00426511       0.01319551
C       11.24380137      12.70606074       4.61148696       0.00464952      -0.00074917       0.01477832
H        9.53807126      13.25976929       6.59396898       0.00630390      -0.00147452       0.00335631
H        9.61719670      11.73919591       2.62185964      -0.00223956      -0.00007164       0.00472265
H        7.05658463      13.07149962       6.62705966       0.00777654       0.00135669       0.01034568
H        7.15771715      11.48234572       2.64979629      -0.00184578       0.00504618       0.01018953
H        5.86575884      12.15371095       4.66140884       0.00245117       0.00411441       0.01236166
C       11.83219909       4.83697368       8.97755510       0.00710704      -0.00741965       0.00291009
C       13.12196636       5.34967352       9.04038527       0.00871303      -0.01206293      -0.00178511
C       10.73970076       5.68877289       9.07718736       0.01079376      -0.00419660       0.00926972
C       13.31866196       6.71905458       9.18687586       0.01396486      -0.01355717       0.00075072
C       10.93828935       7.05149212       9.23297971       0.01600546      -0.00535379       0.01189335
C       12.22644747       7.57014303       9.27636818       0.01764556      -0.01011494       0.00824265
H       11.68046052       3.77117444       8.85590992       0.00291665      -0.00641210       0.00153829
H       13.97235576       4.68297715       8.97079004       0.00598648      -0.01465683      -0.00762495
H        9.73352264       5.29397660       9.03730909       0.00959267      -0.00050274       0.01301212
H       14.32015178       7.13077775       9.22290315       0.01521677      -0.01715181      -0.00322958
H       10.08529681       7.71501060       9.29682562       0.01893105      -0.00297897       0.01753211
H       12.37570737       8.63711149       9.36301132       0.02164097      -0.01113321       0.01128175
C        2.34919766       8.12329748       4.55647374       0.00708492       0.00744050       0.00600710
C        3.46778914       7.30316783       4.63942052       0.00507943       0.00517710       0.00665867
C        2.50060005       9.46872043       4.23894431       0.00902124       0.00495351      -0.00080803
C        4.73091309       7.83177871       4.40703476       0.00536653       0.00118125       0.00169161
C        3.76265372       9.98963106       3.98170995       0.00936546       0.00111166      -0.00473806
C        4.88043067       9.16918338       4.06431245       0.00771286      -0.00073225      -0.00276978
H        1.36091920       7.71726023       4.73753652       0.00712873       0.01044077       0.01122095
H        3.35725130       6.25550504       4.88957369       0.00300595       0.00679924       0.01104450
H        1.63538685      10.11566902       4.19260715       0.01044708       0.00665181      -0.00248997
H        5.60172158       7.19589043       4.48855760       0.00398384      -0.00052660       0.00167641
H        3.87028741      11.03751398       3.72855165       0.01135935      -0.00044033      -0.00902081
H        5.86867666       9.57492894       3.88605985       0.00794201      -0.00339379      -0.00539098
C       11.21237494       2.60893974       1.58124383       0.00611001       0.01137367       0.00255845
C       12.26157907       2.88260316       2.45986309       0.00532639       0.00233334       0.00742526
C       10.04874397       2.01689683       2.05433150       0.00337504       0.01292520      -0.00206292
C       12.12725162       2.57682704       3.81259351       0.00117786      -0.00354229       0.00362448
C        9.91151286       1.72452285       3.40564005      -0.00041667       0.00542194      -0.00610027
C       10.94941286       2.00740766       4.28379312      -0.00153931      -0.00254363      -0.00035675
H       11.28238258       2.89583050       0.54143869       0.00953788       0.01676364       0.00559740
H       13.14809457       3.39828363       2.10623256       0.00742599       0.00097235       0.01133635
H        9.22792571       1.82162898       1.37737140       0.00435686       0.02027495      -0.00581466
H       12.93573992       2.79294031       4.49935790      -0.00013946      -0.00944781       0.00742070
H        8.99736949       1.28051605       3.77495201      -0.00160627       0.00526198      -0.00958161
H       10.85366111       1.76002325       5.33258930      -0.00473063      -0.00737718      -0.00373749
C        7.97783391      11.75124302       0.06580927       0.00000687       0.00264363       0.00138677
C        8.76554437      12.89298851       0.01010282      -0.00393177       0.00756849       0.00015046
C        8.57038911      10.49502985       0.04702828       0.00663035       0.00748331       0.00301715
C       10.14982111      12.78300368      -0.03539313      -0.00514910       0.01206246      -0.00109222
C        9.95328817      10.38709280      -0.00137128       0.00553145       0.01155904       0.00231166
C       10.74328309      11.52817031      -0.02579753       0.00142303       0.01665768      -0.00100210
H        6.90166148      11.83940089       0.10401185       0.00045992      -0.00105350       0.00080283
H        8.29593188      13.86816546       0.00208817      -0.00859310       0.00449784       0.00012562
H        7.95304556       9.60436445       0.06502951       0.00983033       0.00395548       0.00490473
H       10.76295864      13.67519720      -0.07599310      -0.00876845       0.01555052      -0.00220928
H       10.42289915       9.41511221      -0.00638137       0.01027846       0.01467676       0.00374727
H       11.82097519      11.42654378      -0.04708049       0.00085838       0.02065533      -0.00359597
C        8.23007637       4.48849569       3.13228487      -0.01669621       0.00051892       0.00621131
C        6.91927198       4.04348122       3.03450122      -0.01788238       0.00886008       0.00326701
C        8.57362025       5.77224879       2.74230335      -0.00871973      -0.00111056      -0.00125641
C        5.93755023       4.90715181       2.56564475      -0.01181778       0.00803167      -0.00487149
C        7.59644367       6.63228442       2.26348331      -0.00302097      -0.00216343      -0.00928232
C        6.27905041       6.20127756       2.18987031      -0.00425617       0.00621712      -0.01225544
H        8.99437686       3.84589949       3.53341952      -0.02131356       0.00035798       0.01165934
H        6.66669409       3.03456245       3.34076152      -0.02394926       0.01114780       0.00899774
H        9.59789745       6.09503496       2.85347867      -0.00817627      -0.00659207      -0.00012389
H        4.90397802       4.58837222       2.51286465      -0.01269700       0.01396220      -0.00680139
H        7.84697691       7.64560553       1.97090565       0.00313474      -0.00439022      -0.01526260
H        5.50665297       6.88425760       1.87459937       0.00018616       0.00633512      -0.01861205
C       11.54877498       6.56024128       5.88653165       0.00018869       0.00872632       0.00440626
C       11.03700489       7.80466261       6.22139887      -0.00064161       0.00659898       0.00958781
C       10.69310488       5.47792146       5.73018341       0.00353625       0.00836049       0.00162783
C        9.66552726       7.98085362       6.36232660      -0.00152911       0.00285311       0.01263264
C        9.32499528       5.64500190       5.89932759       0.00287172       0.00457357       0.00428970
C        8.80911569       6.90049132       6.20020289       0.00163084       0.00225258       0.00990019
H       12.61770896       6.43250683       5.76775401       0.00067684       0.01166759       0.00158697
H       11.70691941       8.63989336       6.37040580      -0.00318351       0.00730579       0.01124886
H       11.08798765       4.50226607       5.47762453       0.00444251       0.00998674      -0.00266778
H        9.26828237       8.96294277       6.59291048      -0.00240347       0.00097877       0.01703591
H        8.65897331       4.80319960       5.77357460       0.00497150       0.00399622       0.00253098
H        7.73792024       7.03669535       6.29399936       0.00127278      -0.00061166       0.01235825
C        3.99336853       6.14463217      -0.01882929      -0.01117693       0.00225739      -0.01517656
C        4.07836249       7.52363839      -0.16747512      -0.00879058       0.00247618      -0.01345677
C        2.77839292       5.54813468       0.28634960      -0.01288487       0.00492753      -0.01836682
C        2.93978147       8.30392988      -0.02636063      -0.00704935       0.00401662      -0.01389514
C        1.63431381       6.32704761       0.41364911      -0.01099126       0.00629319      -0.01932693
C        1.71667477       7.70375341       0.24227610      -0.00836150       0.00678978      -0.01554418
H        4.88000405       5.53673131      -0.11932133      -0.01266292       0.00100881      -0.01485444
H        5.03494480       7.98671583      -0.38022086      -0.00798863       0.00056920      -0.01252788
H        2.73077034       4.47350939       0.41227704      -0.01551818       0.00480124      -0.02052676
H        2.99811443       9.38151842      -0.11442603      -0.00470084       0.00383665      -0.01200075
H        0.68325009       5.86206020       0.64845398      -0.01189138       0.00759690      -0.02225861
H        0.83370174       8.32016239       0.31948942      -0.00708963       0.00819905      -0.01590953
C        7.17387086      10.45580916      10.26659008      -0.00057729      -0.00304023       0.00727935
C        7.29460074      11.83190357      10.40808430      -0.00264406      -0.00303599       0.00365734
C        6.09233116       9.79024606      10.82996407      -0.00281952      -0.00237909       0.00253512
C        6.32255590      12.54666732      11.09959660      -0.00680446      -0.00194946      -0.00362624
C        5.12103469      10.50560812      11.51824607      -0.00748394      -0.00139005      -0.00546565
C        5.23270797      11.88504715      11.64952336      -0.00920309      -0.00128474      -0.00822423
H        7.91134879       9.90070747       9.70013692       0.00353001      -0.00423744       0.01395189
H        8.15076862      12.34663621       9.98908220      -0.00102508      -0.00351273       0.00698875
H        5.98858128       8.71923779      10.70752565      -0.00093751      -0.00245701       0.00578178
H        6.42203817      13.61893421      11.21646039      -0.00855887      -0.00201386      -0.00633044
H        4.26775416       9.98595331      11.93046163      -0.00945161      -0.00060804      -0.00982834
H        4.47677587      12.44299783      12.18926168      -0.01307837      -0.00098088      -0.01488123
C        5.54437422      10.06738344       7.31517560      -0.00883362       0.00151166       0.00595236
C        5.09618564       8.77133893       7.53245885      -0.00805792       0.00230588       0.00836161
C        4.77662680      11.14394760       7.74198390      -0.01113962       0.00191081      -0.00261771
C        3.87900925       8.55176087       8.16549544      -0.01112485       0.00348133       0.00352707
C        3.56927408      10.92589596       8.39406125      -0.01475838       0.00341912      -0.00828085
C        3.11745954       9.62814918       8.60357456      -0.01379243       0.00425443      -0.00543310
H        6.48243759      10.24249094       6.80218111      -0.00616901       0.00027843       0.01010986
H        5.68148439       7.92975221       7.18388986      -0.00583979       0.00172615       0.01490849
H        5.12093037      12.15615501       7.56819902      -0.01164497       0.00159258      -0.00482773
H        3.51848718       7.53958497       8.29922520      -0.01016206       0.00393134       0.00606425
H        2.97991291      11.76528543       8.74077368      -0.01753123       0.00393340      -0.01587197
H        2.17265032       9.45993470       9.10585762      -0.01672012       0.00556984      -0.01029451
C        9.96941567       6.62244408      12.36971351      -0.00559261      -0.00610684       0.01529716
C       11.25722800       6.10108751      12.42850767      -0.00483214      -0.00398871       0.01004482
C        8.88513559       5.78203661      12.15441851      -0.00456464      -0.00701319       0.01512847
C       11.45974440       4.73802350      12.26187124      -0.00283727      -0.00269141       0.00462008
C        9.08877799       4.41693636      11.98011782      -0.00250706      -0.00599875       0.01032491
C       10.37588688       3.89725402      12.02963559      -0.00173369      -0.00356323       0.00499561
H        9.81013994       7.68967542      12.46208818      -0.00720291      -0.00721857       0.02103291
H       12.10638391       6.76035617      12.55975888      -0.00613733      -0.00326093       0.01105137
H        7.88521784       6.19636597      12.11025319      -0.00523509      -0.00927275       0.02037278
H       12.46650411       4.33757620      12.28143453      -0.00225940      -0.00065791       0.00086207
H        8.25113810       3.75769697      11.78781473      -0.00184894      -0.00647340       0.01167308
H       10.53317789       2.83670413      11.86918161      -0.00050244      -0.00265914       0.00188844
C       12.34047102       8.06914130       1.79473477       0.00530307      -0.01908537       0.00467240
C       10.97257167       8.02398283       2.01978249       0.00232731      -0.01188342      -0.00355802
C       13.15565968       8.87314437       2.58646202       0.00265251      -0.02130576       0.00743990
C       10.41209565       8.77627699       3.04249718       0.00172262      -0.00728247      -0.00900429
C       12.59149448       9.62000532       3.61103735       0.00209813      -0.01552226       0.00109437
C       11.22469604       9.56854618       3.83413386      -0.00128394      -0.00900161      -0.00623244
H       12.76184403       7.47404538       0.99736191       0.00661403      -0.02275448       0.00941384
H       10.35001312       7.40809144       1.38365225       0.00446975      -0.01046226      -0.00571004
H       14.22307202       8.90782785       2.41085378       0.00456986      -0.02787644       0.01362605
H        9.34808334       8.74366996       3.23716595      -0.00020997      -0.00166592      -0.01545443
H       13.19285459      10.27120870       4.23336358       0.00063878      -0.01834266       0.00415052
H       10.79286326      10.15116722       4.63236360      -0.00237873      -0.00556630      -0.01076473
C        7.94251578       1.56735768       8.56138267      -0.00232060       0.00101795       0.00121438
C        6.62677733       1.11742434       8.56018329      -0.00251913       0.00203256      -0.00278461
C        8.21821640       2.89307467       8.24824624      -0.00128274       0.00092223       0.00126296
C        5.58996697       1.98542875       8.24216477      -0.00048825       0.00147648      -0.00663369
C        7.17856025       3.76441405       7.94022588       0.00078479       0.00040038      -0.00236139
C        5.86635331       3.30949116       7.92635365       0.00052673       0.00136985      -0.00665386
H        8.75217624       0.88760710       8.80149185      -0.00379466       0.00121792       0.00372899
H        6.40737863       0.08882799       8.81093697      -0.00339879       0.00215648      -0.00286739
H        9.24191221       3.24603388       8.23829644      -0.00114970       0.00032041       0.00458021
H        4.56638148       1.62985436       8.25670605      -0.00062266       0.00240339      -0.00974594
H        7.39341548       4.80068799       7.71340538       0.00164771       0.00022778      -0.00189812
H        5.05981756       3.98998235       7.68736159       0.00195514       0.00103546      -0.00940093
C        3.16165645       5.14989619      10.10465117      -0.00272816      -0.00586058       0.00756584
C        4.51810771       5.42647812      10.22556156      -0.00281752      -0.00570579       0.00213674
C        2.62221746       4.03006237      10.72796009       0.00118311      -0.00964291       0.00336500
C        5.33426933       4.58026366      10.96495871       0.00162718      -0.00934318      -0.00801048
C        3.43981538       3.18653651      11.47168945       0.00562689      -0.01335777      -0.00668805
C        4.79697518       3.46208917      11.59041803       0.00560243      -0.01350208      -0.01248354
H        2.52287953       5.80617473       9.52622896      -0.00594627      -0.00249199       0.01588348
H        4.94131445       6.29749307       9.73938746      -0.00647590      -0.00219715       0.00573331
H        1.56229797       3.82334376      10.64728743       0.00111622      -0.00949968       0.00789235
H        6.39227228       4.79107042      11.04350988       0.00170337      -0.00979486      -0.01297707
H        3.01535536       2.32118775      11.96611476       0.00924157      -0.01699881      -0.01041207
H        5.43331429       2.81075171      12.17752216       0.00926178      -0.01768955      -0.02189438
C        1.38898810       4.30876357       6.00679005      -0.00148181       0.00524606      -0.00983281
C        1.21704269       4.52653858       4.64433220       0.00292660       0.00570348      -0.00988952
C        2.36939552       3.42637765       6.45083111      -0.00512239       0.00358594      -0.00695819
C        2.02121772       3.85933287       3.72702276       0.00433350       0.00436836      -0.00723957
C        3.17204699       2.75701560       5.53253389      -0.00401000       0.00185209      -0.00429325
C        2.99558331       2.97205892       4.17020051       0.00069693       0.00241838      -0.00449632
H        0.76070474       4.82846365       6.71953821      -0.00243418       0.00655469      -0.01169316
H        0.45778999       5.21652650       4.29518307       0.00562841       0.00716035      -0.01200447
H        2.51100173       3.26480495       7.51376358      -0.00847725       0.00329294      -0.00674210
H        1.90134560       4.04997489       2.66805767       0.00828128       0.00485929      -0.00735442
H        3.94189852       2.07785966       5.87564140      -0.00687636       0.00018767      -0.00214817
H        3.62502299       2.45432443       3.45651919       0.00169291       0.00137443      -0.00246096
C       11.96653479      12.46540921       8.76261541       0.00819007      -0.00046615      -0.00286767
C       10.87583921      11.63294415       8.99830662       0.01004681      -0.00156203       0.00261410
C       13.07612975      12.39541887       9.59696723       0.01048175       0.00047867      -0.00431790
C       10.89623390      10.73655424      10.05901462       0.01248600       0.00140963       0.00204590
C       13.10801763      11.48153119      10.64608351       0.01322758       0.00391594      -0.00454623
C       12.01991677      10.64890131      10.87138084       0.01501316       0.00286901       0.00108939
H       11.95776890      13.12083706       7.90258150       0.00577760      -0.00254124      -0.00284955
H       10.01836423      11.67435528       8.33615531       0.00819845      -0.00233745       0.00397010
H       13.92623897      13.04248916       9.41835534       0.00921561       0.00128583      -0.00857480
H       10.04601121      10.09616842      10.25581959       0.01375429       0.00113335       0.00590909
H       13.98413131      11.40982244      11.28032486       0.01508521       0.00548576      -0.00578637
H       12.04418394       9.92120198      11.67199428       0.01654151       0.00572097       0.00202218
