198
Lattice="19.151695905863367 0.0 0.0 0.0 19.151695905863367 0.0 0.0 0.0 19.151695905863367" Properties=species:S:1:pos:R:3:forces:R:3 energy=-2695520.75 stress="-0.00014994856610428542 9.953690823749639e-05 3.954555904783774e-05 9.953690823749639e-05 0.00010017878958024085 -8.516522564949724e-08 3.954555904783774e-05 -8.516522564949724e-08 -0.00037100212648510933" pbc="T T T"
Fr      18.86111547      18.29528353       0.28409713       0.00596321       0.00111657      -0.03635764
N       20.49983998      15.98591456       0.79199595       0.01335323      -0.00195807       0.02621977
C       20.10099433      14.90370723       0.98966267       0.00327778       0.00004077      -0.00354794
Cl       1.48402238       3.47759116      18.93165402       0.00451590       0.00334093       0.01092418
Cl       0.69903126       5.99591929      17.72046939      -0.01592785      -0.00492537       0.00668254
Cl       3.09817024       5.84789391      19.34414029      -0.00871971       0.01427363      -0.00214932
Cl       0.48455894       5.64087271      20.58666382      -0.00284922       0.00177284       0.00880226
C        1.44120751       5.25649372      19.14565852      -0.00574546       0.00325152       0.00581953
Cl      11.78735046      11.72640511      14.59513968       0.01040408      -0.00375533       0.00470698
Cl      10.13646540      13.45399628      12.96132635       0.00038246      -0.01253608       0.00558907
Cl       8.91128441      11.35220348      14.54133397       0.01203129      -0.01598129       0.00982806
Cl      10.51611093      10.67477424      12.22318587       0.00945234      -0.01140961       0.00758120
C       10.33856017      11.79816446      13.57721867       0.00826363      -0.01097398       0.00670780
Cl       6.02733099      -0.42509118      12.18974333      -0.00569479       0.00205106      -0.00489910
Cl       4.50150123       1.67953675      10.89842433       0.00323209       0.00552315      -0.00944051
Cl       7.38356109       1.87813403      11.07032133       0.00335944      -0.00314954      -0.00535518
Cl       5.77104589       2.16107391      13.46609642       0.00031842       0.00427034      -0.00831079
C        5.92333985       1.32498719      11.90326441       0.00002583       0.00199358      -0.00710237
Cl       5.12191969      11.56500577       2.13877786       0.00762627      -0.00880169       0.00043917
Cl       5.27780797      13.21911875       4.51437382      -0.00528800      -0.00846952       0.00129068
Cl       7.69911343      12.14006513       3.33733683       0.00202096       0.00081760       0.00827869
Cl       5.84083348      10.37722724       4.68585288       0.00482750      -0.00615132       0.00241265
C        5.98584148      11.82586962       3.66524270       0.00216675      -0.00546758       0.00307818
Cl       8.25891885      11.44035734      18.84575664       0.01363778      -0.00805038      -0.00095476
Cl      10.85176974      10.58606917      17.88514758       0.01408489      -0.02049100       0.01085046
Cl      10.63688096      11.90658678      20.45254073       0.01291800       0.01267972      -0.00565863
Cl      10.21166896      13.41528849      18.01665276       0.01471381      -0.01881760      -0.02450816
C        9.98274575      11.83755321      18.80416986       0.01388134      -0.00884980      -0.00535634
Cl       3.12592011       4.08921856      15.42146540      -0.00855502      -0.00174919      -0.00898850
Cl       3.25508893       6.91947846      14.81572256      -0.00536154      -0.00066978      -0.00368224
Cl       0.91580550       5.38730607      14.04833309      -0.00574553       0.00270210      -0.00800491
Cl       3.43643269       4.97335218      12.67303947      -0.00509638       0.00321621      -0.00696126
C        2.68740766       5.34617779      14.23658741      -0.00655475       0.00049157      -0.00705914
Cl      12.50545468      18.35901075       3.17705367      -0.00660133      -0.00516659      -0.01090589
Cl      12.19698799      16.02751536       1.47320073       0.00603549      -0.01254295      -0.00284114
Cl      14.32812726      16.13090617       3.43694080       0.00575630       0.00620449      -0.00388551
Cl      14.43555689      17.83145652       1.08186360      -0.00407845      -0.00063215      -0.01009328
C       13.35126987      17.07789674       2.31210685      -0.00019918      -0.00293384      -0.00666022
Cl       3.44520522      17.32958758       6.12736328      -0.01447805       0.02195120      -0.00381461
Cl       2.11249098      18.84106534       4.05317036       0.00460741      -0.02759895      -0.02538607
Cl       3.75457454      16.54803918       3.36768280       0.01056923      -0.01009259       0.00957060
Cl       5.00770600      18.98110814       4.32328477      -0.01533601       0.00650910       0.00572484
C        3.59433509      17.91019645       4.46496971      -0.00963429       0.00062041      -0.00886711
Cl       7.95547720       1.90153703       2.22837590      -0.00169450       0.00214066       0.00103357
Cl       8.86703233       2.16596853      -0.51647842      -0.01017165       0.01233774      -0.00041431
Cl       9.42531132      -0.26683979       0.96701646      -0.00689850       0.00606814      -0.01196412
Cl      10.78347097       2.20541649       1.66166586      -0.00315109       0.00256996      -0.00637370
C        9.25400936       1.49976954       1.08499201      -0.00575162       0.00587724      -0.00440448
Cl      14.42404005       2.88918107       9.30806799       0.00453737       0.00770313      -0.00562242
Cl      14.89587001       4.26654996      11.81758615      -0.00642650       0.00117409       0.00014096
Cl      16.98905639       4.13537512       9.81346515      -0.00274289       0.01954371       0.00275286
Cl      16.23004341       1.74370406      11.27401137       0.00738158       0.01058909      -0.00707078
C       15.63583102       3.26645230      10.55171587       0.00089059       0.00947130      -0.00190954
Cl       4.39947092       1.46784373      19.78654324      -0.00505194       0.00318584      -0.01172885
Cl       3.06697994      -1.07757451      19.22103512       0.00766463      -0.00825092       0.00552658
Cl       5.70300514      -0.53094669      18.15859698       0.00352764      -0.00571227       0.00876704
Cl       3.40004106       0.90126439      17.11866532       0.00009415      -0.02193394      -0.00760651
C        4.14682881       0.19597391      18.57989960       0.00023947      -0.00838605      -0.00074863
Cl       2.00780680      10.49707722       4.50866367       0.00741780       0.00890295      -0.00084203
Cl       1.13498110      11.94422733       2.14428179      -0.01089245       0.00228214       0.00213498
Cl      -0.47274805       9.77013671       3.19740900       0.00257891      -0.00237672       0.01489878
Cl       2.06418053       9.18203838       1.93620457      -0.00278792       0.00628561      -0.00010771
C        1.18487023      10.35846216       2.93674474      -0.00106253       0.00391512       0.00416579
Cl       3.99579661       4.99636791       6.30632305       0.00893781       0.00408766       0.00425899
Cl       3.05797939       3.90420395       3.79024183       0.00248386       0.00697041       0.00522524
Cl       4.69972683       6.30537142       3.81122126       0.00617531       0.00485194       0.00457442
Cl       1.97759112       6.41081241       4.79753486       0.00775507       0.00816625       0.00866768
C        3.43661812       5.41019786       4.68142949       0.00640509       0.00645271       0.00589252
Cl      15.85177721      14.82170958       0.15924275       0.01330548      -0.00107285       0.00535078
Cl      14.50320005      12.32896909      -0.44787843      -0.00528365       0.01083162      -0.00328857
Cl      16.24257729      12.50676087       1.86570794      -0.00620275      -0.00848530      -0.00045523
Cl      17.38020748      12.54948518      -0.78952853      -0.00322175      -0.00947911       0.00012371
C       15.99801725      13.03791654       0.18898023      -0.00056465      -0.00341114       0.00058074
Cl       3.23210048      10.25084771      15.71336602       0.00873883       0.00241969      -0.00520954
Cl       3.03591888      11.21092797      18.44155885      -0.00169018       0.00317143      -0.00611579
Cl       5.30883984      11.95460676      16.80634996       0.00211692       0.00662166       0.00069207
Cl       5.03360563       9.22468633      17.74988317       0.00410494       0.00662157       0.00077105
C        4.15589054      10.66184908      17.17975738       0.00342709       0.00469488      -0.00244587
Cl       8.45875356      15.96576604       8.96798327      -0.00257622      -0.00119764       0.00457072
Cl       8.85054635      18.27861838       7.26739856      -0.00092953      -0.00532967      -0.00076777
Cl       6.27048579      17.80760200       8.50359983      -0.00038156       0.00117655       0.00312684
Cl       7.19581507      16.07633162       6.36303146      -0.00568289      -0.00465795       0.00547603
C        7.69357695      17.03620331       7.77193083      -0.00250510      -0.00252728       0.00308196
Cl      13.49296124       8.87153858       7.27457436       0.00193538       0.00343166       0.01209164
Cl      11.31189629       9.73976383       8.96052854      -0.02712297      -0.02547160      -0.00961057
Cl      14.06098141      10.09171609       9.83274112      -0.04031381       0.01370060       0.01653796
Cl      12.90178993       7.43292110       9.72314493      -0.00240277      -0.00252151       0.00774194
C       12.94365266       9.03311164       8.94781927      -0.01717388      -0.00271956       0.00665755
Cl       8.35626746      12.54189580       9.99929592       0.00062530      -0.00395997       0.00951940
Cl       6.01400189      12.45400631       8.29276709      -0.00294071       0.01403885       0.01381778
Cl       7.75384326      10.13930481       8.50839286      -0.01537122       0.00370532       0.00328652
Cl       8.66033532      12.51683312       7.11659682      -0.00521612       0.00233577       0.00819519
C        7.69299874      11.91817188       8.47542420      -0.00556248       0.00426756       0.00875372
Cl       2.62083485       1.68908519       7.51920972       0.00052565       0.00563852       0.00151858
Cl       0.13443235       1.21539277       8.92570556       0.00241733       0.01229319       0.00682534
Cl       0.36216804       3.45848422       7.08598614       0.00304472       0.00950965       0.00319868
Cl       1.76653906       3.51105768       9.61361821       0.00742718       0.00972921       0.00095636
C        1.22053522       2.46647063       8.27862450       0.00326073       0.00943918       0.00407068
Cl      16.44155669       4.94892900      15.80827991       0.00589063      -0.00587451       0.00806449
Cl      15.66039964       2.24260456      15.11385911       0.01440483      -0.00523654       0.00391540
Cl      14.74113631       3.42299358      17.59588455       0.02076125      -0.01583478       0.01051579
Cl      17.53672435       2.71583378      17.27969086       0.02327263      -0.01795650       0.00510573
C       16.08157380       3.33361347      16.44262618       0.01687768      -0.00924878       0.00689682
Cl      13.34726781      12.43725892       3.74215656       0.00068799       0.00184279       0.00576046
Cl      10.93809539      13.79024583       4.62067016      -0.00020552       0.00246829       0.00277886
Cl      12.74149153      12.62675560       6.57367999       0.00036816       0.00791830       0.00536954
Cl      11.15601999      10.90506297       4.86026492       0.00120515       0.00320554       0.00903397
C       12.04719874      12.43677803       4.95099105       0.00049511       0.00343623       0.00584604
Cl       8.98147102       7.18372035      10.72122824       0.00673616      -0.00008718       0.00747716
Cl       7.30421276       8.33930185      12.78223644      -0.00092717       0.01000586      -0.00478795
Cl       7.68062939       5.46566877      12.66647438      -0.01070436       0.00871015       0.00377730
Cl       6.10603028       6.80460956      10.63628937       0.00628513       0.00943505      -0.00893420
C        7.51914800       6.94462442      11.70575664       0.00019624       0.00707616      -0.00065394
Cl      12.96245183      17.79410365      17.03901874      -0.01212674       0.00862807      -0.02501518
Cl      13.23614843      15.01083948      16.26328602      -0.00211519      -0.00225842       0.01752466
Cl      12.98912632      17.07142919      14.23242314       0.00736304      -0.03431879      -0.01532012
Cl      10.70465932      16.38709701      15.88446262      -0.00211298      -0.01229560      -0.01981255
C       12.47555889      16.56384496      15.84630124      -0.00254303      -0.01001730      -0.01121882
Cl      16.56442609      14.37911535      12.88800054       0.01391533       0.00846165      -0.00778145
Cl      14.11477952      12.99129622      12.18423215       0.00650784       0.01145482       0.01329757
Cl      16.31803217      13.09775431      10.29797591      -0.00352401      -0.00554043       0.00080702
Cl      14.78762995      15.49121763      10.88096737       0.00616165       0.00204515      -0.00476460
C       15.43588389      13.99140087      11.56048571       0.00593444       0.00394088       0.00023525
Cl      16.37410094       6.60598089       0.31549025      -0.01494882       0.00242212      -0.01655236
Cl      14.47844183       6.23348798       2.47965341       0.00233001      -0.00980997      -0.00356802
Cl      13.52513913       6.87731695      -0.18218372      -0.01965851      -0.00565396       0.00582173
Cl      14.93072281       8.88183377       1.37885803      -0.01389366      -0.00508189      -0.00022721
C       14.82546976       7.14964842       0.99848170      -0.01131799      -0.00475509      -0.00389414
Cl      10.52019234       4.81613152      15.68589466      -0.01513958       0.00553185      -0.00333869
Cl      10.67701317       7.52072185      14.65181333       0.01558059       0.01079845       0.01527429
Cl      11.46345208       5.28070513      12.97834266      -0.00796374       0.01362903       0.00068796
Cl      13.10650711       6.04300026      15.23083791      -0.00127512      -0.02035325       0.00701042
C       11.44037196       5.91717379      14.63337844      -0.00197285       0.00238772       0.00499306
Cl      15.92959729      11.38926434      15.13586950       0.00102690      -0.00479031      -0.00104549
Cl      16.79046901       8.69442263      15.77530716       0.01074487      -0.00501686      -0.01515254
Cl      14.99393034       9.16218911      13.53784118      -0.01549616      -0.00336879       0.00652343
Cl      14.05040535       9.49098582      16.26349437       0.01591045      -0.00877519       0.01788858
C       15.43727256       9.68570738      15.17289930       0.00291446      -0.00566836       0.00227740
Cl      18.06196479       0.40127727       5.44418457       0.01248354      -0.00430544       0.01029012
Cl      16.16081730       2.59480445       5.44529167       0.00347054      -0.01564829       0.00816244
Cl      16.13599372       0.65242951       3.30494545       0.00850242      -0.01531780       0.01721746
Cl      18.32180797       2.54220235       3.50714877      -0.00045037      -0.00655015       0.00517534
C       17.16181876       1.55218479       4.43973711       0.00561222      -0.01228695       0.00746652
Cl      15.15029523       5.86004761       6.31005177      -0.00525853      -0.00618383      -0.00026330
Cl      16.07778105       8.34764201       5.12629227      -0.00995371      -0.00687075      -0.00419274
Cl      17.72063481       5.97078287       4.96521225      -0.00627023      -0.00504369      -0.00257307
Cl      17.35268716       7.30511510       7.51380303      -0.00580052      -0.00169290      -0.00438365
C       16.57607842       6.87557832       5.98138885      -0.00678903      -0.00491098      -0.00269365
Cl      -0.73582193      15.52008603      16.03548208       0.00269988       0.02208579       0.00654125
Cl       1.20613316      13.40745407      16.49458700      -0.01893159      -0.00567549      -0.02460870
Cl       2.08023532      16.13869576      16.27725190      -0.00119486      -0.00985771      -0.00933738
Cl       1.09713812      14.75138752      13.93028374       0.00088270       0.00881483      -0.01284680
C        0.91990531      14.93958127      15.67743004      -0.00856481       0.00178912      -0.01302375
Cl       4.89307973      15.96832965      14.19609778       0.01219007      -0.00857478      -0.00113479
Cl       5.55360128      13.26546761      13.38253606       0.01566708      -0.00642353      -0.00910605
Cl       7.26708879      14.68590300      15.24343237       0.01650614      -0.00665367      -0.00978154
Cl       7.15326264      15.48848432      12.44971891       0.00750618      -0.00137126      -0.00831681
C        6.21841620      14.84818356      13.81909696       0.01250219      -0.00558762      -0.00684026
Cl       2.53133396      -0.39871159      13.56073959      -0.00076902       0.00750007      -0.01228841
Cl       0.88744251       1.86590981      12.83008380      -0.01893997       0.00443316      -0.00064096
Cl       0.12220766       0.20529753      15.08049344       0.00502291      -0.00815050       0.02649516
Cl      -0.08305119      -0.83286707      12.37776934      -0.01307991       0.00014433       0.00399540
C        0.87204569       0.21448534      13.44494206      -0.00425079       0.00265527      -0.00610262
Cl       9.30963247       2.89171161       7.07889245       0.00922269      -0.01161742       0.01232670
Cl       7.48436747       4.19814663       5.24248380       0.02166647      -0.00236860       0.00651461
Cl       7.28497344       4.70601877       8.09192735       0.01339935      -0.00407702       0.00612795
Cl       6.50959079       2.12621869       7.02655065       0.00626239       0.00011966       0.00098367
C        7.64113101       3.48246113       6.85839813       0.01259401      -0.00446516       0.00650731
Cl      15.26343841      18.20517898       7.05270994      -0.00623733       0.00526468      -0.00159509
Cl      13.12528844      16.27291690       7.36160123      -0.01994507       0.01853079      -0.01220517
Cl      12.50207721      19.06467972       6.82435387      -0.00050086       0.02449366      -0.00228789
Cl      13.56080557      18.29743725       9.40054984      -0.00886101       0.00695999      -0.00386775
C       13.61408059      17.94987313       7.66052177      -0.00936055       0.01381708      -0.00467104
Cl      10.47348229      -0.49900552      11.63450304      -0.00504720       0.00402796      -0.00503507
Cl      10.80872923       2.22044644      10.68172299       0.00553250       0.00343561      -0.00310624
Cl      12.86187750       1.00921444      12.32022033      -0.00092489      -0.00511073      -0.00026733
Cl      10.31354496       1.71255301      13.50095205       0.00004220       0.00407797      -0.00440714
C       11.10510254       1.10642784      12.04040016      -0.00001973       0.00188762      -0.00353798
Cl       0.97551021      14.26554267      10.50170225      -0.00667340       0.00886895      -0.00700426
Cl       1.70375925      16.78762422       9.26254504       0.00842617       0.01011378       0.00503364
Cl       2.76079136      14.29275671       8.21787125      -0.01060109       0.00798121      -0.00971100
Cl       3.67531975      15.30325110      10.78212051       0.00130275      -0.01113849      -0.00656587
C        2.28623129      15.15934407       9.69550136      -0.00178590       0.00440484      -0.00477876
Cl      18.95364163      13.06316195       5.72611101       0.00299954       0.00134087       0.01615675
Cl      16.21638840      13.97643506       5.45330382       0.00683618       0.01249102       0.01110406
Cl      18.33555144      15.19987234       3.88887199       0.01271397      -0.00355689       0.00693798
Cl      18.19010184      15.67365963       6.74559893       0.01445323       0.00848907       0.00554231
C       17.92691407      14.48010933       5.45551832       0.00918531       0.00421667       0.00980911
Cl       4.52003627       8.51732256       7.60462072      -0.01343322       0.01053898      -0.00817102
Cl       2.63390984       7.31279004       9.44437577      -0.00292015      -0.00313336      -0.00666434
Cl       1.92222840       9.73152461       8.00878051      -0.01277775       0.00511634       0.01203480
Cl       3.90684226       9.83226171      10.11774751      -0.00256079      -0.00576103       0.00278899
C        3.24539497       8.85121670       8.79589428      -0.00807852       0.00153905       0.00008258
Cl       8.45714995       7.41722150      -0.81191325      -0.00645311       0.00349152      -0.00453866
Cl       9.69842265       5.96483821       1.36821695      -0.00992924       0.00470880      -0.00202665
Cl       6.91010111       5.49627488       0.72174986      -0.00952452       0.00597465      -0.00515594
Cl       7.71209284       8.01143595       1.92986487      -0.00935918       0.00624049      -0.00599170
C        8.19729989       6.72416545       0.80227289      -0.00888592       0.00496277      -0.00440013
