198
Lattice="12.572082244171241 0.0 0.0 0.0 12.572082244171241 0.0 0.0 0.0 12.572082244171241" Properties=species:S:1:pos:R:3:forces:R:3 energy=-834344.0625 stress="0.0004527878190856427 -0.0007895101443864405 -0.0008180785807780921 -0.0007895101443864405 0.000677435367833823 -0.00011030133828171529 -0.0008180785807780921 -0.00011030133828171529 0.0010314052924513817" pbc="T T T"
Fr      12.54575867      14.28169315      -1.85034514      -0.01371253       0.00536057       0.01980210
B       11.56616223      11.90975889       2.02605561       0.01373243      -0.01142120       0.00069383
F       10.79891570      11.29877530       3.01728883       0.02799785      -0.02866474       0.00136459
F       12.16081101      10.96777139       1.19252030       0.02736309      -0.00219214      -0.00145689
F       10.76678533      12.78742743       1.28364937      -0.00058991      -0.02241230       0.00233874
F       12.60083891      12.64912624       2.66135268       0.00391436       0.00406146      -0.00274122
O        2.50907221       2.27908420       9.17425241       0.00104132       0.00268638       0.02523533
H        2.83358796       1.47216536       8.71584240       0.00219170       0.00272029       0.02470016
H        2.25616242       2.90036805       8.45875984       0.01061307       0.00514843       0.02246396
O        8.43653826      11.81172895       5.83368545       0.00145929      -0.00087630       0.01225881
H        8.40780236      12.71060405       5.41873474      -0.00590711      -0.00236212       0.00958424
H        7.50920395      11.48080426       5.92973660       0.00373511      -0.00715502       0.01734530
O        1.40717102      10.36667030       7.11303834       0.01290537       0.01412098       0.00872946
H        1.73792549       9.45598991       7.22083443       0.00197447       0.00875750      -0.00307598
H        1.33717382      10.48654114       6.14952939       0.00946529       0.02284552       0.01009090
O        3.66210359      12.54636109       8.21257062       0.00522992       0.02495971      -0.00911829
H        3.98128224      12.78250607       7.32829085       0.01570913       0.05800141       0.00192338
H        4.49067159      12.46578132       8.73339673      -0.00198610       0.00701279      -0.00333089
O       12.05129848       6.54564908       4.85564835       0.00917021      -0.00547935      -0.00442794
H       12.82999230       5.97448858       5.01364800       0.01325269      -0.00276704      -0.00964638
H       11.76378939       6.84561796       5.74261731       0.01225692      -0.00759967      -0.00315508
O        2.56267252       0.49883411       1.66226535       0.00358752      -0.00221398      -0.00608043
H        2.95713154      -0.05673516       0.97436158       0.00407524       0.00818625      -0.01477052
H        1.74090862       0.07647014       1.94374551       0.00467470      -0.00779107      -0.01225924
O        4.32688633       7.95365478       1.69052569       0.00525999      -0.03228167       0.01878587
H        5.23296920       7.85478401       1.37348336       0.00293690      -0.03840530       0.01438274
H        4.37155182       8.76029315       2.21844155       0.00950447      -0.02201146       0.00248547
O        5.47287475      11.91739009       1.66212360       0.00381094      -0.00827657      -0.01328002
H        5.78736641      11.07429215       2.09735381      -0.00587735      -0.01193929      -0.01209147
H        4.93335583      11.66323104       0.89673840       0.00161751      -0.00062325      -0.01415859
O        6.56991610       1.96055838       3.20562606      -0.00543272       0.00784242      -0.02007832
H        6.94393398       1.39657022       2.51023602      -0.00586141       0.00275879      -0.01580382
H        5.59769969       2.04840269       3.07252963      -0.00670654       0.00015258      -0.01391048
O        6.27628018       9.80343588       2.92201522      -0.01578882      -0.00733398      -0.00181240
H        5.64888093       9.74597487       3.66683072      -0.01224870       0.00027916       0.00215986
H        7.18802939       9.82956030       3.30335627      -0.01430631      -0.00041666      -0.00467997
O        5.11754026       1.63532749       6.05163836      -0.00634146      -0.02673511       0.00508875
H        6.05929436       1.45749139       6.14350162      -0.00735059      -0.02238777       0.02526540
H        4.83662392       1.07923744       5.28665878       0.00957486      -0.02371896      -0.00443640
O        7.62210862       3.78624372      10.54805940      -0.01974031      -0.01273444      -0.01890314
H        7.32570088       4.06939418      11.44311528       0.00984395      -0.01801747      -0.00845829
H        8.27932351       3.10101926      10.69917833      -0.06580365      -0.06592968      -0.01263255
O        7.43052701       7.90973204      12.10973881       0.00454804      -0.02220056       0.01644370
H        7.53775089       7.53727242      13.01363841       0.00775232      -0.01322505       0.02018275
H        6.68462656       7.43332923      11.69932550       0.00404853      -0.02559002       0.02112006
O        2.70388757      10.34032490       9.79408759       0.01522903       0.00915897      -0.01116249
H        2.77359188      10.91288852       9.00970532       0.00662068       0.00282434      -0.01645207
H        1.87237202       9.82560868       9.67086965       0.01547436       0.00650091      -0.00344056
O       11.94021685       3.10506262       4.55029855       0.00365160      -0.00859951      -0.01438192
H       11.45907725       3.16471071       5.38502794       0.00979733      -0.00411415      -0.01119153
H       11.27358475       2.83428525       3.87406554      -0.00221920      -0.00802699      -0.00937239
O        8.61008778       1.75404660       4.89353125      -0.02299315      -0.00333017      -0.00073324
H        8.91258447       2.44023831       5.51367608      -0.02305603       0.00683591      -0.01206591
H        7.78775644       2.06371485       4.46566099      -0.02092452      -0.00796571      -0.00899588
O        4.24380646       6.64874180       4.21461275      -0.01043612      -0.00241567       0.02801958
H        4.36340617       6.82999629       3.26594637      -0.00681176      -0.00584479       0.02754097
H        4.86820719       5.93929354       4.45364454      -0.01379684      -0.00447950       0.03065713
O       10.20557371       2.66646113       2.55252650      -0.01065159      -0.02304733       0.00584731
H       10.37936205       1.82949613       2.09424654      -0.00814533      -0.02333556       0.00746476
H        9.45592734       2.46012582       3.13248527      -0.00856609      -0.02419618       0.00808775
O        9.92698138      10.41405894      10.39067793      -0.01697122       0.02226103       0.00129837
H       10.51743673      10.84755774       9.74545674      -0.01612934       0.01540281      -0.00281952
H        9.35302954      11.11400830      10.74668813      -0.03810102      -0.00285656       0.00325235
O        0.62549397       4.60168370       2.57907586       0.00522475      -0.00475449      -0.00233962
H        0.04482145       4.25726245       3.28105258       0.00881519      -0.00858876      -0.00100372
H        0.81993018       3.83697717       1.99602501       0.01245013      -0.00586935       0.00083204
O        1.62502580       4.43480966       7.62245030       0.03555292      -0.00717193       0.00555868
H        1.74788710       4.61515250       6.66901935       0.02342226      -0.00315242       0.00340951
H        2.21850817       5.04616478       8.08508988       0.02074073       0.00815409       0.00437325
O        5.98330635      12.16971446       9.63009677      -0.00437972      -0.00140803       0.00379764
H        6.62449930      12.43208154       8.94083116      -0.00685906      -0.00213255       0.00058179
H        5.91827896      11.18912539       9.61105358       0.00062255      -0.00283320       0.00631814
O        1.28069876       2.71318871       0.70494155       0.00657576      -0.00992234      -0.00803804
H        1.92624879       3.30238582       0.25970767       0.00639862      -0.01008451      -0.00951238
H        1.82382337       1.99839573       1.11228938       0.00612999      -0.01103605      -0.00889345
O        6.05223393      10.70458751       6.41883610       0.01557168      -0.02015540       0.02004399
H        6.18108178       9.82706907       6.80968425       0.02663518      -0.01670524       0.02554816
H        5.30978170      10.57205011       5.80600774       0.01162215      -0.03322995       0.02699096
O       10.93793435       5.15509979       8.97856412       0.00087684       0.01427764       0.00563690
H       10.62857596       5.61860109       9.78872349      -0.01125503       0.01471514       0.00048767
H       11.88932335       5.03862689       9.08274967      -0.00140485       0.01255781       0.02451436
O        2.85626899       4.45718717      11.84283833      -0.00182807      -0.00552599      -0.01135096
H        2.85165403       5.17806349      12.50766507       0.00237884      -0.01093128      -0.00523594
H        3.74808431       4.08048712      11.73958204      -0.00437361      -0.01151719      -0.01557692
O        1.95423780       7.63083980       7.13884910      -0.01456816       0.00566420      -0.02723268
H        1.02261095       7.40884845       7.29566606      -0.01707445       0.01407021      -0.02518523
H        2.43654809       7.23521889       7.87732034      -0.01643258       0.00591332      -0.02612679
O        3.86449032      11.80482382      11.91618631      -0.01362581       0.03110213      -0.00942555
H        4.44968400      12.33845347      11.36342091      -0.01006935       0.03282109      -0.00341931
H        3.37032212      11.24432578      11.28613353      -0.00082698       0.02449108      -0.01397005
O        4.10014874       2.97595587       2.93724392      -0.00910801       0.00491329      -0.00077704
H        3.33828473       2.60266684       3.42958994      -0.00431636       0.00241321       0.00456554
H        4.36575952       3.75840035       3.43661046      -0.00311559       0.00189736       0.00091668
O        0.27513658       9.07094870       9.57607928       0.01686009       0.00602120       0.00043437
H       -0.12130445       8.63898026       8.80017801       0.02036470       0.00426652      -0.00028794
H        0.26433465       8.36637893      10.25757604       0.01269672       0.00764664       0.00306201
O        4.21192535       9.44093792       4.63102421       0.00158858       0.00574836       0.02323907
H        3.36011331       9.87791753       4.50292056       0.00329846       0.00767134       0.01878128
H        4.08178995       8.47566885       4.68344659      -0.00211085       0.00622794       0.02495668
O        5.17862483       4.48127828       5.65549542      -0.01041397      -0.02014171       0.00997777
H        4.63224259       4.78340978       6.38722873      -0.00699312      -0.02695985       0.01544685
H        5.14694717       3.50735805       5.71966487      -0.00760154      -0.02030934       0.00353262
O        8.25752919      13.11683682       8.22438804      -0.00645509       0.00845182       0.00582506
H        8.47241788      12.52137368       7.47365858      -0.00027043       0.00440919       0.00682669
H        8.69021913      12.75762961       9.00904672      -0.03296747       0.00652295      -0.00837587
O        1.19009712      10.74914036       4.39418472      -0.03167070       0.00116476       0.01649007
H        1.16531000       9.83167952       4.03609853      -0.01342835       0.00421133       0.00736205
H        0.87228991      11.36999911       3.72611565       0.00506193       0.00814475       0.00580138
O        8.80701758       9.97879623       1.05875790      -0.00438842      -0.00431231       0.00365464
H        8.12316799       9.66505143       0.44999325      -0.00831129      -0.00141765       0.00670144
H        9.62166252       9.59419921       0.66559596      -0.00600015      -0.00199617      -0.00361305
O        9.90467450       6.55554037      11.13287712      -0.01316071       0.02874320      -0.01491163
H        9.04807383       6.90556936      11.43391720      -0.01000152       0.02037570       0.00581121
H       10.53657892       7.18754253      11.52282253      -0.00864908       0.02583729      -0.01767699
O        1.94982819       5.21415057       4.99047352      -0.00546378      -0.00654333       0.00468266
H        2.71016343       5.78497524       4.75601754      -0.00845902      -0.00162886       0.00463507
H        1.78521373       4.70200413       4.18249041       0.00559354      -0.01795300       0.00993893
O        0.68787070       6.76562225      10.97613077       0.00075926       0.01078050       0.00780600
H        1.51015714       6.65491985      10.47086215      -0.00108536       0.00788302       0.00479462
H        0.98420159       6.73863842      11.90332559       0.00400300       0.00518242       0.00666008
O        5.87998589       7.82696585       7.66995815       0.00713032       0.01705362      -0.01828989
H        5.66802243       8.36960084       8.45155176      -0.01617350       0.01409142      -0.02162578
H        6.52993317       7.18812654       8.00322277       0.00899827       0.02474646      -0.00760859
O        9.92412240       2.76704830       7.18433896       0.00101602       0.00456570      -0.01062432
H        9.87171551       3.61050523       7.65225824      -0.00184187       0.00257799      -0.00977725
H        9.31464257       2.15884914       7.63553509      -0.00099136       0.00464122      -0.01261669
O        5.53337188       6.40013543      10.75519456      -0.00084727       0.00962567      -0.00434215
H        5.64146531       5.68433509      11.41315006      -0.00536003       0.00692239      -0.00562819
H        6.28147625       6.29018507      10.12869208      -0.00047239       0.00527859      -0.00434130
O        1.32333064       0.57119885       6.59039776      -0.00260866       0.01864007       0.01041581
H        1.64178710      -0.26249342       6.97028727       0.01174287       0.02689989       0.01358167
H        0.44633285       0.34453099       6.24535402      -0.00453019       0.00564851       0.01939363
O        8.61939560       4.87335396       4.58052596      -0.01938938      -0.01145129      -0.00023961
H        9.32424160       5.23526482       4.01317414      -0.01477662      -0.01856768       0.00035281
H        8.31237776       5.62737215       5.10955017      -0.01445635      -0.00718020      -0.00342020
O        4.85066850       2.88762599      10.77695088      -0.00279951      -0.00078033       0.00589521
H        5.72162638       3.04993978      10.38474020      -0.00682409       0.00841947       0.00071692
H        4.22883910       2.70754092      10.05119335      -0.00927847      -0.00193841       0.01020405
O        1.97128449       1.95883547       4.34843864       0.00513724      -0.01513757       0.00205276
H        1.97812639       1.52493310       5.22328328      -0.00484478      -0.00399861       0.00871442
H        1.06419202       2.30810661       4.30520487       0.00218122      -0.02494963      -0.01582409
O        6.56071451       4.67927569       2.74523124      -0.01662644       0.00989299      -0.00550744
H        6.62225043       3.71540592       2.89983389      -0.01369873       0.00852445      -0.01474809
H        7.29431566       5.00594195       3.30543025      -0.01761027       0.00527232      -0.00160304
O       10.37599947       6.01948019       2.71605035       0.00174940      -0.01398478       0.02221914
H       10.79971003       5.33292371       2.19047578       0.01218613      -0.00089929       0.01327987
H       11.03459199       6.27995531       3.39054604      -0.00128706      -0.01389873       0.02657472
O       10.95058663       8.84951628      -0.29221783      -0.00300404       0.01849595      -0.00316063
H       10.69581225       9.44488947      -1.04401869      -0.00610621       0.02110230       0.00005963
H       11.68731404       9.28584135       0.14851145      -0.00460204       0.01857938      -0.00053515
O        1.99934114       6.43424996       0.93510070       0.01320614      -0.01306663      -0.00193548
H        2.62352078       7.07567177       1.30887362       0.01740345      -0.01851193       0.00072019
H        1.51355809       6.03309784       1.67714835       0.01217106      -0.01437692      -0.00309645
O        7.95435000       7.35018442       2.16520525       0.02054250       0.00509197       0.01348567
H        8.23595826       8.27816345       2.16089509       0.02538321       0.00374777       0.00023606
H        8.78957806       6.85570247       2.26603154       0.01832074       0.00091031       0.01574067
O       11.55684893       7.44868036       7.46776160       0.01912213      -0.00198199      -0.00262672
H       11.22996141       6.66853059       7.96102491       0.01721693       0.00049159       0.00102419
H       10.75831098       8.02796269       7.33520679       0.01927378      -0.00279598      -0.00833382
O        6.20348894       4.49888808       0.16878686       0.00331089       0.01481733      -0.00931154
H        5.67273835       3.69435694       0.20074981      -0.00410017       0.01963849      -0.00976662
H        6.42907333       4.69120935       1.12828980      -0.00256643       0.01513596      -0.00869179
O        8.73947191       9.74722262       3.97223339      -0.01666063       0.01909388      -0.00056791
H        8.75973238      10.48996620       4.60340000      -0.01441222       0.01551453       0.00394000
H        9.32041549      10.03185265       3.25336373      -0.00784756       0.01571347       0.00534065
O        7.63759885       7.42233804       5.48180063       0.00296175      -0.00140031      -0.00880556
H        7.56384136       7.74429249       4.57281481       0.01371485       0.00520701      -0.00760779
H        6.78447099       7.57035743       5.91692444       0.00214368       0.00913324      -0.01393532
O        7.91153421      12.87317764       1.21264069       0.00182693      -0.00582625      -0.00237875
H        7.01691028      12.45303273       1.25944377       0.00438313      -0.00990633      -0.00373736
H        8.52689684      12.16157260       1.44538946       0.00614563      -0.00434385      -0.00650045
O        4.15053742      12.44312396       4.20556763      -0.00329995       0.01270360      -0.02027431
H        3.24891058      12.74297473       4.02560596       0.01296312       0.05606555      -0.03383947
H        4.54507812      12.39581180       3.31570951       0.00756533      -0.00374383      -0.01422322
O        3.05604986       5.95040211       9.51701646      -0.00767104       0.02113841       0.00845447
H        3.95833616       6.24742707       9.75379540      -0.00797500       0.02245411       0.00715810
H        2.88853872       5.28660723      10.21986449      -0.00215308       0.01387164       0.00393836
O       11.74745598      11.69439521       8.73523903      -0.00729677      -0.00251800       0.00896361
H       12.38516104      10.97239749       8.82679285      -0.01177105      -0.00513771       0.02466425
H       11.60166584      11.74174679       7.77263129       0.00484201      -0.00904150       0.00640927
O       11.39951181      11.73647053       5.94733775       0.01725218       0.00339341       0.00603110
H       10.55186455      11.89073203       5.51482941       0.02256766       0.00529045      -0.00341770
H       11.90628806      11.17235502       5.34397992       0.03006938       0.01323517       0.00546165
O        8.35582827      12.68026056      11.09246962       0.00460771       0.04896510      -0.02288294
H        7.43952474      12.53306377      10.79711358       0.02263792       0.02540790       0.01828814
H        8.28198635      12.80455352      12.06675308      -0.02074549       0.01356226      -0.00543162
O        7.73677247       6.14090672       9.09695167      -0.00327998      -0.00281610       0.00560607
H        8.48828229       6.69262333       9.34931643       0.00005817      -0.01302259       0.01987659
H        7.91930521       5.26244330       9.48418529      -0.00551267      -0.01160116      -0.01537930
O        9.34211841       8.89695324       7.10680038       0.01864493      -0.01035056      -0.01197349
H        8.77396633       8.46393879       6.43470930       0.01247168      -0.01146657      -0.00620227
H        9.46319351       9.80413275       6.80910382       0.01408213      -0.01037522      -0.01417311
O        1.50273105       8.15778085       4.04015621       0.00340569       0.00654131      -0.00740887
H        1.95370875       7.93241394       4.86640800      -0.00680639       0.00914915      -0.00049658
H        0.64880472       7.68997975       4.16036835       0.00043479       0.00988583      -0.01791003
O        5.30796481       9.53142536       9.87607445       0.00124809      -0.01257081      -0.02888197
H        5.56641646       9.21090378      10.74794305       0.00353745      -0.07955090      -0.05393788
H        4.33239081       9.65923099       9.90550222       0.00243162      -0.00284828      -0.01591112
