198
Lattice="13.204215960408623 0.0 0.0 0.0 13.204215960408623 0.0 0.0 0.0 13.204215960408623" Properties=species:S:1:pos:R:3:forces:R:3 energy=-853774.875 stress="-0.0010348232463002205 0.0008662250475026667 -6.404556188499555e-05 0.0008662250475026667 -0.0036023613065481186 0.0011278740712441504 -6.404556188499555e-05 0.0011278740712441504 -0.001615571673028171" pbc="T T T"
Fr      13.55268864      12.94585749      -1.12699738       0.00324411      -0.02305801       0.00560888
Br      10.30212480      12.26641857       0.72135573       0.00670087       0.00273580       0.00215669
O        9.75212043      12.40105056       2.23088803      -0.00122058       0.01747109      -0.00243634
O       11.86344214      11.76442555       0.72744280      -0.00312200      -0.02580658       0.01028119
O        9.39263315      11.25814346      -0.15444125      -0.00957918       0.01750270       0.00281832
O       10.35706330      13.75199050       0.01436204       0.04061535      -0.00113940      -0.00325289
O        3.70128061       9.22072255       4.92993904      -0.00462770      -0.00793178      -0.01631814
C        2.74592154      10.12622466       5.50690063       0.00042388      -0.00899202      -0.00605659
C        3.42750001      11.39721378       5.98454232       0.00529373      -0.01212776      -0.00594167
C        1.61662396      10.39779040       4.52438150      -0.00564402      -0.00313552       0.00282949
H        2.36342275       9.58801277       6.37471078       0.00556011      -0.01170492      -0.00558358
H        2.69968653      12.08146382       6.42688289       0.01017605      -0.01605304       0.00739889
H        4.18044680      11.14957979       6.73031858       0.01283415      -0.01711185      -0.01565249
H        3.89590568      11.92581841       5.15147219      -0.00488584      -0.00667457      -0.00781801
H        0.85166566      11.03421988       4.97472636      -0.00218740      -0.00524850       0.01121153
H        1.14722923       9.46596766       4.20593341      -0.00844234      -0.00087169       0.00034833
H        1.98988322      10.91387444       3.63472617      -0.01107640       0.00124405       0.00339535
H        4.11131893       9.68138496       4.19060059      -0.00786436      -0.00610191      -0.01582821
O       11.16724291       9.54479267       2.23730451      -0.01933574      -0.00895661       0.02987570
C       11.11920369       8.25956640       1.61337964      -0.01129434      -0.00113183       0.01020063
C       12.27255259       7.39751791       2.09702482      -0.00500077       0.00004008      -0.00343212
C        9.77023803       7.60052746       1.83748909      -0.00740778      -0.01133299       0.00894445
H       11.23908956       8.46085280       0.54659668      -0.01728432       0.01073469       0.01423866
H       12.23680116       6.40578204       1.64401040      -0.00509866       0.00325012      -0.00908625
H       13.22931181       7.86525198       1.86106297      -0.00893198       0.00581349      -0.00634234
H       12.21453864       7.27590692       3.18239163       0.00104802      -0.00750433      -0.00460076
H        9.70551855       6.64801122       1.31392804      -0.00471637      -0.00402495      -0.00525943
H        8.97086239       8.25688902       1.49033609      -0.01205057      -0.01000291       0.02368525
H        9.62261291       7.40163344       2.90650124       0.00245056      -0.02804201       0.00637461
H       10.89981583       9.43164669       3.15392591       0.01922507      -0.02528326       0.02423368
O       10.70397434       3.61320650       2.34768688      -0.00503841       0.00606191       0.00105590
C       11.28121444       3.25901589       3.60871985      -0.00470287      -0.00349215      -0.00249130
C       11.79412485       1.82928986       3.59694718      -0.00591518      -0.00405228      -0.01372925
C       12.35653012       4.25479388       4.00073730      -0.00497335      -0.00668025       0.00614679
H       10.45598435       3.33698019       4.32239752      -0.00379282      -0.00896858      -0.00220966
H       12.17109857       1.55170387       4.58383948      -0.00211363      -0.00855284      -0.01670817
H       11.01172626       1.12821241       3.30819550      -0.00688815      -0.00243823      -0.01468320
H       12.61898202       1.73471636       2.88098262      -0.00943305      -0.00451834      -0.01742917
H       12.77211868       4.00922539       4.97866699      -0.00990875      -0.01371697       0.00604869
H       11.94543516       5.26142006       4.03806375      -0.00298536      -0.00616463       0.01279557
H       13.16791892       4.24589969       3.26756052      -0.00223036      -0.00317122       0.00942454
H       11.32417311       3.35019297       1.66008853      -0.01164141      -0.01047643       0.00061919
O        6.64924899       1.64926371       1.33475173      -0.01075298      -0.00754115      -0.00783896
C        7.62121143       2.22340100       2.22286222      -0.01359978      -0.00851178      -0.00522512
C        7.37537387       3.71449023       2.39252961      -0.01712836      -0.00951993      -0.00517851
C        7.64032846       1.49712317       3.55496434      -0.01496977      -0.00871974      -0.00535989
H        8.59264064       2.08579588       1.74138127      -0.01160520      -0.00580966      -0.00175756
H        8.15570158       4.15724163       3.01487519      -0.01320371      -0.00599784      -0.01309181
H        7.39298371       4.22299025       1.42902180      -0.02783165      -0.01159455      -0.00620370
H        6.39916635       3.89947246       2.84358784      -0.01375730      -0.01241014       0.00290748
H        8.38449356       1.94295278       4.21944383      -0.01318685      -0.01010539      -0.00662567
H        7.89286652       0.44599001       3.42082779      -0.01670821      -0.00903702      -0.00534036
H        6.66462180       1.56980315       4.04434398      -0.01430504      -0.00725631      -0.00464548
H        5.98500699       1.16311111       1.84203495      -0.00067092      -0.02614667      -0.01391322
O        2.57046851       0.41071648       3.77062529       0.00937217      -0.00845325      -0.01810318
C        3.05710486       1.73964805       3.49326995       0.00075810      -0.00328872      -0.01059239
C        2.74438804       2.14273625       2.06634660      -0.01010723       0.00646275      -0.00510395
C        2.51670492       2.72822773       4.50729452       0.00230670      -0.01524472       0.00143069
H        4.14015983       1.64816951       3.60916956       0.00153768       0.00135260      -0.01873801
H        3.25230137       3.07683179       1.82936901      -0.01361942       0.00912544      -0.00092209
H        3.08846249       1.37327083       1.37738539      -0.01284791       0.01273434      -0.01374296
H        1.66719028       2.29308471       1.94300176      -0.01089473       0.00541759       0.00289968
H        2.90834725       3.72972353       4.32049191      -0.00112985      -0.01251759       0.01024716
H        2.78203924       2.44879689       5.52634598       0.00830940      -0.02531544      -0.00308762
H        1.42920342       2.78027525       4.43325286       0.00186844      -0.01759636       0.00762381
H        1.60788267       0.43469923       3.73175757       0.01025647      -0.01575489      -0.01866654
O        4.62841059       4.61072890       6.59143275       0.00131509      -0.00274438      -0.00039309
C        5.76598386       3.90510304       6.07229470      -0.00249407      -0.00974357       0.00053722
C        7.04189788       4.70711173       6.25142876       0.00044698      -0.01251724      -0.01043327
C        5.85621786       2.52419835       6.70325829      -0.00447006      -0.00483537       0.01110286
H        5.56070683       3.79779289       5.00346908      -0.00567253      -0.01837154       0.00221497
H        7.89185467       4.18754772       5.80582005      -0.00377585      -0.01741293      -0.01221841
H        6.95936705       5.69450140       5.79774116       0.00108422      -0.01506042      -0.01603557
H        7.25863003       4.83726551       7.31642142       0.00635732      -0.00695651      -0.01246928
H        6.74118902       1.99066811       6.35323672      -0.00915839      -0.01134132       0.00948646
H        4.97514612       1.92848872       6.46044035      -0.00808105      -0.00312452       0.02081144
H        5.92558822       2.61585978       7.78921260       0.00197975       0.00327061       0.00965391
H        4.90819592       5.07063726       7.38961014       0.01120149       0.02664604      -0.02297010
O       11.65025390       0.15038099       9.58979752       0.01787907       0.00673512       0.01446578
C       12.54499389       1.04404316       8.91747955       0.01310892       0.00327033       0.00300664
C       12.17769040       1.18761796       7.44941856       0.00264049      -0.00822300       0.00539273
C       12.59973670       2.39061449       9.62173627       0.01582958       0.00714713      -0.00874832
H       13.52912409       0.56338058       8.96673794       0.01382256       0.00508958       0.00221010
H       12.89621363       1.83857107       6.94705002      -0.00237711      -0.01175195      -0.00586163
H       12.17010867       0.21473098       6.95731214      -0.00004126      -0.01188114       0.01352143
H       11.19540885       1.64868663       7.34222996       0.00144660      -0.01051942       0.00894745
H       13.46068238       2.96919929       9.29269069       0.00200234       0.01368688      -0.02831531
H       12.67297653       2.26507388      10.70441396       0.04662263       0.01307461      -0.01035058
H       11.70143170       2.96368632       9.40439303       0.00545456      -0.00300352       0.01158666
H       10.85627775       0.66758949       9.83288697       0.01544165       0.00470090       0.01056979
O        9.58868364       1.57923830      10.74426129       0.00381261      -0.00924081       0.00187868
C        8.98102145       2.88017875      10.78503891       0.01290184      -0.00517374      -0.00035468
C        8.05482977       2.97226526       9.59072523       0.01373759      -0.00025569      -0.00030416
C        8.26320451       3.08989217      12.10106836       0.01443818       0.00127324      -0.00103772
H        9.77238504       3.63891357      10.68325439       0.01767623      -0.01046553      -0.00140034
H        7.59882514       3.96206302       9.53457572       0.02558457       0.00473572      -0.00448430
H        8.59035693       2.77667116       8.65863649       0.01122029      -0.01045740       0.00055368
H        7.26219597       2.23005785       9.68463639       0.00454973       0.01025403       0.00281245
H        7.70180741       4.02454438      12.09039971       0.02472604       0.00718375      -0.00150186
H        8.96703088       3.13870992      12.93252629       0.01459140      -0.00614855      -0.00073774
H        7.56454323       2.27674060      12.29991534       0.00634414       0.00809702      -0.00212187
H        9.71700809       1.25013405      11.65009829       0.01281861      -0.00283688       0.00303327
O       11.15627582       4.30082098       7.48761450      -0.00321406       0.00174636      -0.00840634
C       11.77952278       5.58794389       7.35853590       0.00506746      -0.00200135      -0.00351098
C       10.78567056       6.57280714       6.79254592       0.01563662       0.00607485      -0.00867587
C       12.37436343       6.05081140       8.67786216      -0.00176197      -0.00634834       0.00100482
H       12.59087269       5.42851121       6.64584740       0.00860766      -0.00688674       0.00213069
H       11.23902767       7.54320708       6.59385961       0.02521642       0.00228085      -0.00566749
H       10.35682336       6.19295001       5.86570991       0.01731963       0.01100409      -0.01119366
H        9.95907429       6.74028033       7.48872493       0.01379745       0.01285887      -0.01297408
H       12.83999100       7.03218367       8.56724875       0.00515076      -0.00946422       0.00508902
H       13.12015141       5.34937321       9.04823974      -0.00941637      -0.01105830       0.00668849
H       11.57961852       6.14005348       9.42432503      -0.00687971      -0.00174351      -0.00524352
H       10.31602528       4.44161553       7.93850239      -0.00642601       0.00601684      -0.01659590
O        4.18078187       5.20573893       1.95931601      -0.00593544       0.01236856       0.00821960
C        3.41858003       6.01970669       1.06045341      -0.00274357       0.01182196       0.00522682
C        2.01079466       5.47499346       0.87801149      -0.00214750       0.01181945       0.00194780
C        3.41063431       7.45898772       1.52847770      -0.00397129       0.01219290       0.00381166
H        3.95254671       5.95039917       0.10938853      -0.00023976       0.01085257       0.00672400
H        1.44999052       6.08487662       0.16723185      -0.00058811       0.01184420       0.00102736
H        2.03223369       4.45039244       0.51031307      -0.00085786       0.01221737       0.00140120
H        1.47351626       5.48873738       1.82902166      -0.00408661       0.01103738       0.00064069
H        2.86404783       8.08882785       0.82549998      -0.00287640       0.01124643       0.00227785
H        4.42987323       7.83636995       1.61868195      -0.00442061       0.01274140       0.00536238
H        2.92477017       7.54403783       2.50544286      -0.00572785       0.01306380       0.00267816
H        3.95881881       5.48084598       2.85555385      -0.00534800       0.01585163       0.00705150
O        6.56302891      10.53333529       9.43789954      -0.00329570       0.00972214      -0.02298218
C        6.37040996      11.31620849      10.63499656      -0.00215992      -0.00361612      -0.01307454
C        7.28881004      12.51637999      10.62689105      -0.00088894      -0.00487566       0.00095219
C        4.90610525      11.69065723      10.75362240      -0.00186008      -0.00295229      -0.01037045
H        6.64959869      10.65131584      11.45901347      -0.00309217      -0.01418528      -0.02182552
H        7.16832665      13.11545700      11.53127723      -0.00244819      -0.01475777       0.00708389
H        8.33274384      12.21320656      10.56441555      -0.00048462      -0.00282077       0.00034244
H        7.06147725      13.15761654       9.76884020       0.00068876       0.00452977       0.00789051
H        4.73927268      12.27263973      11.65798106      -0.00385588      -0.01006421      -0.00640711
H        4.27412700      10.80176912      10.78473555      -0.00343134      -0.00176485      -0.01985709
H        4.60262045      12.30097544       9.89929358       0.00039886       0.00414041      -0.00573358
H        6.74429877      11.15296534       8.72273919       0.01727999       0.01505384      -0.01186693
O        4.61951073      12.85610754       1.91533924       0.01924324       0.01414309      -0.00293636
C        5.14831642      11.70412528       1.25266925       0.00678508       0.00942862      -0.00392385
C        6.12751250      10.96951639       2.14106273       0.00762552       0.00525579      -0.00826663
C        4.03894184      10.79702897       0.75741385      -0.00386977       0.01804888       0.00587283
H        5.69962625      12.11719438       0.40439517       0.00430927       0.00327972      -0.00879690
H        6.63960322      10.17526070       1.59391166      -0.00879841      -0.00569436      -0.00673692
H        6.87928583      11.65800577       2.52139294       0.02064675      -0.00111873      -0.02331512
H        5.61025682      10.51770717       2.99193520       0.01161507       0.02059932       0.00159992
H        4.45143964       9.96862710       0.17914810      -0.01589163       0.01388834       0.00397296
H        3.33646217      11.33823822       0.12532382      -0.00365856       0.02369560       0.01039662
H        3.48952945      10.36796160       1.59976379      -0.00209200       0.02436009       0.01015280
H        3.92639596      12.61303106       2.54824786       0.01299006       0.02230814      -0.00660992
O        2.71526631       3.01087376      10.01661541      -0.00191434      -0.01385932       0.00350416
C        3.62185285       3.14245976      11.12214132      -0.00432280      -0.00607534       0.00536100
C        4.46539354       1.89696095      11.28461210      -0.00388691      -0.00458491       0.01361282
C        4.46753187       4.38792033      10.97951928      -0.00512296      -0.00601363      -0.00241766
H        2.97162905       3.25444581      11.99335343      -0.00537029      -0.00310737       0.00320616
H        5.10853829       1.96405746      12.16490755      -0.00443117       0.00159177       0.01337162
H        3.82959981       1.02024877      11.38149814      -0.00435406      -0.00349724       0.01975949
H        5.10187428       1.75543036      10.40667821      -0.00452357      -0.01198512       0.01487288
H        5.13283324       4.50677886      11.83744983      -0.00534869       0.00112359      -0.00335498
H        3.83707663       5.27020674      10.89256603      -0.00578190      -0.00708172      -0.00835739
H        5.09351605       4.31738586      10.08341727      -0.00498471      -0.01162877      -0.00174262
H        3.23429608       3.06301528       9.20552170      -0.00449923      -0.00564572       0.00627977
O        4.01759263       9.22466090       8.32511544       0.01784967       0.02727669       0.02288690
C        4.65930976       7.95299219       8.44035579      -0.00859720       0.01424044       0.01252195
C        5.95758121       7.92963394       7.65099666      -0.01891202      -0.01005377      -0.00306994
C        4.86967307       7.63582283       9.91272405       0.00278732       0.00407419       0.00884497
H        3.95373412       7.23909735       8.00042763      -0.02824572       0.03051764       0.02020910
H        6.47034258       6.97221711       7.74901306      -0.03667666      -0.02033021      -0.01408433
H        5.77084832       8.11541963       6.59431879      -0.02695574      -0.00160015      -0.00004983
H        6.63373902       8.69299539       8.03474593       0.00109646      -0.02604070      -0.00841719
H        5.38770202       6.68827411      10.05418049      -0.01198573      -0.00524238      -0.00204710
H        3.91145055       7.59611116      10.43314753       0.00865203       0.01728280       0.02020650
H        5.48066499       8.41845795      10.36724198       0.02028672      -0.00891055       0.00622404
H        4.65183061       9.85313695       8.69688870       0.04039529       0.01401240       0.00421625
O       10.31532120       6.82768934      11.96899666       0.00613403       0.00576687      -0.00479623
C        9.29478457       7.58760951      11.30375525       0.00546813       0.00678682      -0.00262511
C        9.88403682       8.71317092      10.47264261       0.00497189       0.01041174       0.00209484
C        8.40721695       6.67635793      10.47460058       0.00764471       0.00861496      -0.00697744
H        8.70620160       8.01617198      12.11951045       0.00439554       0.00287472      -0.00175515
H        9.08551843       9.30506671      10.01976317       0.00499819       0.01222122       0.00485235
H       10.49376452       9.37252509      11.08963369       0.00497320       0.00787815       0.00466244
H       10.50166162       8.30806412       9.66556667       0.00483841       0.01420513       0.00025088
H        7.64818431       7.25309346       9.94771901       0.00726235       0.00882868      -0.00613032
H        7.91646032       5.93542648      11.10535374       0.00778722       0.00590086      -0.01026998
H        9.00538142       6.14736756       9.72561926       0.00919499       0.01203307      -0.00788473
H       10.91445253       6.49459940      11.29330341       0.00619028       0.00853134      -0.00482842
O        8.67350180       8.27618399       5.69460639      -0.00167020       0.01223564       0.00446123
C        8.68000924       9.69644904       5.87166973      -0.00259696       0.01171136       0.01213224
C       10.09418539      10.25360512       5.86356590      -0.00259191       0.01151653       0.01743980
C        7.79812638      10.34201306       4.82686081      -0.00023982       0.01678443       0.01325268
H        8.25105371       9.84361139       6.86641192      -0.00429116       0.00695296       0.01203787
H       10.08417793      11.33653944       5.99711872      -0.00277612       0.00972024       0.03002584
H       10.69668410       9.80937109       6.65489437      -0.00297553       0.00263285       0.01259670
H       10.58313367      10.05426270       4.90636248      -0.00377362       0.02294565       0.01486862
H        7.73363795      11.42346373       4.95923445       0.00125688       0.01633680       0.01745795
H        6.79483083       9.91748989       4.87430613      -0.00100264       0.01852750       0.00991043
H        8.20973881      10.16115134       3.82896058       0.00151900       0.02046306       0.01365656
H        8.85917051       8.10258909       4.76498154      -0.01901316       0.01775853       0.00160517
