189
Lattice="13.603192110644475 0.0 0.0 0.0 13.603192110644475 0.0 0.0 0.0 13.603192110644475" Properties=species:S:1:pos:R:3:forces:R:3 energy=-804438.125 stress="-0.0032944809645414352 -0.00020028992730658501 0.00024305660917889327 -0.00020028992730658501 -0.0033059290144592524 8.625076588941738e-05 0.00024305660917889327 8.625076588941738e-05 -0.0034254638012498617" pbc="T T T"
Fr      13.84874204      14.59454306      -0.30974248      -0.00377617       0.00422958       0.00157657
S       11.03447734      13.30608728       0.94869984      -0.01099682       0.00487819      -0.02750719
F       13.31967117      11.96233762       1.16717633      -0.00468969       0.01075564      -0.01063477
F       11.69078019      10.79172212       0.36265244      -0.00517160      -0.00112686       0.00817090
F       11.73874573      11.26817794       2.48224718      -0.00242919       0.02915470       0.00130996
O        9.69437822      12.98131829       1.33858571      -0.00702173       0.00709548      -0.03912120
O       11.25628874      13.53077010      -0.48655194       0.00901482      -0.00534636      -0.03149727
O       11.74422213      14.27624279       1.78197306      -0.01823188       0.01423362      -0.03231335
C       11.98241406      11.73368964       1.26060323      -0.00366746       0.01091474      -0.00576772
C        4.09248507      11.26545622       9.27530232      -0.01035817       0.01763102      -0.00327255
C        3.65419363      12.47611088       8.74044159      -0.00589468       0.01925577      -0.00271992
C        5.23534203      10.67656082       8.73813798      -0.00689307       0.01910999       0.00328524
C        3.35540873      10.60324733      10.39487838      -0.01847917       0.01486772      -0.01047093
C        4.32095129      13.06519296       7.67378049       0.00255761       0.02276793       0.00494471
C        5.90373594      11.26181392       7.67411967       0.00252726       0.02346871       0.01199520
C        5.44208279      12.45287520       7.12726937       0.00765578       0.02547487       0.01286466
H        2.77664928      12.95367996       9.16223269      -0.00843146       0.01820361      -0.00749761
H        5.61851175       9.76293389       9.17557476      -0.01140240       0.01692467       0.00231854
H        4.00975706       9.92304691      10.93415352      -0.02383611       0.01084989      -0.00967147
H        2.96982866      11.33219896      11.10853899      -0.02070466       0.01276314      -0.00975598
H        2.50348651      10.01987304      10.03224914      -0.01793876       0.01903729      -0.01773997
H        3.96231227      14.00077592       7.26300033       0.00621325       0.02424172       0.00575241
H        6.78582778      10.77685392       7.27436059       0.00659950       0.02598474       0.01859468
H        5.94500206      12.90066583       6.27911471       0.01615520       0.02953768       0.02033945
C        1.71887327       9.38939649       5.68280522       0.00310984      -0.00069454       0.00026965
C        0.96680750       9.23705683       4.52303598      -0.00004371      -0.00306328       0.00265186
C        2.17460255      10.66488820       6.01637974       0.00431374      -0.00021268      -0.00383800
C        2.06390408       8.21235061       6.53726193       0.00448149       0.00105694       0.00205564
C        0.68825753      10.32405502       3.70902179      -0.00195438      -0.00497818       0.00088483
C        1.88057146      11.75796858       5.21525223       0.00332946      -0.00249067      -0.00590887
C        1.13348929      11.59188751       4.05511698       0.00049528      -0.00416140      -0.00431356
H        0.60956398       8.25130728       4.24528794      -0.00157573      -0.00328657       0.00645785
H        2.77403848      10.79780345       6.90882977       0.00644413       0.00238601      -0.00587811
H        1.95127344       8.44327566       7.59676434      -0.00226906      -0.00007067       0.00144112
H        1.43555072       7.35137496       6.30710230       0.01023549      -0.00182112      -0.00141492
H        3.10589283       7.91638635       6.39676106       0.00650153       0.00650157       0.00742203
H        0.14416715      10.16293294       2.79271053      -0.00652564      -0.00562165       0.00346558
H        2.24555712      12.73877308       5.49780387       0.00467037      -0.00210381      -0.00980891
H        0.90760692      12.44259025       3.42098468       0.00084340      -0.00582838      -0.00655503
C       11.81135549       7.61033888       8.06792291      -0.00732204      -0.00344576      -0.00407243
C       10.51332071       7.10564007       7.98862903      -0.00534661      -0.00756095      -0.00323510
C       12.23906148       8.48928776       7.07337154      -0.00992927      -0.00387710      -0.00542811
C       12.76165947       7.18071319       9.14860521      -0.00717783       0.00174128      -0.00273260
C        9.67701510       7.46570201       6.93665673      -0.00635551      -0.01214983      -0.00352412
C       11.41563029       8.83255170       6.01151012      -0.01125740      -0.00799540      -0.00531899
C       10.12650715       8.31991591       5.93744967      -0.00932826      -0.01202327      -0.00434189
H       10.16080239       6.40744055       8.73951206      -0.00293882      -0.00725292      -0.00212209
H       13.22838995       8.92224853       7.13520198      -0.01080848      -0.00205713      -0.00709161
H       13.34836414       8.02233658       9.52115852      -0.01536665       0.00534025       0.00136064
H       12.24165297       6.72381759       9.98757280      -0.00638731      -0.00426744      -0.00577542
H       13.47252141       6.44452086       8.76138465      -0.00012146       0.00868918      -0.00218385
H        8.67255307       7.06663713       6.89312183      -0.00439228      -0.01629088      -0.00322266
H       11.77595154       9.52737371       5.26299629      -0.01320300      -0.00923412      -0.00721216
H        9.47966865       8.59120519       5.11153689      -0.00978871      -0.01637444      -0.00517024
C        4.44097921       8.22616844       3.83110063       0.00807091      -0.00032735       0.00005894
C        3.69599151       9.05408583       2.99671387       0.01154870       0.00337247       0.00083816
C        5.46378027       8.79684188       4.58729822       0.00655447      -0.00448138       0.00443330
C        4.15520474       6.75578269       3.88288948       0.00614770       0.00021371      -0.00509563
C        3.95350775      10.41488213       2.92115017       0.01425900       0.00291781       0.00572842
C        5.72514432      10.15662399       4.51188633       0.00899193      -0.00479798       0.00991862
C        4.96202415      10.97258310       3.68986326       0.01307531      -0.00128829       0.01014264
H        2.89128227       8.62805103       2.41422722       0.01253484       0.00677979      -0.00260112
H        6.06095490       8.17381583       5.24322415       0.00363966      -0.00749018       0.00380725
H        4.36174416       6.34196699       4.86972436       0.00223989      -0.00280284      -0.00553134
H        3.11058129       6.55376666       3.64071360       0.00721204       0.00211310      -0.00967576
H        4.77186430       6.21302134       3.15990093       0.00821795       0.00169387      -0.00421558
H        3.35186727      11.03483545       2.26908882       0.01700761       0.00590988       0.00641237
H        6.53854636      10.57937952       5.08197835       0.00687523      -0.00806445       0.01489152
H        5.17328646      12.03282931       3.63220626       0.01459047      -0.00156507       0.01470528
C        5.82739762       2.12108101       3.19092545      -0.00735518      -0.00665449      -0.00301343
C        6.04652737       3.44472454       3.57359629      -0.00687833      -0.00639920      -0.00477069
C        6.91777620       1.37401119       2.74289895      -0.00781448      -0.00733420      -0.00224628
C        4.44455590       1.53940369       3.23728807      -0.00711942      -0.00634791      -0.00242193
C        7.31097885       4.01532638       3.49597872      -0.00693025      -0.00712316      -0.00529419
C        8.18497171       1.94124752       2.66410284      -0.00786569      -0.00834986      -0.00240090
C        8.38418330       3.26519479       3.03108152      -0.00741766      -0.00829865      -0.00361023
H        5.21199500       4.03271866       3.93886115      -0.00662243      -0.00570325      -0.00604754
H        6.78081944       0.33718777       2.45236842      -0.00854506      -0.00717340      -0.00176733
H        4.46322999       0.47023924       3.44672204      -0.00732387      -0.00532100       0.00185370
H        3.83814185       2.02730947       4.00132805      -0.00781176      -0.00336823      -0.00518580
H        3.93465872       1.67584552       2.27943181      -0.00581747      -0.01012384      -0.00339147
H        7.46124871       5.04295687       3.80324809      -0.00662464      -0.00677402      -0.00708333
H        9.01414071       1.33789299       2.32560450      -0.00826466      -0.00847281      -0.00277647
H        9.37435795       3.70029166       2.97959534      -0.00731947      -0.00927100      -0.00394583
C       11.39065146       3.66537357       6.61079657       0.00548294      -0.00012459      -0.00554847
C       10.11902202       3.73724737       6.04225291       0.00517550       0.00129396      -0.00398846
C       11.63206946       2.67676349       7.56506284       0.00366040       0.00343101      -0.00184940
C       12.46888623       4.62383207       6.19955806       0.00769114      -0.00531888      -0.01073113
C        9.12719889       2.83072728       6.39499542       0.00279152       0.00676109       0.00204024
C       10.64078287       1.77520473       7.92888674       0.00121615       0.00891680       0.00410526
C        9.38638453       1.84350853       7.33586033       0.00068074       0.01075353       0.00643416
H        9.91143464       4.50504342       5.30530319       0.00659614      -0.00156470      -0.00696979
H       12.61829638       2.59599717       8.00951569       0.00391600       0.00191542      -0.00343679
H       13.45590741       4.16768856       6.28489351       0.00618656      -0.00760983      -0.00896173
H       12.32927999       4.95680955       5.17096410       0.00826001      -0.01043659      -0.01218385
H       12.45683493       5.51905854       6.82243878       0.01053847      -0.00225839      -0.01523668
H        8.15982979       2.87834203       5.91206182       0.00221926       0.00821305       0.00383988
H       10.86213417       0.99179047       8.64208035      -0.00037913       0.01196074       0.00764810
H        8.62313261       1.11784015       7.58364221      -0.00179586       0.01561146       0.01220664
C        7.94917262      12.15208086      10.74005763      -0.00035168       0.01244198       0.00778713
C        6.79929011      12.47331613      11.45977462      -0.00155017       0.00634912       0.00786711
C        8.39291362      10.82936126      10.74895748       0.00098622       0.01316085      -0.00002653
C        8.69500156      13.21955093      10.00498071      -0.00023565       0.01656392       0.01446410
C        6.11534246      11.50464786      12.17650113      -0.00206751       0.00067843      -0.00056797
C        7.70823857       9.85595469      11.46613126       0.00025071       0.00748158      -0.00914594
C        6.56452195      10.19012385      12.17772399      -0.00146586       0.00129096      -0.00928187
H        6.44264428      13.49692286      11.45128297      -0.00210999       0.00596955       0.01507029
H        9.28453933      10.56025779      10.19231638       0.00311638       0.01865557       0.00125659
H        9.19834544      12.82521930       9.12452814      -0.00683436       0.02289152       0.00788188
H        8.02638952      14.02104220       9.69433556       0.00158925       0.02226076       0.02587564
H        9.46277083      13.66520537      10.64369066       0.00493564       0.00660470       0.01510158
H        5.23677806      11.78428715      12.74613867      -0.00296649      -0.00403110      -0.00007496
H        8.06804711       8.83657905      11.48862541       0.00133912       0.00792989      -0.01636145
H        6.05581255       9.43198485      12.75830703      -0.00247943      -0.00315279      -0.01630639
C        2.69869938       6.98193898       0.16472470      -0.00192771      -0.02077705      -0.01196089
C        3.59600179       8.00025064      -0.14487233      -0.00280640      -0.00637177      -0.00447464
C        1.35526411       7.31546711       0.35822358       0.00228941      -0.00774280      -0.00150722
C        3.17434591       5.57015450       0.31855522       0.02286558       0.00067589      -0.00662980
C        3.17259927       9.31934616      -0.22559539      -0.00582798      -0.00167166      -0.00550424
C        0.92330653       8.63187130       0.25135878      -0.00294992      -0.00902740      -0.00138300
C        1.83660426       9.64121627      -0.03543569      -0.00815032      -0.00726411      -0.00402039
H        4.63978991       7.74955523      -0.29811041       0.00012070       0.00365705      -0.01268164
H        0.64164133       6.53307551       0.59289468       0.00794611      -0.01255768      -0.00548714
H        2.50080598       4.88307595      -0.18651915       0.03035109       0.01415635      -0.03327910
H        4.17323346       5.43902108      -0.09680474      -0.00065693       0.00798604       0.01098098
H        3.21110153       5.28190458       1.37259979      -0.01258944      -0.01278222      -0.03164101
H        3.89361266      10.10104155      -0.41760224      -0.00993486       0.00325359      -0.00806263
H       -0.12382159       8.87174669       0.39055263      -0.00307807      -0.01601163       0.00137694
H        1.50930430      10.67059738      -0.10293517      -0.01281656      -0.00861270       0.00116688
C        5.18329230       5.78119241       7.44103011      -0.00012101      -0.00992578       0.01220044
C        4.02198360       5.01049453       7.39178231       0.00405558      -0.01590380       0.02082746
C        5.20552517       6.88727214       8.29191321      -0.00244685      -0.00539745       0.00627968
C        6.39172682       5.41080742       6.63695509      -0.00181490      -0.00903409       0.00987782
C        2.93192383       5.30479185       8.20331101       0.00530273      -0.01675224       0.02236932
C        4.13017854       7.16943270       9.12188465      -0.00136849      -0.00541204       0.00700078
C        2.99366778       6.37036465       9.09159419       0.00231254      -0.01058106       0.01479238
H        3.97976369       4.16469693       6.71393088       0.00644002      -0.02021860       0.02649774
H        6.09455591       7.50843705       8.32835007      -0.00582721      -0.00048081      -0.00047388
H        7.27628019       5.34260768       7.27311989      -0.00403312      -0.02642570       0.01090264
H        6.26262982       4.44738046       6.14954511      -0.00915875      -0.00061232      -0.00432009
H        6.60589262       6.14673215       5.85756886       0.00679171       0.00047126       0.02174863
H        2.03638371       4.69817508       8.14178839       0.00909725      -0.02253790       0.02992771
H        4.17872166       8.00752298       9.80398514      -0.00407033      -0.00050366       0.00098202
H        2.15869012       6.59263157       9.74407154       0.00313667      -0.01079288       0.01550026
C        8.87849057       5.95655296      11.72437148      -0.00157580      -0.01328953       0.00846842
C        7.79080497       6.15717884      10.87392717      -0.00433344      -0.01521298       0.01198800
C        8.83186131       4.87666563      12.60701950       0.00555748      -0.01665285       0.00433037
C       10.03615634       6.91030523      11.75089191      -0.00580966      -0.00875968       0.00836104
C        6.67325214       5.33228718      10.93757469       0.00032693      -0.02098552       0.01048718
C        7.71551206       4.05520045      12.68255063       0.01038884      -0.02275947       0.00263332
C        6.62613721       4.28901098      11.85196250       0.00777794      -0.02529372       0.00563032
H        7.81694144       6.97421458      10.15983936      -0.00995362      -0.01248193       0.01527740
H        9.67501231       4.69670762      13.26274830       0.00751199      -0.01499576       0.00204436
H       10.97567409       6.39072589      11.94515692      -0.00316915      -0.00565131       0.00287274
H       10.12834842       7.46261614      10.81552450      -0.01111784      -0.00519861       0.01018859
H        9.90515607       7.64028849      12.55521347      -0.00604182      -0.01255336       0.01138097
H        5.83742625       5.50972150      10.27651785      -0.00175552      -0.02218968       0.01280127
H        7.68976593       3.24567744      13.40185868       0.01602632      -0.02596374      -0.00117102
H        5.74512976       3.66179608      11.91049258       0.01186897      -0.03045189       0.00459435
C        8.09535229       9.15597946       1.68500116       0.00570552       0.00453612       0.00448438
C        7.42715835       7.93637073       1.60272933       0.00145951       0.00791648      -0.00847581
C        9.48196852       9.14005789       1.81781963       0.00367512      -0.00229520       0.02278315
C        7.39196302      10.47365226       1.63905658       0.01083365       0.00676790      -0.00305669
C        8.13332525       6.73920091       1.64270676      -0.00497690       0.00457230      -0.00538965
C       10.19369490       7.95188138       1.87051374      -0.00280948      -0.00582087       0.02430118
C        9.51600440       6.74070049       1.78495560      -0.00683552      -0.00222212       0.00935640
H        6.34604715       7.92475437       1.51805362       0.00271678       0.01352589      -0.02075139
H        9.98663441      10.08828291       1.88096965       0.00848345      -0.00555508       0.03562074
H        7.82030408      11.11550340       0.86946379       0.01344900       0.00082406      -0.00625093
H        6.32770317      10.35328245       1.45437847       0.01098412       0.00885484      -0.00419252
H        7.50317598      10.99701259       2.59004296       0.01103928       0.01192469      -0.00613627
H        7.60486604       5.80021255       1.55273924      -0.00826257       0.00751188      -0.01442652
H       11.27363670       7.97109716       1.96952531      -0.00418693      -0.01135257       0.03794987
H       10.06194969       5.80609489       1.81365435      -0.01133799      -0.00451586       0.01032657
C       10.14113160      12.29733934       6.02139603       0.00575426       0.00722239      -0.00656338
C       11.27816043      12.95883686       5.55903893       0.00586536       0.00818950      -0.00465068
C       10.22650233      11.59141867       7.21915291       0.00310870       0.01066245      -0.00466868
C        8.86523044      12.34526666       5.23700304       0.00902376       0.00094323      -0.01195037
C       12.46421101      12.91750828       6.27429804       0.00379750       0.01089329      -0.00122437
C       11.41417385      11.54883459       7.94097535       0.00110909       0.01303588      -0.00190049
C       12.53935848      12.20976176       7.46908929       0.00139761       0.01300932      -0.00044855
H       11.22394595      13.52188037       4.63344197       0.00726069       0.00590719      -0.00567327
H        9.35819382      11.05224115       7.58310479       0.00293902       0.01086314      -0.00547266
H        8.01180685      12.13111536       5.87914982       0.00655033       0.00135994      -0.01540521
H        8.71627951      13.32657925       4.78288286       0.00843680      -0.00192976      -0.01720642
H        8.86930572      11.61001671       4.42641485       0.01462771      -0.00299667      -0.00812863
H       13.33242052      13.44190850       5.90080893       0.00517528       0.01090512       0.00263427
H       11.46512591      10.97747121       8.86037213      -0.00048452       0.01569559      -0.00055446
H       13.47224981      12.16416089       8.01738035      -0.00011627       0.01533640       0.00151148
