200
Lattice="13.665218678549708 0.0 0.0 0.0 13.665218678549708 0.0 0.0 0.0 13.665218678549708" Properties=species:S:1:pos:R:3:forces:R:3 energy=-864904.5625 stress="-0.00158300728071481 -0.0005408188735600561 0.0004193155327811837 -0.0005408188735600561 -0.001178233651444316 0.00020523434068309143 0.0004193155327811837 0.00020523434068309143 -0.000835027196444571" pbc="T T T"
Fr      13.85454750      14.45648836      -2.10367615      -0.04484452       0.03510022       0.07640984
P       12.83996652      12.13603488       1.11238409       0.00861739      -0.01232357      -0.00747472
F       13.38845881      13.47039009       1.83294305      -0.02573724      -0.00073397      -0.01133510
F       11.92391802      11.78587475       2.36160729      -0.03448665       0.00005420      -0.03801709
F       11.64190674      13.02795747       0.43388054       0.02976590      -0.02267629      -0.06719558
F       13.81714518      12.53901235      -0.23216471       0.05794664      -0.03059626       0.02665153
F       14.06981473      11.30216210       1.67769476      -0.00466156       0.00497845       0.03909074
F       12.33722965      10.87459909       0.26496625       0.04358007      -0.02097964      -0.01112193
O        7.13738639       1.44263630      13.44098381       0.00647134      -0.00036649       0.04866186
O        6.91357970       3.47044318      12.49208783       0.05211824      -0.02623188      -0.00976753
C        5.13243504       1.86497168      12.27870285       0.03545147      -0.00393665      -0.00121829
C        6.47334397       2.37264321      12.73474191       0.03522098      -0.00780469       0.01100783
H        5.25847374       1.27780462      11.36704082       0.04326941      -0.00021644      -0.00247371
H        4.67877456       1.22721718      13.03608003       0.02490721      -0.00427701      -0.00811981
H        4.49789550       2.71612341      12.04341245       0.04177214      -0.00072305      -0.00783592
H        7.97054689       1.82191491      13.76977727       0.00696817      -0.00669494       0.05547092
O        5.60420844       9.14935891       8.01055197       0.00029650      -0.00396931      -0.01623587
O        4.16794117      10.85509045       8.21812843      -0.00034577      -0.00657079       0.00360896
C        6.51582231      11.29520961       8.34248045       0.00067133      -0.00600457      -0.00082502
C        5.32239178      10.42534586       8.18907408       0.00210226      -0.00532502      -0.00446881
H        7.10625075      10.95393903       9.19337105       0.00294740      -0.01100104      -0.00404447
H        7.14407242      11.18133600       7.45605869      -0.00106558       0.00204264      -0.00310075
H        6.21029060      12.32982441       8.46535212       0.00046629      -0.00736530       0.00866330
H        4.78255760       8.64792949       7.74791345      -0.00126699      -0.00161337      -0.01268649
O       10.33516903       9.10387452      11.66592841       0.00137602      -0.00390697       0.02671480
O        8.53704573       9.92977791      10.60780839       0.02366167       0.02322191       0.02288769
C        9.03739889       7.58220851      10.42021973       0.00242278       0.02864528      -0.01264176
C        9.23911361       8.98784262      10.88554239       0.00315309       0.02684301       0.01195949
H        9.95387964       7.20060562       9.96953590       0.00229284       0.03225227      -0.01393846
H        8.81324949       6.94996523      11.28072190      -0.00630554       0.01420976      -0.02637611
H        8.21327261       7.53934565       9.71538761       0.00736175       0.04565597      -0.01891011
H       10.32774461       9.98345246      12.07268824       0.00491117      -0.01305157       0.04726902
O        8.42892373      11.71482890       0.72035725       0.05434185       0.00182283       0.02177751
O        9.85869277      10.05233125       1.20162652       0.03130293      -0.06050938      -0.04640666
C        7.74149835      10.16536105       2.34438918       0.03476703      -0.01049900      -0.00219220
C        8.79721914      10.59168618       1.37932365       0.00553739      -0.01272279      -0.00299567
H        7.73899968      10.82935443       3.21138021       0.05048881      -0.01842366       0.00473206
H        6.75927265      10.22329060       1.87942536       0.02972496       0.01270765       0.00725503
H        7.95400452       9.15486674       2.67733739       0.01382527      -0.01839595      -0.01315881
H        9.18500540      11.99416241       0.18601921       0.04711989      -0.00629527       0.01378968
O       12.48000210      13.36290535       6.27335548      -0.00630671       0.00079840      -0.00764644
O       10.92888238      11.76489797       6.54448838       0.01221371      -0.00138694      -0.00872505
C       13.05715623      11.15672181       5.59693040      -0.00216001       0.00703162      -0.02013615
C       12.02980439      12.07370445       6.16133665      -0.01604939      -0.00040904      -0.00252184
H       13.70366053      11.66300175       4.88509290      -0.01511580       0.01236020      -0.02625830
H       13.68575739      10.80221080       6.42137649       0.00990423       0.00994842      -0.02869286
H       12.56290852      10.30257055       5.13917966      -0.00291029       0.00455122      -0.01422733
H       11.74981908      13.87855185       6.66643378      -0.00520712      -0.00363345       0.00780921
O        7.35422966       6.60766551      13.36063022      -0.01539814       0.00262192      -0.02718109
O        7.91408041       8.76957537      13.37333294      -0.04346484       0.00720900      -0.01363766
C        5.79651898       8.15416809      12.45631850      -0.03037256      -0.00964941      -0.02545509
C        7.11105975       7.90589768      13.10895751      -0.02791166       0.00370520      -0.02100095
H        5.82946927       7.74630114      11.44491550      -0.01869202       0.00924495      -0.03226343
H        5.00081743       7.62644649      12.97693905      -0.02451563      -0.03022736      -0.03819659
H        5.62716537       9.22505595      12.40882541      -0.04656534      -0.01192299      -0.00927250
H        8.27592207       6.56662014      13.68851193      -0.01714274       0.01041381      -0.02412510
O        8.24580022       5.80229359       7.72053532       0.03582492      -0.01175737      -0.01459408
O       10.29471351       5.01530604       8.16819451       0.03212667      -0.01890258       0.02573663
C        8.39732580       3.94361942       9.17567650       0.00041354      -0.00088233       0.00358492
C        9.09422690       4.94321896       8.31300594       0.00899780      -0.01377704       0.01017986
H        8.43019724       4.28518118      10.21350513      -0.01780848       0.00426866       0.00193772
H        7.35419352       3.81226437       8.90030977       0.00327298       0.00230102      -0.01347193
H        8.93650753       3.00015764       9.11749200      -0.00574455      -0.00482216       0.02039720
H        8.77395469       6.38993230       7.15583795       0.04902750      -0.02526626      -0.01405177
O        3.14133455       3.92001795      10.22176807      -0.04523002      -0.04381907       0.01482177
O        4.92391740       3.29426312       9.02702773      -0.00014403       0.00453335      -0.02221307
C        4.65808099       5.62301406       9.58773058       0.01153314      -0.00222760       0.01100076
C        4.29952389       4.17741910       9.56960935       0.00124624      -0.00820512      -0.00928092
H        4.52564900       6.01131862       8.57690797       0.01226594       0.01518738       0.01719296
H        4.03252376       6.18348378      10.27610544       0.01660831      -0.01190965       0.02090319
H        5.71133609       5.72619910       9.84169730       0.01318419      -0.00908399       0.01060466
H        2.98325531       2.97278233      10.10216778      -0.00468559      -0.01422000      -0.02515054
O        0.81436705       2.50178324       5.37271686      -0.01081806       0.01079121      -0.01599109
O       -0.31524697       4.41180291       5.71754385      -0.00607347       0.01391992      -0.02362284
C        1.20129525       3.62406181       7.40638940      -0.01314697       0.02132563      -0.02120119
C        0.48469099       3.58514815       6.09291542      -0.00744492       0.01701438      -0.02331482
H        1.92233416       2.81501155       7.50606958      -0.03906428       0.00167128       0.00531170
H        1.69564684       4.58586979       7.52884727       0.01172178       0.00959516      -0.02969264
H        0.46153076       3.58745717       8.20285596      -0.03168543       0.06943727      -0.03428578
H        0.31397031       2.52480940       4.54202998      -0.01129436       0.01061694      -0.01544815
O       12.27255277      12.89237217       9.19348457       0.00170100      -0.00155133       0.00192219
O       10.72288306      14.27883518       8.33831055       0.01850251      -0.00079052       0.00320773
C       10.03055499      12.51747854       9.82988525      -0.00112337       0.01539743       0.00520730
C       10.98601534      13.34154487       9.04999276       0.00442290       0.01255971      -0.00372520
H        9.87829647      11.58757788       9.27943679      -0.00434044       0.01534644       0.00790487
H       10.42933223      12.24485508      10.80574293      -0.00208410       0.01109977       0.00299558
H        9.07452023      13.01932676       9.93000645       0.00234094       0.02061236       0.00786467
H       12.80142930      13.30539219       8.49002888      -0.00044066       0.02185768       0.01283318
O        5.69933100       9.45916943       4.78442350      -0.01395425      -0.01205897      -0.00565371
O        7.71819778       9.30683286       5.76947412      -0.01018369       0.01252675      -0.01769400
C        6.71842539       7.34995818       4.80087358       0.00155869      -0.00407624       0.01062679
C        6.79478333       8.80076204       5.17797889      -0.00441134       0.00248247      -0.00306332
H        6.43739353       6.77239379       5.68336608       0.01034728       0.00355309       0.01816007
H        5.96831752       7.17821721       4.03430869      -0.00087707      -0.01652514       0.01603080
H        7.69864152       7.00689145       4.47706513       0.00303535      -0.00120205       0.01284686
H        5.70949673      10.39522818       5.05720921      -0.02108566      -0.00963008      -0.01067686
O        4.18606185       5.36517263       5.98545263      -0.01042789       0.00483817       0.00380413
O        2.39739927       5.23170993       4.65505271      -0.00270635       0.00097159      -0.00523549
C        3.97325100       3.42670164       4.65934038      -0.00288606       0.00089484       0.01124409
C        3.43897807       4.75117386       5.07948931      -0.00566381       0.00304523       0.00233132
H        5.02622660       3.49170628       4.39522840      -0.00492489       0.00300953       0.00378327
H        3.90559773       2.73749590       5.50372119       0.00736199       0.00993396       0.01900825
H        3.40103273       3.03786484       3.82210713      -0.00651605      -0.01051632       0.01942858
H        3.80285031       6.24435984       6.24243596      -0.01118290       0.00609612       0.00167048
O        2.21734115      12.36341406       4.16947001       0.00234407      -0.01199004      -0.00251180
O        4.03824760      11.52310469       5.17516886       0.00065720       0.00547409       0.00094517
C        2.88305445      13.36232028       6.19642306       0.00232795       0.00402838      -0.00981987
C        3.12403582      12.31729625       5.14631185       0.01101196      -0.00851369      -0.00308627
H        2.95524086      14.35439473       5.74964824      -0.00256585       0.00084315      -0.01635291
H        1.86241466      13.27429937       6.57213792       0.00393237       0.00162712      -0.00722005
H        3.60268227      13.24369593       6.99981210       0.00420821       0.01226158      -0.01048154
H        2.30637842      11.54935129       3.61673218       0.00153622      -0.01899016       0.00731325
O       10.13291849       6.69869077       5.06798282      -0.00206127       0.00265169       0.00917679
O       11.08876626       8.62546767       4.43540836       0.01590374      -0.00409257       0.00980437
C       10.56404775       8.30981283       6.75755359      -0.02339385       0.01245558       0.00445843
C       10.62450691       7.94407572       5.31348675      -0.00251815       0.00040674       0.01079315
H        9.53152150       8.29794771       7.10738663      -0.02928066       0.02003725      -0.01376757
H       11.14440015       7.59291408       7.33782980      -0.03488293       0.01493666       0.01903819
H       10.94317543       9.31887671       6.88620557      -0.02109285       0.01165819       0.00474885
H       10.39250159       6.46932010       4.15278042       0.01490249      -0.00758682       0.01570955
O       12.13484161       6.74184915       9.28708412      -0.01600924       0.01438069       0.01110035
O       14.21799353       6.04582209       9.73646686      -0.03648376      -0.02339697       0.02886477
C       13.58187868       8.33010712      10.21463417       0.00791548      -0.01347339       0.01867512
C       13.38237642       6.92245806       9.75416926      -0.01281631      -0.01457989       0.02072003
H       13.56396089       8.99011965       9.34364596       0.01188681      -0.01475644       0.01825148
H       12.75982597       8.61790479      10.86797362       0.01590234      -0.00183250       0.02317157
H       14.53271060       8.43023352      10.72659320       0.01236500      -0.02642395       0.01236837
H       12.01269386       5.84165315       8.94082236      -0.03434475       0.01441181       0.01648777
O        1.20859559       4.17405139       2.46438811      -0.01534349       0.00476226      -0.00030679
O        1.80767775       6.13150309       1.54892449       0.01040024      -0.00668550      -0.00103657
C        0.79037996       4.50197352       0.13902215       0.01516205       0.00385864      -0.00635040
C        1.32081859       5.03300869       1.43622563       0.00645524       0.00533247      -0.00248480
H        0.49146509       3.45872887       0.20916991       0.02676936       0.00187552      -0.00594388
H       -0.06776847       5.11012030      -0.15307368       0.00843415      -0.01350363      -0.00722553
H        1.54635691       4.67507872      -0.62981831       0.00692840       0.00680660      -0.00901130
H        1.62454874       4.60388770       3.25829616      -0.01329699       0.00136507      -0.00035928
O        8.34651461       3.51518304       5.91070257       0.04015356      -0.02722985       0.00021166
O        7.05238286       2.68140884       4.28720923      -0.00126345       0.01258120       0.00615239
C        6.91875146       1.73797107       6.50424171       0.01054266      -0.00212789       0.00462621
C        7.42219544       2.65434317       5.43825955       0.01787484      -0.00443511       0.01323777
H        7.74626066       1.36229255       7.10513319       0.00504129      -0.00508846       0.01053512
H        6.26217596       2.30396382       7.17090849       0.00758553      -0.00005046      -0.00027002
H        6.37751401       0.90971036       6.05717925       0.00850524      -0.00082555       0.00480831
H        8.57693312       4.11965989       5.19018732       0.04232442      -0.02401236       0.00441962
O        2.16238383       9.52532900       7.47939590      -0.00514191      -0.00363484       0.01168279
O        3.51682174       7.79140549       7.08230428      -0.01026288      -0.00322971      -0.00259486
C        1.18487527       7.53965357       6.66903241      -0.01389605       0.00348604       0.00712678
C        2.38648104       8.30765855       7.08433215      -0.00881591      -0.00245859       0.00505945
H        0.89574015       6.90375994       7.50901377      -0.02489147       0.01406507       0.01123241
H        0.35563376       8.18868451       6.40360516      -0.00582591       0.01039539      -0.00089982
H        1.43138288       6.86655569       5.85300411      -0.01811857      -0.00468747       0.01280919
H        3.02583003      10.01198209       7.77954272      -0.00312427      -0.00644615       0.00937328
O        7.90248380       0.16951417       2.67099692      -0.00296581       0.02330723      -0.00001774
O        6.95353798      -0.83554250       4.43496467       0.00139050       0.00509828      -0.01480746
C        5.56162677       0.30468726       2.83365925      -0.00535309       0.00184810      -0.00316146
C        6.84928964      -0.17604764       3.42396599      -0.00034842       0.00317362       0.00195092
H        5.70697582       1.22703774       2.27947141      -0.01132863       0.00375539      -0.00022644
H        5.20059532      -0.46264145       2.14502066      -0.00136034       0.00151771      -0.00451484
H        4.82258495       0.43295775       3.61875601      -0.00492246      -0.00578228      -0.00183596
H        8.68980809      -0.24492862       3.05384367      -0.00125661       0.02518663       0.00011417
O       13.49841919       6.68399704       3.95231691      -0.00165266      -0.00372416      -0.01220381
O       11.76296021       5.96755259       2.74507532      -0.04468328       0.03838587       0.02621993
C       12.85916421       8.00904914       2.08799284      -0.00151236       0.00530851      -0.00217575
C       12.63639401       6.80203852       2.93052730      -0.01835972       0.01601821       0.00775604
H       11.91939875       8.55613820       2.01766488       0.00479841       0.01239804      -0.01834279
H       13.62417180       8.65988905       2.50210901       0.00158395       0.00102101      -0.00150260
H       13.15173038       7.69356705       1.08530087       0.00762227      -0.00614466       0.00424893
H       13.30475763       5.85963185       4.44346075      -0.00803426       0.00105605      -0.00594356
O        4.04378539       3.65881973       1.00214360      -0.00103390      -0.01296780       0.01467067
O        4.26086869       5.49785915      -0.25988399       0.01640519      -0.04823068       0.00572634
C        5.27875955       5.42988362       1.93269843      -0.00693932       0.00221831      -0.00510484
C        4.50730827       4.91656802       0.76412025      -0.00691929      -0.00476700      -0.03094339
H        4.55387706       5.80527150       2.66024438      -0.01332243       0.00650437      -0.01466292
H        5.86527998       4.63613538       2.39370944      -0.00527500       0.01204717       0.00530836
H        5.92229421       6.24287145       1.61558714      -0.01191989       0.00247811      -0.01372345
H        3.50684689       3.42004235       0.23393068       0.00824305      -0.02587885       0.00825191
O       12.00751712       2.15614967       0.50858182      -0.02754909      -0.00496320      -0.02092046
O        9.96212838       2.20758351       1.40351486      -0.01854670      -0.02901568       0.00240058
C       11.86352925       2.35212700       2.87753382      -0.00019094      -0.00361296      -0.01978189
C       11.15712445       2.22764618       1.56936610      -0.00858670      -0.01455498      -0.00797655
H       11.53559846       1.53996245       3.52743845       0.00645012       0.00228041      -0.00969477
H       12.94047675       2.30754205       2.73786079      -0.00158092      -0.00223444      -0.03123495
H       11.58896760       3.30221783       3.33922562       0.00376293      -0.00000739      -0.02501218
H       11.42875393       2.01326505      -0.25387038      -0.04095578      -0.00412793      -0.01021528
O       10.12221626       6.90963429      13.65675143      -0.01787816       0.00620204       0.00673600
O       12.09143938       6.73210115      12.58326822      -0.00750291      -0.00535178       0.02506444
C       10.64227438       4.81897172      12.73198995      -0.02064049       0.01523733       0.01856390
C       11.05491398       6.24098352      12.95308446      -0.00061315       0.01489013       0.01747873
H       10.73956592       4.29728906      13.68387842      -0.02828574       0.00398192       0.01930532
H        9.59508629       4.73748702      12.44000525      -0.01461041       0.01271373      -0.01323274
H       11.29086671       4.36040935      11.98964837      -0.01974539       0.04072800       0.00283529
H       10.34970289       7.85385504      13.73274724      -0.00787908      -0.00094807       0.01953685
O        2.97091369       7.78279654       3.57655708       0.02257961      -0.01953548      -0.00171018
O        2.17556113       9.84378100       3.24728557      -0.00512856      -0.02102232       0.02806059
C        4.05901245       9.06515784       1.95519736      -0.00156790       0.01038642       0.00686496
C        2.98774188       8.98007171       2.98854684       0.01067525      -0.01789856       0.00976664
H        5.00245812       8.70697803       2.36048925       0.00397994       0.01273574      -0.00365078
H        3.76748298       8.39831767       1.14019020      -0.00023337       0.02140237      -0.00274590
H        4.16229451      10.08125730       1.58711885      -0.00868719       0.01684603       0.02318795
H        2.10942669       7.65273319       4.00483715       0.02824056      -0.03624748       0.00206302
