185
Lattice="13.776056774819118 0.0 0.0 0.0 13.776056774819118 0.0 0.0 0.0 13.776056774819118" Properties=species:S:1:pos:R:3:forces:R:3 energy=-443928.75 stress="0.0002743527293205261 -3.5339252120181186e-06 -0.00013442693307297304 -3.5339252120181186e-06 -0.0002768347039818764 2.1701794139517006e-05 -0.00013442693307297304 2.1701794139517006e-05 -1.9429728126851842e-05" pbc="T T T"
Gd      13.66772841      12.79744948       3.37440402       0.01633748       0.01007377       0.01096123
S       11.23435433      13.49873223       5.50045083       0.00760719       0.02501430       0.00348955
F       10.28666248      15.03108480       3.53925550       0.00854365      -0.01235852      -0.02840794
F        9.15934440      13.21442245       3.84658898       0.00443467      -0.00304876       0.01246894
F       11.14377382      13.11406598       2.93516987       0.00477155      -0.02627265       0.01342976
O       11.14485432      12.07307493       5.69629665       0.00406381       0.03311867       0.03556351
O       10.64152453      14.39302085       6.44015993       0.00656825       0.04662064      -0.00995502
O       12.61147551      13.89539072       5.04109168       0.00630894       0.01761819      -0.00390951
C       10.35724246      13.75717302       3.89424038       0.00632200      -0.00473341      -0.00042459
S        3.07018413      12.77571677       4.38034538      -0.01110104       0.00827044      -0.00233372
F        2.72700345      15.33834490       4.79314393      -0.00729792       0.00711630      -0.00964887
F        4.39165220      14.87766361       3.48075896       0.00125378       0.00332474       0.00172588
F        4.57618225      14.54943664       5.61427633      -0.01285060       0.00699685       0.00366943
O        4.18663371      11.94281431       4.05313457      -0.00025481      -0.00059122       0.03046110
O        2.11405612      12.98269186       3.23581699       0.01844242      -0.00128533      -0.02518439
O        2.32500730      12.51602128       5.59302143      -0.03911671       0.02059077      -0.02202749
C        3.74259208      14.49120569       4.57769634      -0.00661740       0.00585115      -0.00160201
S       13.60738762      12.84416683      14.21358155       0.00462723       0.01717307       0.02135234
F       11.57348186      12.17140946      12.69802432       0.02821462      -0.00448524      -0.00186962
F       12.34825330      14.16549936      12.33850010       0.00596167       0.00934914       0.00809375
F       11.13312198      13.77623077      14.08552706       0.00204827      -0.01344125       0.00391920
O       13.81271097      14.00894357      15.10801302      -0.00278519       0.01594168       0.01436453
O       14.59687146      12.56700368      13.22979648       0.02607023       0.02870835       0.00730702
O       13.21907439      11.71691367      15.10730537       0.02417559       0.01194562       0.00569287
C       12.06058685      13.26855239      13.27374820       0.01441792       0.00008284       0.00671378
C        4.69184279       5.41385955       9.75786623       0.00023243       0.00163907      -0.00229603
C        5.64122383       4.95910258       8.65569774       0.00143464       0.00085524      -0.00102377
C        4.21619400       6.85303142       9.59639988       0.00187065       0.00210738      -0.00255027
C        5.99104409       3.47593960       8.71244793      -0.00202672       0.00005588      -0.00163877
C        3.36426891       7.32925664      10.76491855       0.00022760       0.00233367      -0.00380442
C        6.90406500       3.04175189       7.57511449      -0.00070944      -0.00134557       0.00007939
H        3.82130967       4.74759058       9.78658958      -0.00054410       0.00256704      -0.00391278
H        5.18353484       5.30611220      10.73129183      -0.00139931       0.00067205      -0.00165915
H        6.56262435       5.55283681       8.70166110       0.00258371      -0.00117858       0.00137430
H        5.19501516       5.18139442       7.68054782       0.00380401       0.00275442      -0.00168842
H        5.08497725       7.50885726       9.48394078       0.00270331       0.00146213      -0.00072579
H        3.64904836       6.94172918       8.66352753       0.00360495       0.00304254      -0.00344938
H        6.46744820       3.25264049       9.67179632      -0.00468956      -0.00184883      -0.00060064
H        5.06715580       2.88861707       8.69082716      -0.00338471       0.00228938      -0.00405546
H        2.48259534       6.69682071      10.89048450      -0.00029673       0.00274919      -0.00544714
H        3.02265037       8.35610637      10.62672004       0.00097371       0.00249949      -0.00406542
H        3.92843016       7.28903607      11.69926308      -0.00131467       0.00176847      -0.00284655
H        6.43318834       3.21896245       6.60534505       0.00209120       0.00126369      -0.00078721
H        7.84209296       3.60104201       7.59305645       0.00117309      -0.00449434       0.00271085
H        7.15226747       1.98125424       7.63326826      -0.00413806      -0.00220978      -0.00067341
C        6.76007501       9.94976919       7.30867982      -0.00330192       0.00257297      -0.00228661
C        5.28994668      10.34239453       7.38624570      -0.00431073      -0.00119713      -0.00167859
C        7.24375041       9.64913213       5.89459539      -0.00453377       0.00082443      -0.00237131
C        4.83684147      10.70638721       8.79596502      -0.00401452       0.00144308      -0.00235695
C        8.71895233       9.27300984       5.85385401      -0.00295478       0.00686763      -0.00466526
C        3.35623484      11.05205012       8.87453552      -0.00455719      -0.00105615      -0.00213162
H        7.37387751      10.75355493       7.73214729      -0.00509639       0.00516519      -0.00480409
H        6.93802829       9.07191450       7.94345633      -0.00017519       0.00446320      -0.00061889
H        4.67281310       9.51859404       7.00694184      -0.00246058      -0.00379145       0.00120245
H        5.10098237      11.18588900       6.71443085      -0.00693997      -0.00351456      -0.00383775
H        6.63860564       8.83935980       5.47207238      -0.00195453      -0.00265914       0.00088266
H        7.06253673      10.52232970       5.26071181      -0.00947776      -0.00148737      -0.00418262
H        5.05860914       9.87588960       9.47587310      -0.00212926       0.00367036      -0.00037491
H        5.43173921      11.55350930       9.15416345      -0.00525996       0.00346580      -0.00471932
H        9.34238777      10.08659799       6.22950734      -0.00551865       0.01052958      -0.00819826
H        9.05241358       9.04624341       4.83883416      -0.00462730       0.00539543      -0.00480011
H        8.91238677       8.39205369       6.46932346       0.00222477       0.00941476      -0.00278577
H        3.11105953      11.87660010       8.20327044      -0.00671092      -0.00291172      -0.00406894
H        2.74327922      10.19899911       8.57319891      -0.00332785      -0.00292170       0.00051988
H        3.05939802      11.33317765       9.88622579      -0.00447178       0.00139228      -0.00295761
C        1.90434502       7.05283512       5.39423471      -0.00228652      -0.00587662      -0.00235558
C        1.43353432       8.27451443       4.62021147      -0.00391654      -0.00731766      -0.00399864
C        2.78399208       6.13584897       4.55378022      -0.00264107      -0.00784667      -0.00048202
C        0.65584462       9.27279918       5.46462367      -0.00050006      -0.00569975      -0.00281924
C        3.17604678       4.85329366       5.27073853      -0.00406064      -0.00661814       0.00250241
C        0.12823203      10.43196809       4.62088041      -0.00647405      -0.00787032      -0.00204637
H        2.45940956       7.37451971       6.28379570      -0.00166842      -0.00388418      -0.00348112
H        1.03507451       6.49582959       5.76350253      -0.00180927      -0.00524579      -0.00042832
H        0.81906230       7.94983109       3.77197927      -0.00716931      -0.00894141      -0.00102615
H        2.30280418       8.78594198       4.18854428      -0.00517967      -0.00890395      -0.00834008
H        2.25806888       5.89348012       3.62397229      -0.00228544      -0.00952305      -0.00019941
H        3.68162579       6.68812553       4.25658808      -0.00202572      -0.00915013      -0.00109004
H       -0.18031358       8.78303350       5.97181277       0.00244948      -0.00544955       0.00216575
H        1.30919658       9.67416272       6.24396886       0.00301510      -0.00437558      -0.00628707
H        3.68667929       5.07445042       6.20981953      -0.00554626      -0.00532851       0.00303753
H        3.84384484       4.23694422       4.66668826      -0.00325163      -0.00785454       0.00468078
H        2.29714385       4.25239958       5.50896073      -0.00458884      -0.00594335       0.00207207
H        0.93162519      10.70892980       3.91460369      -0.00617848      -0.00085895       0.00109387
H       -0.76588625      10.14849231       4.04672063      -0.00138308      -0.01327619      -0.00633130
H       -0.11719723      11.27859830       5.27999891      -0.01606871      -0.01129977      -0.00136997
C       10.04096605      10.97228273       9.86649139       0.00176984      -0.00171471       0.00170629
C        9.50412501       9.57111921      10.12901734       0.00135460      -0.00155383       0.00219573
C       11.41891008      10.97960797       9.21287712       0.00094709      -0.00262582      -0.00028200
C        8.17146959       9.55350761      10.86760898       0.00097412      -0.00052702       0.00177908
C       12.01993980      12.37561871       9.11405414      -0.00101659      -0.00231093      -0.00693785
C        7.66210729       8.14347119      11.13563473       0.00018167      -0.00006047       0.00237557
H        9.33754190      11.52485064       9.23325807       0.00151846      -0.00198010       0.00172524
H       10.08656843      11.51787529      10.81428966       0.00312143      -0.00128712       0.00124508
H       10.24205857       9.01413709      10.71933245       0.00080252      -0.00160019       0.00249183
H        9.40497754       9.03163159       9.17915155       0.00124516      -0.00176489       0.00235030
H       12.08873655      10.33078101       9.78792971       0.00256947       0.00073133       0.00182000
H       11.34425173      10.53993237       8.21302516       0.00048487      -0.00683290       0.00187913
H        8.28466865      10.08883048      11.81626755       0.00081229       0.00008431       0.00142783
H        7.42829044      10.11173947      10.29149785       0.00154704      -0.00042164       0.00099158
H       11.35026595      13.05670002       8.58843718      -0.00156441      -0.00652933      -0.01182504
H       12.97047146      12.36774932       8.57790979      -0.00060260      -0.00381930      -0.00632577
H       12.20499095      12.79152431      10.10493486      -0.00292905       0.00379074      -0.00922629
H        7.52386978       7.59284183      10.20139372       0.00047821      -0.00062952       0.00268339
H        8.37434730       7.57840536      11.74228516      -0.00040142      -0.00004511       0.00321224
H        6.70584773       8.14678567      11.66372480      -0.00007831       0.00075439       0.00182146
C        7.43883249       2.77297279      12.37042675      -0.00054762      -0.00288981      -0.00127574
C        5.93329010       2.69076157      12.58878308      -0.00025684      -0.00128508       0.00141294
C        7.94702417       4.20153769      12.19725152       0.00084418      -0.00301421       0.00181236
C        5.38502513       1.27105539      12.67889082      -0.00242379      -0.00067025      -0.00264842
C        9.43863921       4.27260760      11.89868855       0.00054350      -0.00380656      -0.00004540
C        3.86750254       1.25059041      12.80846795      -0.00221872       0.00127366       0.00066729
H        7.95934552       2.30228243      13.21257747       0.00041620      -0.00598800      -0.00371391
H        7.71050726       2.18631304      11.48460838      -0.00304051      -0.00068325      -0.00354752
H        5.42363113       3.21132355      11.77045033      -0.00103489       0.00259294       0.00435528
H        5.66824988       3.23357779      13.50243752       0.00258102      -0.00422771       0.00387582
H        7.39274448       4.68401689      11.38497871       0.00014220      -0.00024816       0.00404629
H        7.71711603       4.77804536      13.10062228       0.00283287      -0.00535572       0.00376186
H        5.68926068       0.71117506      11.78807323      -0.00537555       0.00210339      -0.00540251
H        5.83879328       0.75603858      13.53162902      -0.00145955      -0.00451691      -0.00565505
H       10.02571206       3.81598754      12.69817676       0.00118859      -0.00640823      -0.00200887
H        9.78032241       5.30333454      11.78320132       0.00134080      -0.00380161       0.00220758
H        9.67338811       3.73997973      10.97461636      -0.00084002      -0.00190194      -0.00155190
H        3.54650336       1.75273379      13.72340374       0.00057955      -0.00170216       0.00325735
H        3.40232470       1.77007901      11.96745520      -0.00331397       0.00505292       0.00373551
H        3.46477485       0.23846326      12.83001640      -0.00381783       0.00186849      -0.00207631
C       10.96545677       6.24573453       7.42435239       0.00247240      -0.00216007      -0.00089701
C       10.56390205       5.09888410       6.50488897       0.00367627      -0.00343984      -0.00188107
C       12.17037160       5.92048250       8.29967589       0.00272572      -0.00270879      -0.00157806
C        9.36314845       5.41469205       5.62032184       0.00242844      -0.00368968      -0.00108935
C       12.60688662       7.08946112       9.17122675       0.00145829      -0.00310445      -0.00052279
C        9.00342508       4.26608973       4.68770666       0.00344651      -0.00470951      -0.00064868
H       11.18466754       7.13611212       6.82246082       0.00158422      -0.00225201      -0.00062126
H       10.11723080       6.51885769       8.06480553       0.00204721      -0.00462107      -0.00093120
H       10.34943936       4.20542566       7.10258808       0.00550982      -0.00209191      -0.00348359
H       11.41619858       4.83149235       5.86906500       0.00307009      -0.00132063      -0.00196785
H       11.93240998       5.05672812       8.92907066       0.00373341      -0.00362182      -0.00250432
H       13.00181964       5.60722043       7.65950313       0.00311166      -0.00125349      -0.00195977
H        8.50312207       5.66549559       6.25148721       0.00267917      -0.00552502      -0.00016698
H        9.57507193       6.31553382       5.03405808       0.00084734      -0.00375804      -0.00124881
H       12.87616858       7.95482738       8.56216673       0.00063668      -0.00221178       0.00026746
H       13.47081899       6.83478404       9.78728565       0.00158268      -0.00264543      -0.00064300
H       11.80105917       7.40365902       9.83691656       0.00100367      -0.00442937      -0.00037701
H        9.82701686       4.04881248       4.00455459       0.00284009      -0.00354790      -0.00176789
H        8.79850558       3.35197716       5.24781107       0.00551438      -0.00521247      -0.00057502
H        8.12234477       4.49714050       4.08594338       0.00226960      -0.00601790       0.00029828
C        4.93835617       7.77905757       1.45133420      -0.00148112      -0.00059929       0.00093305
C        5.42786070       9.22105727       1.45209313      -0.00182474      -0.00047804      -0.00027037
C        5.89781069       6.80541021       2.12665364       0.00083232      -0.00103813      -0.00299078
C        4.43567717      10.19664097       0.83001318      -0.00416815      -0.00135192       0.00206648
C        5.46443490       5.35437699       1.97349543      -0.00076278      -0.00081798      -0.00081987
C        5.00201351      11.60069434       0.67114461      -0.00793542       0.00033826       0.00535782
H        3.95638332       7.72041499       1.93552423       0.00037622      -0.00077171       0.00449090
H        4.77977047       7.45829988       0.41420796      -0.00539347      -0.00019230       0.00144085
H        6.37857878       9.27190193       0.90924532      -0.00321651       0.00023943      -0.00265208
H        5.64742754       9.53975766       2.47774607       0.00049612      -0.00042310      -0.00080684
H        6.89765810       6.93539938       1.69969200      -0.00091559      -0.00178974      -0.00730444
H        5.98922123       7.06330036       3.18759269       0.00555732      -0.00095659      -0.00343946
H        4.11484726       9.81488189      -0.14595413      -0.00312466       0.00001176       0.00115547
H        3.53641399      10.23579307       1.45292938      -0.00447106      -0.00514862       0.00200048
H        4.46886701       5.19129586       2.38981300       0.00148258      -0.00038047       0.00451498
H        6.15005030       4.66444171       2.46840811       0.00159898      -0.00118458      -0.00461958
H        5.42317181       5.08137792       0.91752859      -0.00666553      -0.00072874      -0.00059387
H        5.36685850      11.98206580       1.62603394      -0.01188341       0.00085396       0.00679457
H        5.83463459      11.60985991      -0.03596557      -0.00590952       0.00406967       0.00766654
H        4.24375524      12.29318326       0.30600177      -0.00944090      -0.00206611       0.00384703
C       10.63210380       7.55841563       1.37414174       0.00180274       0.00063831       0.00225826
C        9.49594365       8.57247277       1.35224501       0.00328875       0.00230816       0.00002616
C       10.15965564       6.11279496       1.46335921      -0.00047851       0.00132389       0.00077289
C        9.98101650      10.01447851       1.27359243       0.00512540       0.00190192       0.00262680
C       11.30753463       5.11251130       1.45574476      -0.00174913      -0.00014332       0.00386305
C        8.84578423      11.02387756       1.18480322       0.00605085       0.00309220       0.00413591
H       11.24340617       7.68530117       0.47276613       0.00433880       0.00011317       0.00389436
H       11.29594772       7.77414458       2.22012272      -0.00028622      -0.00133139       0.00423810
H        8.87027055       8.44416008       2.24345691       0.00089869       0.00238795      -0.00170738
H        8.84288029       8.36404705       0.49517644       0.00515381       0.00392566      -0.00179109
H        9.56223874       5.98441531       2.37185645      -0.00296976       0.00216318      -0.00072131
H        9.48496146       5.90398355       0.62597867       0.00140803       0.00217983      -0.00095150
H       10.59941050      10.23246177       2.15187388       0.00479910      -0.00034185       0.00330594
H       10.64106782      10.12213242       0.40773285       0.00555329       0.00291667       0.00317043
H       11.88944879       5.19432993       0.53499242       0.00087436      -0.00087894       0.00553612
H       10.95276476       4.08351442       1.53371100      -0.00323611       0.00031017       0.00297096
H       11.98856822       5.29233078       2.29098757      -0.00391719      -0.00102310       0.00581490
H        8.22935888      10.84388764       0.30202032       0.00594500       0.00529271       0.00373302
H        8.19038235      10.96436692       2.05569444       0.00590746       0.00216677       0.00405996
H        9.22301687      12.04428745       1.11921679       0.00717428       0.00271977       0.00612349
