199
Lattice="12.495750144216744 0.0 0.0 0.0 12.495750144216744 0.0 0.0 0.0 12.495750144216744" Properties=species:S:1:pos:R:3:forces:R:3 energy=-458184.375 stress="0.0024268743582069874 -0.0009242903615813702 0.00016424065688624978 -0.0009242903615813702 0.002751886146143079 0.001295984664466232 0.00016424065688624978 0.001295984664466232 7.60824914323166e-05" pbc="T T T"
Gd      11.98074810      11.92020399       0.13056271       0.00372534      -0.00222553      -0.00697322
O        8.61651233      12.59266088       2.63998712      -0.00575134      -0.01401603       0.00069487
O        7.77422316      11.29790373       4.24788507      -0.00935161       0.00052333       0.00191545
C        8.67005405      12.01610933       3.75554507      -0.00232148       0.00852014      -0.02364591
H        9.59799716      12.15871183       4.34814273      -0.00189054       0.00094209      -0.01109558
O        3.38309753      10.62470730       0.70648261       0.00175595       0.00684577      -0.00222856
O        1.39554111      10.75279007      -0.31472045       0.00864959       0.00633520      -0.00580883
C        2.33138117      10.11625910       0.29040352       0.01096311       0.01189011       0.00036622
H        2.16806685       9.03215014       0.42824681       0.00420064       0.00830585       0.00316453
O        9.32795635      12.94429216       7.75362490      -0.00745571       0.01554221      -0.00161462
O        9.91749215      11.01564100       8.71893003      -0.00199148       0.03161943      -0.02019781
C       10.14079143      12.01495896       7.98852649       0.00040019      -0.03751757       0.02725609
H       11.13414667      12.08127113       7.50536858      -0.00197393       0.00052992       0.00536534
O       10.81751113      13.24391263      11.03560226       0.00638077      -0.01081881      -0.01046667
H        9.84527490      13.15322186      11.10934964       0.00607869      -0.00890526      -0.00132043
H       11.03603193      14.07915082      10.55193530       0.00386109      -0.00769217      -0.00336509
O        9.18058252       3.29381133       3.96916544       0.00530845       0.00107294       0.00878673
H        8.21988036       3.21237414       3.90819920       0.00388490       0.00084474       0.00987025
H        9.42350725       2.97339931       4.87051356       0.00567961       0.00447632       0.00759503
O        5.83632042       9.39388301       3.93484067       0.00946455      -0.01235107       0.00022385
H        6.43409504       8.61455089       3.78503559       0.01137348      -0.01188444      -0.00370983
H        6.39643624      10.15671984       3.69828359       0.00559173      -0.01112521       0.00382029
O        3.48514316       0.72273617       5.00351821      -0.00542129      -0.00103419       0.00411701
H        4.05635577       0.08243884       5.46531540      -0.00550047      -0.00099759       0.00308394
H        2.96695347       1.22865443       5.66194120      -0.00917867      -0.00370906       0.00388884
O        9.42180533       3.99387687      11.45573945       0.00556904      -0.00291894      -0.00190759
H        8.86230645       3.23699109      11.22200160      -0.00196578       0.00400617      -0.00104038
H        9.64454580       3.91310869      12.39850982      -0.00137483       0.00047789       0.00096702
O        8.03022338       7.64626680      12.24554415       0.00510123       0.00655232       0.00268152
H        7.13593273       7.22545336      12.20610821       0.00338098       0.00803725       0.00568499
H        7.76296010       8.56154057      12.44581247       0.00850680       0.00781269       0.00256249
O        2.89313093      10.56292980       9.67095761       0.00294942      -0.00732945      -0.00338757
H        2.54193023      10.51981810       8.76753063       0.00290459      -0.01403950      -0.00360835
H        2.16016143      10.67541885      10.29148266       0.00259079      -0.00484102      -0.00451448
O       11.98591793       4.73625705       6.73965867      -0.00245902       0.00026061      -0.00140166
H       11.81269250       5.32155060       7.50897221      -0.00518493      -0.00525240       0.00422619
H       11.52808737       3.89807049       6.92030572      -0.00172215       0.00041852      -0.00857303
O        6.27793195       3.61080172       5.21503792       0.00024967      -0.00663692       0.00200302
H        6.93979699       4.22758126       5.59266137      -0.00070281      -0.00589741       0.00491468
H        6.40255987       2.73577579       5.63053042      -0.00072781      -0.00587917       0.00024448
O        5.21378600       5.35991138       3.17849863       0.00699460       0.00090250       0.00337723
H        5.44013162       4.56077928       3.68058936       0.00345094      -0.00052241       0.00184200
H        5.02373212       5.05260832       2.25926948       0.00446323       0.00240420       0.00291801
O       10.77163404       0.96321539       1.51768577      -0.00796413      -0.00209230      -0.01450363
H        9.94194716       0.69113055       2.02820013      -0.00898367      -0.00751983      -0.01321407
H       10.64765380       1.89114580       1.28472908      -0.01357687      -0.00513684      -0.01387934
O       11.43272983      10.36966165      10.85829651       0.01259027      -0.00512841      -0.00503117
H       12.03451517       9.61301697      10.65451497       0.00742294      -0.00158947      -0.01249999
H       10.91780563      10.59615232      10.04862640       0.00330951      -0.00064588      -0.00942639
O        0.68554620       3.76040916       0.92936994      -0.00161606       0.00494412       0.00094105
H        1.24287119       3.48959518       1.70580676      -0.00151264       0.00565799       0.00120017
H       -0.21656321       3.94969874       1.25074636      -0.00252073       0.00163144       0.00061182
O        2.67296255       4.27327059       8.07120977      -0.01408868      -0.00334606      -0.01041690
H        2.24679090       5.03908728       8.46974319      -0.03380635      -0.00155040      -0.03402966
H        3.27415017       4.65581333       7.38135540      -0.00512691      -0.00427762      -0.00216483
O        5.80546803      13.61056007       9.14685210      -0.00093613       0.00662509      -0.00222051
H        6.09937348      12.68540266       9.25989852      -0.00145070       0.00552526       0.00335797
H        6.59260227      14.10564926       9.48242590      -0.00250896       0.00677645      -0.00232381
O        0.94768814       1.19582868      -0.00070848       0.00081564       0.00434351       0.00329780
H        0.80025483       2.12756994       0.27986938      -0.00073250       0.00306563       0.00569188
H        1.94327193       1.04996168      -0.09758749       0.00112180       0.00634783       0.00496056
O        5.14974231      11.27267788       6.07727294      -0.00122964       0.00060062      -0.00058634
H        5.48633502      10.68346765       5.38464383       0.00068808      -0.00046321       0.00054099
H        5.84144317      11.95390977       6.22114529      -0.00228337      -0.00083863       0.00120306
O       11.30524302       3.09274846       9.76657408       0.00859582      -0.00496334       0.00287816
H       12.15602803       3.53785894       9.79365298       0.01562409      -0.01910064       0.03252899
H       10.70720574       3.60801097      10.35882955       0.00688681      -0.01039869       0.00606298
O        2.77632037       4.17774598      11.54915787      -0.00059688       0.00654380       0.00087640
H        1.97476435       4.03123952      12.07665799      -0.00159182       0.00663387      -0.00012168
H        2.97865573       3.36900722      11.02183050      -0.00038126       0.00702792       0.00077314
O        2.69585090       7.45362077       7.88896338      -0.03285319      -0.01275515       0.02101160
H        2.80002653       8.39280184       7.68337093      -0.00699399      -0.02046177      -0.00097084
H        3.01420829       7.33484962       8.79849273      -0.00556028      -0.00883453       0.01211227
O        3.47501601      13.18214469      12.18247483       0.00375336       0.01312264       0.00342752
H        3.54504291      13.21810935      11.22093827       0.00280306       0.01724326       0.00492513
H        3.53912449      12.23787158      12.44875464       0.00580084       0.01060225       0.00012137
O        2.37977522       2.85669442       2.75834840      -0.00273087       0.00374217       0.00211450
H        2.24890996       1.89663612       2.83573816      -0.00332352       0.00317862      -0.00054435
H        2.17597140       3.27784522       3.61753480      -0.00338580       0.00122058       0.00300700
O        3.68342497       7.68511448       3.21179327       0.00237772       0.00025784      -0.00277641
H        4.36893046       8.37636694       3.20819893       0.00359226      -0.00096530       0.00266746
H        4.15771114       6.85056667       3.39453387       0.00051139      -0.00025558      -0.00085229
O        4.13614002       5.13981796       6.06247723       0.00241295      -0.00322698       0.00192900
H        4.86143355       4.53961125       5.78320092       0.00052519      -0.00436936       0.00090112
H        4.52510412       6.03597476       6.10703833       0.00340773      -0.00308183      -0.00212045
O        7.24869680      11.28382372       9.54075230      -0.00612696       0.00851522       0.01223026
H        8.06747057      11.04112919       9.06291491       0.00111477       0.00754795       0.00770918
H        6.65381321      10.51121632       9.62954906      -0.00161271       0.00966587       0.01069902
O        0.14742654      11.27215305       2.34299683       0.00181510       0.00123110      -0.00543261
H        0.06386009      10.36585205       2.67834505      -0.00002034       0.00270021      -0.00250112
H        1.01939674      11.63985091       2.65828321       0.00038842       0.00284444      -0.00347529
O       10.31412953      10.25109848       0.84370796       0.00385118      -0.00207931      -0.00882958
H       10.59309649       9.66550686       1.59027178       0.00282319      -0.00213534      -0.00993969
H       10.26174687       9.67750848       0.06629351       0.00551210      -0.00159940      -0.01082811
O        8.73285672       6.84566650       9.62597850      -0.00245124       0.00027159       0.00891729
H        8.65454958       7.07633994      10.56996163      -0.00464074       0.00442322       0.00823063
H        7.84748206       7.05224906       9.27170922       0.00149600       0.00662228       0.00363208
O        1.75315688       4.69285514       4.74827603      -0.00237996      -0.00172436       0.00664207
H        2.61334988       4.93374006       5.15433876      -0.00150758      -0.00260819       0.00544722
H        1.16237508       4.51239913       5.49818845      -0.00302922       0.00133538       0.00678886
O        0.62574880       8.21765967      10.35166844       0.00167603      -0.00269496      -0.00406560
H        0.91694761       8.50690319       9.47360810       0.02186707      -0.02314764      -0.00439775
H        0.02958697       7.48398805      10.11158854      -0.00054920      -0.00148471      -0.00158119
O        5.70366490       7.44077270       6.25283385      -0.00342928      -0.00345361      -0.00415119
H        5.69463696       7.59632626       7.22273184       0.00776597       0.00608259      -0.00541850
H        5.54425560       8.27761906       5.79796649       0.01922902      -0.00405373      -0.01339072
O        9.96231633       2.76487149       6.52788640       0.00473731       0.00022226       0.01040967
H        9.85203732       1.86452532       6.91595024       0.00472996       0.00949395       0.00598568
H        9.53480061       3.35244803       7.18206122       0.00456132       0.00662775       0.01111721
O        5.42139109       7.00303877      12.41597201       0.01939142      -0.01166668      -0.00152355
H        5.33878154       6.09207095      12.76159754       0.01776984      -0.01320415      -0.00581146
H        4.68242068       7.07016779      11.78235618       0.01997223      -0.00697218      -0.00254634
O        0.51701979      -0.56779397       5.93346171      -0.00309542      -0.01007554       0.00003634
H        1.26574562      -1.07164844       6.31726999      -0.00472517      -0.01257220       0.00088638
H        0.90856439      -0.11417342       5.17954440       0.00056392      -0.00324297       0.00707390
O       10.25956649       5.72192633       4.89529443      -0.00338268       0.00863039       0.00301784
H        9.91410239       4.94941911       4.40976036      -0.00092931       0.00809315       0.00275602
H       10.83384352       5.33717146       5.60418752      -0.00301390       0.00947671       0.00321910
O        3.39061450       2.23700444       9.78012470       0.00049444       0.00684512      -0.00004176
H        3.21072741       2.89766041       9.08599411      -0.00593918       0.00492105      -0.00022806
H        4.27018847       1.86267884       9.56586520      -0.00086746       0.00702098      -0.00387229
O        1.72449021       2.12526342       6.53469382      -0.01127395      -0.00655754      -0.00020063
H        1.12511823       1.50762849       6.96519593      -0.00738003      -0.00425082       0.00891462
H        1.89539156       2.85504546       7.15846348      -0.00659624      -0.00254252      -0.00563794
O        7.22565603       7.16329634       3.58986209       0.01470798      -0.00694430       0.00195454
H        6.56232426       6.47207123       3.37481648       0.01311535      -0.00554973       0.00276695
H        7.98895787       6.99151772       3.00838503       0.01230203      -0.00532685      -0.00248912
O       12.64324495       6.74936163       3.87824198       0.00148341      -0.00013012       0.00427846
H       13.31075533       6.05720222       4.06772652      -0.00143537      -0.00228493       0.00554724
H       11.79514333       6.38688903       4.20474399      -0.00073819       0.00347326       0.00328961
O        2.12614222       6.70511676       0.93668801      -0.00815765       0.01312530       0.00005215
H        1.62432041       5.94717334       1.25366564      -0.00375842       0.00966454      -0.00175060
H        2.63987080       7.01938293       1.69872681      -0.00115576       0.00737807      -0.00205255
O        9.43014870       6.69073247       1.89162427       0.00645816      -0.00191981      -0.00634389
H       10.02738264       7.38366005       2.22212916       0.00800203      -0.00280078      -0.00665573
H        8.98876914       7.04464880       1.08362193       0.00440629       0.00106294      -0.00475077
O       11.40336277       6.61407037       8.73538496      -0.00327644      -0.00852457       0.00779016
H       11.56911870       7.48811211       8.31110311      -0.00821640      -0.00855509       0.00148973
H       10.46212305       6.65621092       8.98790592      -0.00160597      -0.00859901       0.01150407
O        4.97452683       4.42274791       0.67400293      -0.00307629      -0.00103717       0.00530706
H        4.13797056       4.29578457       0.18005038      -0.00277860       0.00256615       0.00410184
H        5.21268196       3.53997726       1.04609247      -0.00600259      -0.00230134       0.00547194
O       11.31501759       8.73454220       2.80357936       0.00215188      -0.00090960      -0.00600848
H       11.24442071       9.08630452       3.73072756      -0.00270370       0.00280629      -0.00718661
H       11.97671456       8.01354371       2.89168925       0.00313558       0.00107552      -0.00246456
O        7.79447311       5.69173802       6.13824822      -0.00421254      -0.00685212       0.00580685
H        8.61621225       5.88844891       5.64058014      -0.00624694      -0.00130971       0.00501181
H        7.16037658       6.41981738       5.97772622      -0.00618207      -0.00627922       0.01100222
O        6.26692178      12.29568823       1.35711395      -0.00790426       0.00673703      -0.01213896
H        7.08465637      12.35667105       1.91400096      -0.00670420       0.00148704      -0.01008382
H        6.58895722      12.61219118       0.49986958      -0.00486643       0.01015418      -0.00966044
O        2.42634515      12.46651301       2.78460173      -0.00103649       0.00640260       0.00089343
H        2.89480564      12.62450163       3.65246022      -0.00231158       0.00444963       0.00104792
H        3.02747441      11.98262325       2.19716911       0.00103701       0.00839954      -0.00098867
O        3.21943814       6.71698330      10.58209140       0.01786628       0.00777866       0.00994384
H        3.03448636       5.81124744      10.91739964       0.01182175       0.00604443       0.00081093
H        2.46037562       7.23279364      10.89859536       0.02118170       0.00787569       0.01815050
O       11.94353326       9.14535811       7.89652251      -0.02061616      -0.01520659      -0.01457851
H       11.19383402       9.71460440       8.15887294      -0.02366831      -0.01022841      -0.00596016
H       11.94175354       9.20932721       6.92306525      -0.02662244      -0.00986774      -0.00974655
O       11.36623880       9.72952336       5.26255932      -0.01273695       0.00933987      -0.01007275
H       10.43143819       9.80421944       5.59131225      -0.01014813       0.01293820      -0.00258222
H       11.82045596      10.58916567       5.37211238      -0.00309078       0.00334601      -0.00509796
O        8.32865653      12.27624787      11.77717874       0.00728549       0.01316528       0.00352484
H        8.49723092      11.58054362      12.42347069       0.00863437       0.01558237       0.00709953
H        7.89349847      11.83576491      11.00305997       0.00586987       0.00980235       0.00660599
O        8.57943272       4.42506790       8.32597906       0.00356733       0.00386900       0.00831575
H        8.78290351       5.10557104       8.99623646      -0.00142629       0.00576652       0.00990412
H        8.15972352       4.93358384       7.59410777       0.00280854       0.00194604       0.00704338
O        8.83851210       9.73764638       6.10276514       0.00070572      -0.00308946      -0.01894669
H        8.43196396       8.86761647       6.05295425       0.00727101      -0.00656860      -0.03041869
H        8.34809841      10.30328082       5.45154450      -0.01119982       0.00407023       0.00535642
O        1.77914938       8.99076802       4.69143274      -0.00241189      -0.00873645      -0.00026580
H        1.04290962       8.36094998       4.73607410       0.00012210      -0.01243248      -0.00333818
H        2.47397612       8.48541401       4.21720015      -0.00062015      -0.00349848      -0.00288518
O        5.33264587       9.53739105      10.26001935       0.00225109       0.00279176       0.00388290
H        5.54360106       9.64620781      11.21465352       0.00034979      -0.00060278       0.00507075
H        4.43192720       9.89736502      10.09948759       0.00099844       0.00011778       0.00288026
O        6.68655520      13.55631819       6.56160314       0.00586319      -0.00693147       0.00029348
H        7.60174005      13.29831550       6.75585322      -0.00120057      -0.00333697       0.00136501
H        6.29442014      13.67245210       7.45910755       0.00044786      -0.00249258       0.00088328
O        6.27914047       9.73024318       0.32138746      -0.00142784       0.00386448       0.00328380
H        6.11529556      10.57131109       0.80310498      -0.00361903       0.00890554      -0.00519712
H        5.70750426       9.05838121       0.71877876       0.00003137       0.00821364       0.01105353
O        5.32372866       2.30209991       2.22333562      -0.00611761       0.00016186       0.00185296
H        5.50854765       1.38321282       1.95171076      -0.00729522       0.00102699      -0.00516926
H        4.40582546       2.31642340       2.52972557      -0.00555333      -0.00015085       0.00147657
O        5.99426190       7.33012977       8.96310195       0.00245550       0.01172924      -0.00796032
H        5.71283791       8.11653622       9.49957312       0.00306426       0.01016044      -0.00409397
H        5.42241394       6.61989205       9.27425949       0.00300997       0.01077679      -0.00998011
O        8.19613054       2.15723550       9.69480051      -0.00131099       0.00171646      -0.00045859
H        8.63081743       1.47495124       9.14670391      -0.00387339       0.00833210       0.00558138
H        8.26149614       2.97653839       9.15121134      -0.00096216       0.00745767       0.00184010
O        2.61567181      10.28468220       6.85972737      -0.00035049      -0.01387241      -0.00010362
H        3.49421114      10.64961659       6.64529586      -0.00253358      -0.01237437      -0.00134519
H        2.33905099       9.74210753       6.07068092      -0.00289004      -0.01288830      -0.00061613
O       10.43583088       4.12064906       1.62920808      -0.00188641      -0.00280753       0.00043002
H       10.05854943       3.73686114       2.44627348       0.00167662      -0.00209939       0.00184834
H       10.16291832       5.06574561       1.67663961      -0.00194886      -0.00237365      -0.00043220
