192
Lattice="13.462538509457014 0.0 0.0 0.0 13.462538509457014 0.0 0.0 0.0 13.462538509457014" Properties=species:S:1:pos:R:3:forces:R:3 energy=-442445.9375 stress="0.000566460017580539 -0.0005428406875580549 3.6175267723592697e-06 -0.0005428406875580549 0.00014115891826804727 -0.0008313832513522357 3.6175267723592697e-06 -0.0008313832513522357 0.0004538164066616446" pbc="T T T"
Gd      14.07704461      14.34327789      -0.25036203      -0.00914027       0.00227845       0.01553935
S       11.61163422      11.69879020       6.36781853      -0.00296187       0.00118178      -0.00421035
N        9.18608764      12.02484519       7.77088749      -0.00283885      -0.00093868      -0.00377035
C       10.19584862      11.86545489       7.17988124      -0.00295299      -0.00011446      -0.00406075
S        9.41325028      14.10216497      13.73677047       0.03055269       0.01988733      -0.00643909
N       10.08281710      11.81573746      12.23025016      -0.01962101       0.01061749       0.03989553
C        9.78295689      12.76023020      12.86876213       0.01257629      -0.00755031       0.00560190
S       12.60661969      10.22222299       1.36036896       0.00000003      -0.01682174       0.01469104
N       12.70405796      12.92439890       0.71392678       0.00861098      -0.01627530       0.01862842
C       12.64036851      11.76020767       0.98154305       0.00584576      -0.01614845       0.01667929
O       10.75919829       3.44327209       2.97897447      -0.00081071      -0.00318272      -0.01068951
C       12.71947714       2.12343064       2.95683117       0.00062686      -0.00020167       0.01151246
C       12.74254424       3.08436192       1.76318627       0.00154886      -0.01705448      -0.00199255
C       11.23397386       2.11577218       3.29730346       0.00017405       0.00225416       0.00935628
C       11.75544847       4.14571676       2.25121326      -0.00078404      -0.01182687      -0.01868203
H       13.08347241       1.11599784       2.74153224       0.00507265      -0.00239842       0.02737750
H       13.30878649       2.54419511       3.77762456      -0.00250891       0.01284820       0.00609571
H       13.72151442       3.52020823       1.53256692       0.00168902      -0.01906054      -0.00775187
H       12.31349868       2.59798440       0.86286097      -0.00090128      -0.02998784       0.00570185
H       10.70227027       1.39650676       2.66541145       0.00107014      -0.00718969       0.02026248
H       11.02639046       1.91049009       4.34718271      -0.00053903       0.01793265       0.01237291
H       12.27768932       4.84910087       2.91555830      -0.00348011      -0.00165024      -0.02837992
H       11.28463905       4.71689208       1.44838900      -0.00034755      -0.02437016      -0.02821594
O        9.43884825       2.85206229       6.35089545       0.00249738       0.00235965       0.00326976
C        7.37652785       1.66728505       6.61302418       0.00786978      -0.00798067      -0.00150418
C        7.15904112       3.18472392       6.61888687      -0.00027764      -0.00915220      -0.00416410
C        8.90871987       1.53082907       6.59490969       0.00848627       0.00011089       0.00465256
C        8.38156705       3.65684825       5.85027843      -0.00017613      -0.00333263      -0.00042941
H        6.93390955       1.16376714       7.47110708       0.00722513      -0.00951764      -0.00274435
H        6.94255766       1.22392027       5.71451508       0.01368025      -0.01138728      -0.00270829
H        6.21647611       3.49336964       6.16635545      -0.00026709      -0.01488382      -0.00803562
H        7.19795017       3.57899206       7.63746785      -0.00645275      -0.00763649      -0.00451621
H        9.31147862       1.17428505       7.54058744       0.00659966       0.00507790       0.00731814
H        9.25331874       0.84418535       5.81912071       0.01548706      -0.00029275       0.00803596
H        8.25133139       3.49684951       4.76886587       0.00409892      -0.00446859      -0.00081944
H        8.64523845       4.70211552       6.01742070      -0.00605614      -0.00190845      -0.00011528
O        7.16636877      11.65768840       3.59096570      -0.00743830       0.01053819      -0.01556116
C        8.76225843      10.04005185       3.00047199      -0.00246873       0.00928390      -0.00211333
C        9.50149194      11.36210006       3.20349529      -0.00571609       0.01132252      -0.00287023
C        7.35420308      10.54390137       2.72150830      -0.00264895       0.00527382      -0.00852280
C        8.46327775      12.19824323       3.94068983      -0.00944525       0.00856785      -0.00557199
H        9.16753078       9.44077844       2.18523994       0.00194545       0.00782721       0.00105551
H        8.78279775       9.44410085       3.91797988      -0.00420318       0.01205157      -0.00029776
H       10.41858256      11.26913458       3.78401296      -0.00675869       0.01380426      -0.00081167
H        9.73443220      11.81021253       2.23510163      -0.00495703       0.01072383      -0.00278825
H        7.26299829      10.86244758       1.67342619      -0.00089032      -0.00068632      -0.01030934
H        6.56736699       9.81479613       2.93487628      -0.00159815       0.00472936      -0.00661923
H        8.57943193      12.12269907       5.02522518      -0.01506782       0.00422670      -0.00516850
H        8.49665020      13.25099787       3.64459527      -0.00806033       0.01001996      -0.00075370
O        2.05724608       4.76209151      12.71798874       0.00499215      -0.02891879       0.00573262
C        2.18325096       4.19288649      10.49280623       0.00066224       0.00931653      -0.00329614
C        3.55379320       4.77841993      10.85164457       0.00323832       0.00008331       0.00584197
C        1.29587348       4.87558743      11.51842321       0.00178143      -0.00887591       0.00969949
C        3.40760163       5.11456764      12.35074854      -0.00164465      -0.00551949       0.00691226
H        1.89108895       4.35829099       9.45661692      -0.00037341       0.02842862       0.00036447
H        2.17936165       3.11360205      10.68517395      -0.00069321       0.00642441      -0.02311564
H        4.36632187       4.08004857      10.65952983      -0.00115550      -0.00562909       0.00696407
H        3.74911435       5.68049185      10.27050444       0.01362443       0.00113201       0.01076578
H        1.12912919       5.93084437      11.25745048       0.00190048      -0.00431553       0.02971668
H        0.32822716       4.40340725      11.69753718       0.00208829      -0.01205468       0.00302347
H        4.07993284       4.54918450      12.99165914       0.00877485       0.00727031       0.00651523
H        3.56585634       6.18228741      12.53742033      -0.02184214      -0.00275254       0.00733827
O        5.04765925       1.05918665       1.43460908       0.00030135       0.00574398      -0.01443906
C        3.80398511       3.04536800       1.86327641      -0.00292572       0.00430083       0.00447303
C        4.22739604       2.37188770       3.17360508       0.01244056       0.00265984       0.00114334
C        4.33808224       2.09561550       0.77529578      -0.00314802       0.00890326      -0.00208743
C        5.42797132       1.55345630       2.72577115       0.00416923      -0.00324965      -0.01373696
H        2.72342162       3.18622699       1.79965924      -0.00578088      -0.00710097       0.01112086
H        4.25344499       4.03027032       1.77641422      -0.01309069       0.01085317       0.00718186
H        4.45161036       3.09617234       3.95496332       0.02112022       0.00215797       0.00164010
H        3.43942229       1.71261574       3.54738061       0.01796289      -0.00176787       0.00482176
H        3.52535981       1.61706363       0.19293663       0.00033574       0.02016962      -0.01546866
H        4.99655010       2.60816195       0.06513669       0.00013196       0.01403823       0.00910613
H        6.32208221       2.18385898       2.63380313       0.00414306      -0.00751069      -0.01952424
H        5.66026727       0.68837398       3.34701320       0.00910133      -0.00752839      -0.02045962
O        6.90592059       4.80468748       0.91369247      -0.00690340       0.00096864       0.00397000
C        7.31099937       6.83303747       2.04258620       0.00390656       0.00079948       0.00057958
C        8.58882628       5.99753572       2.07899199       0.00074488      -0.00416327      -0.00166482
C        6.27637167       5.75209683       1.77695089      -0.00110379       0.00459242       0.00437556
C        8.33913994       5.01544839       0.94168986      -0.00602940      -0.00436592      -0.00000668
H        7.11988730       7.38411764       2.96259961       0.00837916       0.00263996       0.00045216
H        7.34604088       7.54318745       1.21224037       0.00461203      -0.00029474      -0.00034401
H        9.49343971       6.58719201       1.93441475       0.00278096      -0.00802827      -0.00468152
H        8.67608160       5.46754985       3.03075150       0.00109313      -0.00342685      -0.00124261
H        5.98573710       5.25720267       2.71494071      -0.00108580       0.00684318       0.00561833
H        5.36746911       6.11783781       1.29091644      -0.00076941       0.00771123       0.00596555
H        8.64332398       5.43562535      -0.02287069      -0.00682236      -0.00635204      -0.00122333
H        8.82473308       4.04901818       1.09120369      -0.00924876      -0.00605267      -0.00054343
O       13.20966950       1.34352978      10.98272816      -0.00152087      -0.02714379       0.01414856
C       11.85977295       0.17507931       9.40809123      -0.00227755      -0.01928699       0.00915515
C       11.95199607       1.63021298       8.96138987       0.01102668      -0.02139315       0.00722623
C       12.15671426       0.27538588      10.87622452      -0.01023757      -0.01910029       0.01090987
C       13.12998273       2.16398893       9.75870961       0.01218659      -0.03024659       0.00889926
H       10.88332582      -0.27138732       9.23176997      -0.00471646      -0.01201080       0.00471077
H       12.59930525      -0.43190833       8.88311715      -0.00440142      -0.02589521       0.01397082
H       12.10711700       1.73556056       7.88833726       0.01562874      -0.02469840       0.00812811
H       11.03821279       2.16871120       9.21524260       0.01536438      -0.01353948       0.00379281
H       11.30195948       0.60317751      11.47060952      -0.00989482      -0.00909096       0.00475901
H       12.56728667      -0.64154361      11.31439937      -0.02038968      -0.01938546       0.01790699
H       14.07555563       2.04137824       9.23005108       0.01362291      -0.04340284       0.01525831
H       13.01169143       3.20495736      10.05882389       0.02262825      -0.02807882       0.00444543
O        8.53667351       4.65613962      11.05559478       0.00146328       0.00032502       0.00041162
C        7.17284597       2.74214280      11.30874224       0.00148118      -0.00065231      -0.00703222
C        8.49960053       2.33174760      10.67098872       0.00044549       0.00228029      -0.01091656
C        7.16281039       4.24607824      11.05882719       0.00135244       0.00060362       0.00035253
C        9.37538566       3.49640830      11.09783105       0.00164193       0.00019288      -0.00754680
H        6.30847603       2.23297185      10.88103687       0.00116998       0.00149605      -0.00896565
H        7.20542631       2.52480971      12.37930080       0.00205960      -0.00662547      -0.00832763
H        8.86640061       1.37590467      11.04277336       0.00100405       0.00049278      -0.01603933
H        8.41194516       2.29069924       9.58155199      -0.00118155       0.00706573      -0.01078120
H        6.72904966       4.48468817      10.07852461       0.00003381       0.00542253       0.00227171
H        6.63461531       4.81170189      11.82998377       0.00263312      -0.00305700       0.00389543
H        9.73820537       3.33278226      12.12203564       0.00434919      -0.00473747      -0.00929654
H       10.23021660       3.68460668      10.44391891      -0.00016531       0.00281540      -0.00910866
O       12.99566734       7.36272579       6.35763254       0.00107485      -0.00223905      -0.00219742
C       11.39616895       5.65908465       6.04355600      -0.00060189      -0.00046405      -0.00429040
C       10.78914245       6.74472071       6.93288238      -0.00118941       0.00148849      -0.00691205
C       12.87770472       5.94638485       6.22470473      -0.00057179      -0.00225773      -0.00098012
C       11.69524240       7.92955419       6.63214373       0.00116158      -0.00013623      -0.00632398
H       11.11969179       4.64353302       6.32301919      -0.00265945       0.00032532      -0.00347203
H       11.10095944       5.81446351       5.00243038       0.00209940      -0.00130528      -0.00523996
H        9.74271521       6.96005872       6.71927878      -0.00038740       0.00271043      -0.00957511
H       10.86336766       6.45111121       7.98321080      -0.00373767       0.00257320      -0.00637883
H       13.25290742       5.46106998       7.13823642      -0.00362545      -0.00175656       0.00051624
H       13.50304103       5.61952966       5.38941527       0.00115281      -0.00392660       0.00096512
H       11.35890507       8.48007421       5.74809500       0.00401676      -0.00098115      -0.00807667
H       11.78791823       8.65326400       7.44330260      -0.00005317       0.00091708      -0.00707874
O        2.88654339       5.53964449       3.43599223      -0.00368034       0.00557858       0.00630172
C        2.00422998       7.44038371       2.35518378      -0.00086578       0.00268471      -0.00056756
C        2.52783983       7.85804209       3.72705444      -0.00617415       0.00602943       0.00051293
C        1.82748978       5.94579917       2.55666163      -0.00166752       0.00318736       0.00278804
C        3.46510722       6.70220718       4.04606524      -0.00657813       0.00722197       0.00619918
H        1.08516308       7.94641382       2.06293566       0.00042850       0.00211032      -0.00531870
H        2.75849622       7.62498725       1.58463890       0.00245345       0.00060875       0.00207675
H        3.03750419       8.82065319       3.72785182      -0.00684391       0.00644293       0.00044763
H        1.70492927       7.90071835       4.44538708      -0.00888130       0.00679183      -0.00256786
H        0.86342324       5.73467151       3.03809539      -0.00289008       0.00492989       0.00123155
H        1.89559669       5.37352948       1.63067878       0.00037242       0.00006199       0.00480062
H        4.45782762       6.87632090       3.61085065      -0.00506854       0.00688220       0.00936952
H        3.58954531       6.50973231       5.11382450      -0.01035943       0.00927822       0.00697955
O        6.03194242      11.26560337      12.03306080      -0.00609455       0.00617261      -0.00317895
C        7.26106138      10.36730193      10.18833980       0.00344494       0.00319859       0.00426400
C        6.36124568      11.53162348       9.74873060       0.01105121       0.00719086      -0.00075972
C        7.03590503      10.27975150      11.71060899      -0.00943840       0.00093505       0.00213289
C        6.18178952      12.28992107      11.05364657       0.00532185       0.00656318      -0.00108963
H        7.00783567       9.43727596       9.67852340       0.00509480       0.00501418       0.00027800
H        8.30039948      10.60052654       9.96267547       0.00600609       0.00014403       0.01347601
H        6.82090553      12.11664644       8.95439745       0.01900958       0.00543708       0.00263917
H        5.38934589      11.16801335       9.40870996       0.01192605       0.01131390      -0.00770968
H        6.66209166       9.31247567      12.04594309      -0.01795723       0.00243405      -0.00328040
H        7.95804228      10.51390378      12.24774758      -0.01236564      -0.00631294       0.01025704
H        7.06440668      12.90223203      11.28036130       0.00642514       0.00219691       0.00584580
H        5.29193141      12.92397565      11.09169690       0.00798938       0.01052667      -0.00653624
O        2.27738169      12.67914085       0.48901405      -0.00028038       0.01423094      -0.00578140
C        3.70800065      11.71049219       2.08567171      -0.00240546      -0.00152193      -0.01122710
C        3.66603612      10.75815957       0.89034217      -0.01540256       0.00258398      -0.01297016
C        2.40107295      12.44866567       1.93779955       0.00493181       0.01062526      -0.00436616
C        2.97655434      11.57358974      -0.19901838      -0.00109291       0.01523444      -0.01110733
H        3.77251055      11.19740461       3.04455978      -0.00564353      -0.00425155      -0.01303160
H        4.54295381      12.40199762       1.99750587       0.00397232      -0.00999132      -0.01109256
H        4.65743836      10.45449745       0.56045546      -0.02026990      -0.01138461      -0.01348278
H        3.07908790       9.87094906       1.13170022      -0.02937093       0.01176250      -0.01557914
H        1.54769192      11.84615607       2.26395538       0.00061005       0.01785287      -0.00337808
H        2.38019547      13.42791527       2.42223788       0.01538486       0.01035284      -0.00424473
H        3.69173024      12.02548480      -0.88384002       0.00676769       0.01765056      -0.00046779
H        2.23020387      10.99981600      -0.75269745      -0.00079024       0.02625687      -0.02236779
O        2.59235685      11.47254090       7.01205210      -0.00440019       0.00779384       0.00824726
C        3.00465332       9.62959737       8.39270310      -0.00515535       0.00345981       0.00332630
C        2.39220524       9.09945981       7.09734141      -0.00380060       0.00773060       0.00086047
C        2.50445216      11.06389285       8.37431197      -0.00441906       0.00383645       0.00716278
C        2.49138362      10.31523495       6.17083916      -0.00071573       0.01014304       0.00453760
H        2.68794721       9.08105429       9.27956760      -0.00695291       0.00089043       0.00116155
H        4.09624693       9.60681192       8.34265273      -0.00508797       0.00281470       0.00496466
H        2.91485587       8.23208800       6.69590880      -0.00451542       0.00789341      -0.00034728
H        1.35024052       8.81505263       7.24647088      -0.00448769       0.00888232      -0.00139925
H        1.45960793      11.11133142       8.71421883      -0.00437945       0.00345342       0.00731093
H        3.10377046      11.75632711       8.96922804      -0.00406015       0.00173941       0.00928843
H        3.39394764      10.27953528       5.55063214       0.00168574       0.01199056       0.00767636
H        1.62018089      10.41565177       5.51692011       0.00178671       0.01187325       0.00150684
O        9.20796137       7.92450505      11.86141918      -0.00057584       0.00702628      -0.00381589
C       11.20807333       7.47461061      10.71877130       0.00139534       0.00007597       0.00201964
C       11.51034946       8.50133074      11.80811890      -0.00027704       0.00459728      -0.00174825
C        9.71240792       7.67705496      10.54316853       0.00175291      -0.00006990      -0.00147504
C       10.27828245       8.38893404      12.69990630      -0.00130105       0.00777666      -0.00305448
H       11.77195724       7.63932463       9.80069913       0.00317657      -0.00458618       0.00234802
H       11.40924934       6.45921848      11.07709001       0.00035353       0.00172874       0.00711244
H       12.43369158       8.31020936      12.35281891      -0.00089791       0.00755076       0.00031343
H       11.56254763       9.50743468      11.38726299       0.00013047       0.00285861      -0.00581370
H        9.52115567       8.54820429       9.90374673       0.00330073      -0.00332838      -0.00638407
H        9.18783552       6.80834872      10.14658730       0.00225475      -0.00185871       0.00165990
H       10.43205880       7.65056656      13.49834486      -0.00277989       0.00934574      -0.00117213
H       10.00594852       9.34798613      13.14424156      -0.00104320       0.00903273      -0.00588185
