196
Lattice="12.710630593841081 0.0 0.0 0.0 12.710630593841081 0.0 0.0 0.0 12.710630593841081" Properties=species:S:1:pos:R:3:forces:R:3 energy=-419708.0 stress="-0.00033392402110621333 -0.001220071455463767 0.00010975696568493731 -0.001220071455463767 -0.0031359728891402483 0.0005725770024582744 0.00010975696568493731 0.0005725770024582744 -0.0008589521166868508" pbc="T T T"
Gd      11.16314421      12.78265718      -0.95902934      -0.02072471      -0.00484371      -0.00715092
O        7.26516156      12.73290803       4.13720460       0.00581741       0.01273775      -0.00553466
O        7.15947766      10.47705510       4.23615010       0.00205541       0.01347494       0.00051498
C        9.27033229      11.48121348       4.02853752       0.00493193       0.01004469       0.00270399
C        9.88385210      10.29569630       3.62830591       0.00449130       0.00574735       0.01551858
C       10.07011689      12.55858942       4.40799474       0.00577522       0.01359499      -0.00960990
C       11.26986492      10.18209803       3.61252777       0.00430954       0.00515500       0.01491730
C       11.45726460      12.43823439       4.42784443       0.00573069       0.01356846      -0.00989357
C       12.06303648      11.24829035       4.03154000       0.00506708       0.00939080       0.00201820
C        7.74078015      11.57497403       4.13113705       0.00471950       0.01177417      -0.00080928
H        9.24040394       9.46147273       3.37276957       0.00413261       0.00340945       0.02489674
H        9.57115251      13.47487457       4.70085754       0.00670168       0.01704963      -0.01938535
H       11.73637070       9.24102819       3.33863899       0.00352872       0.00243098       0.02392944
H       12.07757841      13.25985623       4.76759612       0.00640512       0.01713081      -0.02035033
H       13.14030004      11.14863358       4.09820430       0.00524378       0.01052229       0.00027960
O        2.94176439      12.82869871       3.94579763      -0.01940894       0.00806928       0.01123758
O        3.12085002      10.97095719       5.16532379      -0.01425189       0.01150310       0.01351166
C        4.27384701      11.06153084       3.08788599      -0.01871789       0.00840938       0.01075923
C        4.46736292       9.68677227       2.98916228      -0.02104458       0.01042923       0.01029152
C        4.89644913      11.88932659       2.16042285      -0.01716524       0.01008910       0.01064111
C        5.23945576       9.15316422       1.96347639      -0.02214566       0.00831154       0.01017478
C        5.70567334      11.36749426       1.16623961      -0.01790696       0.00699963       0.01054387
C        5.87244774       9.99337719       1.05557564      -0.02061661       0.00924043       0.01026440
C        3.39143099      11.66298230       4.15474697      -0.01738930       0.01073539       0.01045871
H        3.99976157       9.03699770       3.71901049      -0.02282908       0.00969017       0.00961487
H        4.76510517      12.95491571       2.24684997      -0.01521989       0.00845022       0.00936265
H        5.34529864       8.07907324       1.88289477      -0.02430361       0.00914808       0.00929497
H        6.21520091      12.02729894       0.47981645      -0.01622560       0.00812283       0.01175936
H        6.49059353       9.58761954       0.26367883      -0.02102884       0.00709208       0.01076812
O        9.29685410      12.50310573      12.82505644      -0.02623793      -0.01322475      -0.01700830
O        7.57401837      12.26749676      11.40173710      -0.02594423      -0.01804507      -0.01421857
C        9.38677818      10.70254898      11.32233247      -0.01407523      -0.00809985      -0.01718695
C        8.97883447      10.13249198      10.11590410       0.00292268      -0.00393241      -0.01495467
C       10.65391614      10.34622424      11.86219208      -0.01452472      -0.00576916      -0.00411235
C        9.81899957       9.27252814       9.42778958       0.00756262      -0.00152573      -0.01739037
C       11.50585708       9.51067797      11.14262735      -0.00639939      -0.00368766      -0.00374198
C       11.09311134       9.00140348       9.91777154       0.00529643       0.00137436      -0.00522584
C        8.62911773      11.85235565      11.90967635      -0.00378853      -0.01572090      -0.00582398
H        8.00792557      10.39420548       9.71654922       0.00256965      -0.00669044      -0.02648199
H       10.89607223      10.59350341      12.90286869      -0.02154621      -0.00974126      -0.00379764
H        9.49118838       8.83809474       8.49452182       0.01617718       0.00224151      -0.01863864
H       12.46825670       9.22996490      11.55339193      -0.00850181      -0.00231906       0.00472296
H       11.76177963       8.36697400       9.35204083       0.01061649       0.00417341      -0.00420886
O        9.73057424       1.33014306      10.31187434      -0.02426994      -0.00035603      -0.00070143
C        9.66400006       2.70926145      10.77470820      -0.01326376      -0.00107470       0.00648798
C        9.61344196       2.79162371      12.28543748       0.00232935      -0.00857404       0.00686955
H       10.56418870       3.17651183      10.37530355      -0.01613323      -0.00220666      -0.00047619
H        8.79337594       3.18265511      10.31809478      -0.01626542       0.00449708       0.01837869
H        9.60886275       3.83157362      12.61229749       0.01072026      -0.00994223       0.01010767
H        8.72781444       2.29649989      12.68001232       0.00393870      -0.00572529       0.01383252
H       10.51270392       2.33200317      12.74203934       0.00524252      -0.01387089      -0.00383294
H        8.82695210       0.95952159      10.32506990      -0.02276134       0.00741935      -0.00451008
O       10.30668714       6.76987930       4.46687808       0.00037521       0.01248360      -0.00105262
C       10.90130744       6.51572713       5.73596929       0.00343370      -0.00001724      -0.00532341
C       11.92478151       7.57519237       6.06793903       0.00001198      -0.00043970       0.00571863
H       10.11711355       6.48178599       6.49908025       0.00529373      -0.01308529      -0.00403315
H       11.36809145       5.52482610       5.71779757       0.00842825       0.00262338      -0.01798782
H       12.40518069       7.37420049       7.02771101       0.00252086      -0.01132772       0.00206207
H       12.71841037       7.61178508       5.32342878      -0.00157434       0.01156314       0.00477633
H       11.45744733       8.56013394       6.09982787      -0.00317857      -0.00243600       0.01877582
H        9.38668135       7.03079323       4.67544769      -0.00264907       0.00069671       0.00165516
O        3.90795075       5.98343731       1.85695492      -0.01617992      -0.01229198       0.00856298
C        2.71628546       6.13922578       1.10392961      -0.00485528       0.00342572      -0.00446719
C        1.92284992       7.34806216       1.55849524      -0.00418797       0.00549954      -0.00777772
H        3.02022611       6.25007005       0.05836614       0.00956134       0.00984082       0.00072378
H        2.10839375       5.22781313       1.17596165      -0.01235041       0.00700855      -0.02085982
H        1.00757505       7.46662085       0.97493684       0.00040177       0.00676657      -0.01470470
H        1.64464075       7.24049195       2.60933676      -0.01285837       0.00718471      -0.00996462
H        2.53010394       8.24676685       1.46173018      -0.00282311       0.00495259      -0.00347568
H        3.60926738       5.72922034       2.74794828      -0.02909762      -0.03526928      -0.00122227
O        5.36335187      10.57943152      10.26173185      -0.00179321      -0.00798976       0.01237637
C        4.96300294      10.52433832       8.89252769       0.00291526      -0.00828394       0.00953776
C        3.59412300      11.13757405       8.67225399       0.00679976      -0.00224683       0.00604375
H        5.70312476      11.00411242       8.24319732       0.00727478      -0.01096147       0.01279646
H        4.94316046       9.46718628       8.61418027      -0.00144370      -0.00752604       0.00849209
H        3.28369068      11.02362392       7.62991477       0.00865482      -0.00248389       0.00559643
H        2.86363540      10.64339348       9.31777177       0.00389962       0.00137910       0.00532146
H        3.60774132      12.20379023       8.89586903       0.00985686      -0.00214761       0.00465400
H        5.99533559      11.29291498      10.41120454       0.01175040      -0.02517308       0.01164016
O        0.72298067      12.70651160      -0.26491358      -0.01442432       0.01199299      -0.02145837
C        1.07113540      12.33820460       1.13820113      -0.01566464       0.01298712      -0.02167791
C        1.43482051      10.88449452       1.23519294      -0.00563103       0.01564491      -0.02232738
H        1.87593398      12.99341107       1.47025439      -0.02180916       0.01890886      -0.01856820
H        0.17246072      12.57747971       1.71449412      -0.01931998       0.00481215      -0.02369900
H        1.70689362      10.65410701       2.26402718      -0.00816768       0.01602430      -0.02180567
H        0.60111640      10.23883776       0.95479735      -0.00050221       0.01129127      -0.02668472
H        2.30655110      10.65011236       0.62054444      -0.00202087       0.02174820      -0.01937957
H        1.53161953      12.62538891      -0.78615588      -0.01367849       0.01374537      -0.02053308
O        6.13728949       2.14824060      11.89171759       0.02002698      -0.01481473      -0.01664343
C        4.72189150       2.28263134      12.00610009       0.01967055      -0.01031212      -0.00216424
C        3.97815018       1.63216028      10.85667442       0.00692828      -0.01180196       0.00745410
H        4.36553972       1.87468781      12.95776480       0.02998361      -0.00879332       0.00159729
H        4.52981830       3.35676990      12.02319289       0.02199167      -0.01041454      -0.00242024
H        2.90351604       1.82475610      10.94624488       0.00843328      -0.00825127       0.01895943
H        4.30628595       2.01829079       9.89225488      -0.00325955      -0.01440911       0.00311232
H        4.13829176       0.55048809      10.85528790       0.00527659      -0.01207030       0.00872462
H        6.37215832       1.20911522      11.89237927       0.01590174      -0.01226711      -0.01605992
O        2.11207575       8.65537384       5.99900522       0.00030425      -0.00096962      -0.02485818
C        2.67140157       7.98603170       7.10092921      -0.00398999       0.00508642      -0.01901919
C        4.00890953       7.33771488       6.79156671       0.00079054       0.01068613      -0.00950629
H        2.77746774       8.65570321       7.96647698      -0.01226348       0.00876117      -0.02109259
H        1.95046351       7.21388970       7.39038831      -0.00150391       0.00238389      -0.02053057
H        4.39132545       6.79706264       7.66152058      -0.00208812       0.01342793      -0.00658807
H        3.89967606       6.63004817       5.96656927       0.00852529       0.00922792      -0.00917086
H        4.75154207       8.08595309       6.50863024      -0.00100334       0.01347318      -0.00639606
H        2.63571432       9.44828097       5.74709029      -0.00839814       0.00841406      -0.01397569
O        9.17529255       6.39562699       9.44886664       0.00251734      -0.00368325       0.01649135
C       10.45510512       5.79236645       9.32631072       0.00381973       0.00056215       0.00898519
C       11.17637624       5.73648275      10.65705572       0.01070419      -0.00011469       0.00500196
H       10.36601466       4.79653327       8.86787131       0.00466299       0.00129426       0.00732933
H       11.00543685       6.40408897       8.61292938      -0.00157148       0.00359464       0.00770527
H       12.16647676       5.27960678      10.57296827       0.01426713       0.00947662      -0.00299197
H       11.29502832       6.73565696      11.07163106       0.00338427      -0.00087461       0.00885243
H       10.60292326       5.16052855      11.38145182       0.01939179      -0.00862612       0.00514129
H        8.64746951       5.88753694      10.07367002       0.00481930      -0.01032797       0.01257125
O       10.28001718       7.92133299       0.81605155       0.00521034      -0.00672185       0.01658651
C       10.02306551       6.59047347       1.26250749       0.00211513      -0.00942248       0.00600828
C       11.29278135       5.83826095       1.59664187      -0.00019664      -0.01337568       0.00605451
H        9.36494786       6.60728572       2.13154636      -0.00054964      -0.01434422       0.00398177
H        9.48325576       6.10835501       0.44272380       0.00421919      -0.00301112       0.00087789
H       11.06201633       4.83245703       1.95450380      -0.00325853      -0.01414341       0.00174157
H       11.94693078       5.76639950       0.72650428       0.00213178      -0.01164578       0.00784688
H       11.82061073       6.35156448       2.39829800      -0.00161790      -0.01736940       0.00944355
H       10.41288409       8.46450275       1.60005681       0.00540251      -0.01381319       0.02155459
O        5.08558049       1.14255031       7.66751157      -0.00434041      -0.00124705      -0.01254082
C        6.39886349       1.07591170       8.20992755      -0.00950336      -0.00390664      -0.00216883
C        7.45177089       0.90502417       7.14288023      -0.00056937      -0.00946194       0.00779665
H        6.52971328       2.00534384       8.77105532      -0.01131202      -0.00305402      -0.00352959
H        6.47362348       0.26172612       8.94429241      -0.01874051      -0.00246626       0.00107646
H        8.45691644       0.93363327       7.56556888      -0.00417382      -0.01066979       0.01614349
H        7.33093179      -0.04533336       6.62074233       0.00146262      -0.01028720       0.00904508
H        7.35325043       1.67437581       6.37693848       0.00805665      -0.01058879       0.00557426
H        5.01038828       0.48241799       6.96838907      -0.00361192      -0.00770698      -0.00702268
O        5.72773007       5.24960300      10.58125430       0.00899476       0.00185743       0.00909638
C        6.54403490       5.49339236      11.72611910      -0.00069347       0.00737607       0.01483761
C        6.74796524       6.97151992      11.96252872      -0.00065190       0.00824624       0.00859088
H        6.11339170       5.01016677      12.60991289      -0.00919288       0.01294783       0.01372588
H        7.48683170       4.97407677      11.52322714       0.00048530       0.00565262       0.02577923
H        7.40111826       7.14973977      12.81754186      -0.00650011       0.01169086       0.01229438
H        7.18411405       7.45960063      11.08880353       0.00642061       0.00270316       0.00919595
H        5.79014462       7.45008745      12.17862969      -0.00149840       0.01081639      -0.00127134
H        4.99750342       5.87551774      10.61502003       0.00952210       0.00283402      -0.00043644
O        8.29533293       4.42397224       6.11727661      -0.01014078      -0.00398487      -0.00213277
C        7.64808722       4.37249113       7.39627951      -0.00374579       0.00256976       0.00121104
C        6.14302403       4.33441544       7.28867683      -0.00416583       0.00158309       0.00822261
H        8.02626989       3.51023340       7.95819453      -0.00115950       0.00508863       0.00348154
H        7.97457294       5.27625483       7.90772452      -0.00129388       0.00469887      -0.00412449
H        5.70622114       4.42870582       8.28356480       0.00048976       0.00474484       0.00988826
H        5.79472106       5.16860238       6.67904051      -0.00767679      -0.00098445       0.00682750
H        5.78746710       3.40346052       6.84920057      -0.00531892      -0.00024849       0.01303793
H        7.99975319       3.67337465       5.59120767      -0.01433723      -0.00583801       0.00301053
O        0.64577583       4.79529471       7.97241225       0.00557506      -0.00475448      -0.00959438
C        1.96414968       4.29186973       8.19930802       0.00491211      -0.00341475      -0.00380072
C        2.56671696       4.80503943       9.48970753      -0.00189278      -0.00244546      -0.00103015
H        1.96348538       3.19589266       8.18538927       0.00579199      -0.00331169      -0.00360810
H        2.55091339       4.62512206       7.34286636       0.00858550      -0.00319733      -0.00100929
H        3.57837141       4.41780204       9.61857992      -0.00140658       0.00037352       0.00307452
H        2.59937013       5.89669534       9.48548413      -0.00508665      -0.00242506      -0.00041869
H        1.98141692       4.48242929      10.35567540      -0.00457472      -0.00405946      -0.00363392
H        0.08997059       4.50598870       8.70029712       0.00034685      -0.01763789      -0.01881301
O        2.54092758       4.71310182       3.95059151       0.02060300      -0.03624617      -0.00401919
C        1.23412216       4.67252077       4.52109887       0.01745427      -0.01003391      -0.01149409
C        0.79517316       3.24644449       4.77918416      -0.00387059       0.00089091       0.00506434
H        1.25574254       5.24875937       5.44886546       0.02322882       0.00046107      -0.01859754
H        0.51760809       5.17098002       3.85566019       0.02776513      -0.00963870      -0.02185076
H       -0.19185007       3.22498399       5.24324574      -0.00055830       0.02280956       0.01198893
H        0.75179269       2.68742638       3.84194400      -0.02160569      -0.00688823       0.01095168
H        1.50382649       2.73280543       5.43047371      -0.00729536      -0.00214854       0.00585580
H        2.71318761       3.84609984       3.51677345       0.01095952      -0.04052767      -0.00146109
O       10.20985502      11.90897699       7.83203323       0.02976072       0.02442895       0.00426000
C       11.54124878      12.06377834       8.28032857       0.02787817       0.01686889       0.01220483
C       12.51035914      11.07701953       7.67099498       0.02898484       0.02166840       0.00653625
H       11.88457121      13.09699810       8.11796247       0.03102855       0.01797497       0.02516137
H       11.49583323      11.90551234       9.38433518       0.02235127       0.00436779       0.01026182
H       13.50217805      11.17490539       8.11102325       0.02839729       0.02040195       0.00774102
H       12.16211389      10.05767453       7.81527456       0.02997375       0.02030815      -0.00024445
H       12.60888398      11.24352907       6.60023001       0.03020980       0.02935718       0.00775295
H       10.21156761      11.89417295       6.86473579       0.03551252       0.02517449       0.00435400
O        7.79344345       7.08184208       5.40198218      -0.00205630      -0.00811593      -0.01064163
C        6.94252583       7.25157425       4.26043980      -0.00571226      -0.00007960      -0.00657767
C        6.87417578       5.97952626       3.44280680      -0.01576597       0.00338358      -0.01045451
H        5.94364976       7.54918605       4.59079221      -0.00278181       0.00348400      -0.00171074
H        7.33541541       8.10397759       3.70431925      -0.00345168      -0.00065976      -0.00577712
H        6.33560886       6.13177157       2.50752134      -0.02223483       0.00871542      -0.00569259
H        7.87830433       5.61024316       3.22163557      -0.01864983       0.00098655      -0.01867063
H        6.34862898       5.19931172       3.99611112      -0.01523177       0.00330241      -0.01003861
H        7.83504248       6.13084781       5.60861728      -0.00714728      -0.00865884      -0.01163722
O        3.37019516       2.42097911       2.71697358       0.01563483      -0.02045846      -0.00337243
C        4.75834128       2.75789979       2.78760334       0.01301211      -0.01184796       0.00250924
C        5.26700753       2.71113331       4.20926947       0.01504593      -0.01969918       0.00146109
H        5.35108529       2.08326348       2.16269150       0.01882234      -0.00184041      -0.00308749
H        4.85075176       3.75720041       2.35623713       0.00638099      -0.00745434       0.01164600
H        6.33951716       2.91186924       4.22415730       0.01327938      -0.01036339      -0.00003170
H        4.74686568       3.44693224       4.82244656       0.01117367      -0.02886422       0.00893433
H        5.12248852       1.71703515       4.63061371       0.02734943      -0.02489710      -0.00703533
H        3.24531079       1.54357523       3.17341970       0.01115862      -0.01804294       0.00378517
