200
Lattice="17.65084021809722 0.0 0.0 0.0 17.65084021809722 0.0 0.0 0.0 17.65084021809722" Properties=species:S:1:pos:R:3:forces:R:3 energy=-1726118.875 stress="-0.0006006694165989757 8.584190072724596e-05 0.00028927465609740466 8.584190072724596e-05 -0.0006571889971382916 0.00019758698908844963 0.00028927465609740466 0.00019758698908844963 -0.0007855665171518922" pbc="T T T"
Gd      18.00608589      17.64165190      -0.42856254       0.00651197      -0.01858447      -0.00319453
S       15.39525857      16.54517912      16.88190286      -0.01977106      -0.00943118      -0.00621256
O       16.60594501      16.36112342      15.99775242       0.00684881      -0.00868027      -0.01239416
O       15.87236417      17.59756243      17.85812124       0.00973164      -0.00239316       0.00843644
O       14.92322452      15.33658827      17.47672858      -0.00412148      -0.00418961      -0.00524756
C       14.12171837      17.26905777      15.91896349       0.00549245       0.00921914       0.00165829
H       13.85082115      16.55118173      15.14631639      -0.00345335       0.00975955       0.00152341
H       13.27903655      17.43695699      16.58717710       0.00534438       0.00948576       0.00470448
H       14.47195114      18.20163144      15.48211649       0.00585643       0.00286812       0.00484258
S        6.19662515      14.69652030       3.59033895       0.00210136      -0.00106889       0.00171041
O        4.86328716      14.26416860       3.13472791       0.00183630       0.00423062      -0.00515199
O        7.08069400      13.56248742       3.84560643      -0.00340974      -0.00595975      -0.00163704
O        6.13633733      15.67567999       4.66905474       0.00123371      -0.00637829       0.00562501
C        6.90395026      15.55722880       2.19563552       0.00829798       0.00232798       0.00741661
H        6.23281541      16.36477276       1.91006810       0.01333710       0.00806956       0.01173683
H        7.87041593      15.95385567       2.49720990       0.01038542      -0.00515896       0.01056194
H        7.01725723      14.85602388       1.37268925       0.00494363       0.00594038       0.00395834
S        9.76503844      15.48774074      11.95567179       0.00144875       0.00462776       0.00055248
O       11.04601264      16.08384951      11.54968574       0.00240397       0.00278604       0.00145161
O        9.40617380      15.74742442      13.33619590       0.00031072       0.00686222       0.00006342
O        9.64980011      14.07311591      11.56002708       0.00003417       0.00480056       0.00216329
C        8.54071577      16.31948437      10.95013057       0.00355506       0.00534970      -0.00133067
H        8.74456197      16.04388223       9.91847772       0.00477649       0.00468134      -0.00082752
H        7.55383328      15.97134380      11.24538630       0.00290070       0.00645021      -0.00255483
H        8.63471756      17.39208695      11.10547902       0.00430233       0.00529113      -0.00178576
Cl       5.09721283      10.37744965       1.00138815       0.00882221      -0.00101575       0.00415988
Cl       5.90126200      12.82710196      -0.34135913      -0.00704910       0.00591980       0.00688297
Cl       3.24415134      12.62427867       0.86766084      -0.00698197      -0.01453848       0.00227366
C        4.94113136      12.14846534       0.98548855      -0.00381464      -0.00232681       0.00495365
H        5.31439235      12.55017752       1.92193768      -0.00756344      -0.00001383       0.00537634
Cl      10.26397708      11.31419750      10.77027523      -0.00458726       0.00111842      -0.00237066
Cl      10.28184980       8.74423136      12.14084196       0.00276363       0.00546047       0.00590649
Cl       9.20247824       8.93848207       9.43046655      -0.01278287      -0.00307915       0.01279840
C       10.39667387       9.58174644      10.57499938      -0.00554729       0.00061737       0.00272379
H       11.37252192       9.35479309      10.16274603      -0.00792646      -0.00080281      -0.00192128
Cl       3.77561475       2.58560877      14.66357716      -0.00086965       0.00559525       0.00122459
Cl       2.95073322       1.49610983      17.26158402       0.01099743      -0.01713189      -0.00591877
Cl       4.99437678       3.57563972      17.12816473      -0.00800266       0.00277428       0.00610989
C        3.54517086       2.98387604      16.34666165      -0.00323079      -0.00680536       0.00413601
H        2.74715648       3.71350903      16.44663157      -0.00641534      -0.01097012       0.00823537
Cl       4.76491156      11.09123259       4.76624244       0.00313261      -0.00372612      -0.00008830
Cl       4.09387924      13.42394604       6.37272799       0.00342619      -0.00417864      -0.00008409
Cl       2.14118152      12.31578481       4.49137335       0.00424105      -0.00257242      -0.00080597
C        3.47462111      11.96024780       5.60107044       0.00310977      -0.00389884      -0.00025211
H        3.08620754      11.31626389       6.38148087       0.00278071      -0.00383744      -0.00056469
Cl       8.67596163       9.13556856      18.47141705       0.00324625      -0.00454125       0.00669461
Cl       9.32859735       9.73290185      15.68798513       0.01458968      -0.00124621       0.01029342
Cl       9.94253193      11.67491596      17.78147069      -0.00907725       0.00274676       0.01391973
C        9.80162646       9.95871690      17.37839724       0.00393060       0.00175915       0.01262104
H       10.77679993       9.50525986      17.50692554       0.00636324       0.00857431       0.01793811
Cl       0.94899238       7.70440070      14.59851212      -0.00206007      -0.00268966       0.00031844
Cl       0.58504900       4.99478280      15.59015732       0.00246973       0.00030059       0.01117720
Cl       1.62908373       5.42972196      12.88469013      -0.00587517      -0.00766937       0.00695303
C        1.56279009       6.05019732      14.53147339      -0.00131910      -0.00256902       0.00508310
H        2.57365772       6.05729163      14.92439292      -0.00052513      -0.00061871       0.00260156
Cl      12.10209642      15.20884040       1.47697659      -0.01796085       0.01517297      -0.00947058
Cl      14.37588580      16.07664166       3.09452702      -0.01149023      -0.01318147      -0.00365673
Cl      12.57136814      18.05291721       1.92235692       0.00783876       0.00816771       0.00340576
C       12.71422202      16.42131092       2.61010920      -0.00779015       0.00390767      -0.00387228
H       12.10089670      16.39434287       3.50389617      -0.00884578       0.00571760      -0.00410494
Cl       1.13197568      15.77980379       4.72451867       0.02571994       0.00168948      -0.00642750
Cl       1.78398160      16.25285872       1.04454670       0.00906470      -0.01110217      -0.00164428
Cl       3.64217233      17.03250561       4.12577751       0.00963157       0.03094643      -0.01115423
C        2.56107785      15.82940070       3.88395880       0.02590705       0.01295109      -0.00439952
H        2.87638558      14.99903914       3.25913179       0.04480571       0.01142666       0.00609425
Cl      12.27035603       3.44838681       7.58118033      -0.01009422      -0.01247436       0.00468272
Cl      11.35194699       5.88496176       8.91840308      -0.01509002      -0.01307681       0.00146657
Cl      14.04275957       4.84903901       9.41949818      -0.01222539      -0.00677876       0.00357099
C       12.72800206       5.02939961       8.22964253      -0.01294550      -0.01149711       0.00371963
H       13.11475779       5.62422249       7.40940910      -0.01254155      -0.01208065       0.00407514
Cl       3.10294327       7.46417804       1.97664427       0.01051193      -0.00766170       0.00972094
Cl       1.16696265       9.65141510       1.90885077      -0.00021139      -0.01484554      -0.00220814
Cl       1.98925570       8.49656618       4.46347591       0.00423153       0.00086187       0.00271961
C        2.48156247       8.90340992       2.81284091       0.00279729      -0.00543420       0.00112757
H        3.29311262       9.61879674       2.87281444      -0.00035325      -0.00156520      -0.00327586
Cl       5.19544595       3.93872131       3.79943526       0.00037610       0.00543320      -0.01031491
Cl       3.23797200       5.14413085       5.60378282       0.00237530      -0.00396863      -0.00374145
Cl       5.46445017       3.59196008       6.68524470       0.00810956      -0.00008026      -0.01078972
C        4.92638438       4.67842965       5.39464561       0.00296750       0.00054389      -0.00796201
H        5.53526211       5.57340458       5.44579501       0.00178240       0.00112495      -0.00771156
Cl      16.58886099      12.19264908       0.16289259       0.00354937      -0.00286667       0.00624016
Cl      14.70320881      11.56970488       2.29291490      -0.00585198       0.00901738       0.00143111
Cl      16.87182718      13.46841540       2.76569636      -0.00108430       0.00328935       0.00380549
C       15.72526289      12.81845616       1.57614695       0.00109535       0.00357247       0.00162394
H       15.09861629      13.63876898       1.25206130       0.00465688       0.00470778      -0.00276768
Cl       4.08548368       8.13016525      11.34972967      -0.00144660      -0.00134587      -0.00811145
Cl       3.93321400      10.15159631      13.43980689      -0.00098076      -0.01394674       0.00494739
Cl       2.56048460      10.59353609      10.90109527       0.00319981       0.00051764       0.00597888
C        3.08804938       9.39439455      12.08913472      -0.00074971      -0.00651278       0.00009874
H        2.19952934       8.91686624      12.47999286      -0.00039914      -0.00860281      -0.00121742
Cl       8.48158341      15.65471392       6.82841584      -0.00169340      -0.00726217       0.00938877
Cl       7.32923977      18.30706328       6.37482322       0.01977084      -0.00147495      -0.01038721
Cl       5.97246789      16.39953539       8.11407490       0.00068504       0.01905224      -0.00258094
C        7.53848515      16.96934549       7.51458608       0.00653414       0.00424658      -0.00162151
H        8.08578894      17.35356557       8.36574291       0.00712864       0.00516388      -0.00245529
Cl      15.67587953       6.09097270      12.39693890      -0.00503534      -0.00441334       0.00122368
Cl      16.78838477       7.73094299      10.25250804      -0.01265605      -0.01005939      -0.00654674
Cl      14.05031449       8.17317940      11.17334945      -0.00657216      -0.00313840       0.00575197
C       15.68794747       7.68506989      11.63797031      -0.00591244      -0.00535114      -0.00016990
H       16.04481179       8.40088178      12.36683789      -0.00079525      -0.00484216      -0.00305246
Cl       8.91821651       6.88015475       5.44737513      -0.00572994      -0.01029643      -0.00100034
Cl       6.63816242       7.84130726       3.88683362       0.00276801      -0.00027983      -0.00584645
Cl       7.67625447       9.42887456       6.10504645       0.00067507      -0.00616145      -0.00131702
C        8.08824123       8.30989103       4.81548141       0.00116557      -0.00627302      -0.00085374
H        8.75492257       8.81466005       4.12694204       0.00531366      -0.00793812       0.00211880
Cl       1.30222594       2.04756116       4.40133746      -0.01094283       0.00613466      -0.01050635
Cl      -0.04796600       1.75820286       1.82612080       0.00544000      -0.00152518      -0.01718387
Cl       1.73032478       4.03114788       2.30391505       0.00949918      -0.00460799      -0.01655155
C        1.46259643       2.35091373       2.69121140       0.00155500      -0.00167305      -0.01054060
H        2.27521908       1.74928381       2.29649506       0.00227679      -0.00606856      -0.00249518
Cl      14.02075665       2.51820127      13.17109191       0.00145038      -0.00577752       0.00677010
Cl      16.29088602       2.38007169      11.35193207      -0.00219133       0.00279011       0.00226204
Cl      14.87604665      -0.06759183      12.11822104       0.00781877      -0.00237054       0.00419281
C       14.73050404       1.67043757      11.79020024       0.00139196      -0.00267632       0.00531827
H       14.06676989       1.78504529      10.94148923      -0.00071308      -0.00507430       0.00682436
Cl      10.16988670      11.24382407       3.97142688      -0.00120278      -0.00391099       0.00478508
Cl      10.04093455      12.32683401       6.68110584      -0.00933681       0.00699598      -0.00025785
Cl      10.59907239      14.07802749       4.42249154       0.00449041      -0.00347850      -0.00472347
C        9.71876282      12.63510939       4.97456336      -0.00145361       0.00112168      -0.00279139
H        8.66119630      12.84120624       4.82190609      -0.00046492       0.00309631      -0.00754809
Cl       6.39768040       4.93016619      13.48631072       0.00281657       0.00282134       0.00159675
Cl       7.77275929       6.21532944      11.24769411       0.00147215      -0.00249434      -0.00369183
Cl       8.29128202       3.40700416      11.85985547      -0.00888264      -0.00387351      -0.00021878
C        7.09028480       4.71365977      11.86532781      -0.00317046       0.00093856      -0.00046953
H        6.28243324       4.41077781      11.21061641      -0.00552890       0.00479584       0.00074314
Cl      14.79390257      12.76618359      13.94821733       0.01242357       0.01881987       0.01956260
Cl      12.65512377      14.71613476      13.57089317      -0.00018591       0.00319350       0.00624272
Cl      11.99578294      11.92318252      13.82558422       0.02200270      -0.00432003      -0.02273104
C       13.11671570      13.20927140      14.33117484       0.00400156       0.00253403       0.00173257
H       13.04590846      13.29707931      15.40844554      -0.01084047      -0.00573322       0.00081092
Cl      13.14791759      10.83724410       8.75099662       0.00623630       0.00136052       0.00629994
Cl      15.54188949      11.67650627      10.18297760       0.00070333       0.00362279       0.01338053
Cl      13.20854123      13.43462432      10.07231968       0.00076079       0.00295359       0.00321038
C       13.76911971      11.78315668      10.13268862       0.00096725       0.00331463       0.00709700
H       13.38804885      11.31786962      11.03428369      -0.00202745       0.00449741       0.00629210
Cl      16.19794847       8.22239053       0.07595998      -0.00284222      -0.01402516      -0.00192076
Cl      14.12325930       7.68083848       2.04805493      -0.00460482      -0.00703228      -0.00160333
Cl      16.50604990       5.98780839       1.91041464       0.00464341       0.00373882       0.01858427
C       15.86119753       7.62702002       1.70115698      -0.00378871      -0.00176153       0.00248139
H       16.36446723       8.27133801       2.41185450      -0.00950135       0.00743909      -0.00214559
Cl      11.98707039       4.12574784      15.59151707      -0.00761786      -0.00138993      -0.00474980
Cl       9.80005701       5.95285602      14.94417486      -0.00401503       0.00092703      -0.00890708
Cl      12.00864204       5.60948638      13.07132732      -0.00541016      -0.00834179      -0.00845090
C       10.99587014       4.83187465      14.28796335      -0.00654593      -0.00296970      -0.00619093
H       10.46212994       4.02051006      13.81082635      -0.00864983      -0.00285295      -0.00372344
Cl      13.34851254      10.37456714      16.82300697      -0.00064438      -0.00374812       0.00049099
Cl      14.95451336       9.13348931      14.73551898       0.00152749       0.00403186      -0.00151898
Cl      12.89139946       7.58927265      16.11251227       0.00183479      -0.00226280      -0.00825927
C       13.36293930       9.17979974      15.52165209       0.00094029      -0.00022511      -0.00276025
H       12.64735472       9.49638955      14.77311685       0.00126839       0.00161774      -0.00213251
Cl      17.68942748       1.50225500       7.72926966      -0.00369412      -0.00249407      -0.00184301
Cl      15.70500516       0.87409735       5.67161830      -0.00041345      -0.01603423      -0.00021121
Cl      15.03477416       0.54632852       8.48081884      -0.00316267      -0.00071159       0.00085860
C       15.96118903       1.48504272       7.31019629      -0.00310545      -0.00644135      -0.00349890
H       15.60693536       2.50815112       7.34453350      -0.00397728      -0.00663951      -0.01002416
Cl      16.58109055       7.20635785       6.56903754       0.02129807       0.01009259      -0.01797865
Cl      14.51701958       5.70978377       5.15235656      -0.00330567       0.00968764       0.01939464
Cl      17.14626692       4.52964689       5.56764352      -0.00931203      -0.00757568       0.01060480
C       15.91628426       5.60625197       6.23579400       0.00546287       0.01120140       0.00816253
H       15.57995481       5.18268169       7.17665204       0.01094529       0.02697815       0.01709759
Cl       1.31288490      11.01218027      15.76298173      -0.02216167       0.00766817      -0.02094500
Cl       3.02283279      13.25515709      14.99825190      -0.00371581       0.00058737       0.00240819
Cl       0.60376075      12.68393126      13.47637460       0.00191154       0.02638051      -0.01514339
C        1.36619139      12.64318750      15.07329478      -0.00827947       0.01132181      -0.01100259
H        0.79926852      13.28899893      15.73393904      -0.00847408       0.01074259      -0.01081219
Cl       5.66593992      13.81299610      11.20554066      -0.00061727       0.00917432       0.00689243
Cl       6.73274106      11.11163323      11.37739889      -0.00479931       0.00836003       0.00961165
Cl       7.23402574      12.72103569       8.99845104      -0.00585202       0.00371017       0.00647086
C        7.01782760      12.74461224      10.76106429      -0.00288936       0.00675400       0.00663679
H        7.93463478      13.14749724      11.19732531      -0.00137597       0.00573921       0.00446475
Cl       0.19430173       1.35834794      14.59165564       0.00548491       0.00104645       0.00580184
Cl       1.50927191       0.14518545      12.27312202      -0.00592167       0.01122821      -0.00583406
Cl       1.82463969      -1.06030759      14.90102973      -0.00879154      -0.01209866      -0.01710232
C        0.72966562      -0.17397089      13.77711775      -0.00520536       0.00484067      -0.00768745
H       -0.16240009      -0.77992925      13.64948351      -0.00976059       0.01176414      -0.01072671
Cl       3.07751212       0.57605350       9.43231846      -0.00563206       0.00043026      -0.00894203
Cl       3.84448013       3.15956759      10.54782482      -0.00164755      -0.00207260      -0.00675621
Cl       5.21350957       0.73866071      11.41955938      -0.00539456      -0.00472449      -0.00916183
C        4.41465491       1.54389394      10.07384752      -0.00388598      -0.00230918      -0.00826675
H        5.13382116       1.66575614       9.27268905      -0.00411034      -0.00268519      -0.00814334
Cl      11.77608251      17.64198481       6.17243649      -0.00559837       0.00033069      -0.00165305
Cl      13.60745402      15.44727803       6.75952233      -0.00725883      -0.00000128      -0.00145695
Cl      11.75910814      16.38458430       8.82885830      -0.00380446       0.00231005      -0.00042772
C       12.01575554      16.13924144       7.11232888      -0.00616375       0.00105869      -0.00051224
H       11.27852994      15.43349575       6.75371485      -0.00722152       0.00158465       0.00088760
Cl      -0.37585698      15.12306904       8.30837470       0.00360340      -0.00381689      -0.01394616
Cl       1.95459117      14.44249839       9.93495995      -0.01202598      -0.00406829       0.00769180
Cl       0.83308562      12.46905130       8.10164573       0.00173840      -0.00565687       0.00133090
C        1.12687646      14.19313138       8.39559483       0.00142671      -0.00577828       0.00075954
H        1.78464302      14.53917262       7.60789925       0.00881962      -0.00803133       0.00592582
Cl      16.82161700      10.39340368       5.24899873       0.00087625       0.00858669      -0.00308356
Cl      14.87774437      12.43541456       5.98041545      -0.00266102       0.00224376       0.00327927
Cl      13.97344776       9.73814222       5.34104628       0.00294343       0.00108835       0.00160986
C       15.27277923      10.72084075       6.04147057       0.00168022       0.00333735       0.00036355
H       15.36661507      10.43777499       7.08307036       0.00440589       0.00214681      -0.00025421
Cl       2.60699965       8.22653816       7.86437341       0.00472260       0.00107045      -0.00038218
Cl       4.91975465       9.96920700       8.24007848       0.00658630      -0.00205159       0.00142008
Cl       5.29095921       7.08455523       8.06241038       0.00277624      -0.00227562      -0.00268881
C        4.33112861       8.47327368       7.52116284       0.00466465      -0.00031923      -0.00047893
H        4.44102668       8.54957874       6.44458568       0.00456490       0.00123143      -0.00028825
