190
Lattice="14.136306393320716 0.0 0.0 0.0 14.136306393320716 0.0 0.0 0.0 14.136306393320716" Properties=species:S:1:pos:R:3:forces:R:3 energy=-421720.96875 stress="-0.0007909361738711596 2.906746794906212e-05 0.00031094443693291396 2.906746794906212e-05 -0.00022832673857919872 -3.831670255749486e-06 0.00031094443693291396 -3.831670255749486e-06 0.00015432699001394212" pbc="T T T"
Gd      13.59857318      13.52824508      -0.64708512       0.01565826       0.01107317      -0.00091791
Cl      11.85306333      14.73580621      11.43679673       0.00534418      -0.02681816       0.01945132
O       11.69212804      13.34918525      12.39590285       0.02084857      -0.03850675       0.00250724
O       14.92769262      12.73624494      12.57021722       0.00611317       0.01770675      -0.01688915
Cl       5.89558388      12.50581242       9.81732943       0.00490856      -0.00025308       0.01885182
O        6.95853372      13.41464269       9.26653004      -0.02410972       0.00684977      -0.00949311
O        5.57648077      12.69765427      11.26954581       0.00362328      -0.00591007      -0.01919162
Cl       5.65171928      13.98113972       6.56490507       0.00630319       0.00263828      -0.00895488
O        4.98636413      14.74893083       5.44772758       0.00280875       0.00044543      -0.01036656
O        5.39317701      12.49405764       6.55420388      -0.01662610       0.01162755       0.01377628
C        1.84068204      10.85396661       7.22556967       0.00202799       0.00217402       0.00138217
C        0.91628813       9.73015329       7.67966264       0.00060892       0.00302024       0.00033429
C        1.07767869      12.11468230       6.83564935       0.00336009       0.00291020      -0.00003896
C        1.63066747       8.43932377       8.06377812      -0.00135660       0.00153790      -0.00039158
C        1.97671500      13.24995912       6.36933594       0.00506651       0.00268269       0.00265127
C        0.67128719       7.36562987       8.55986353      -0.00367990       0.00349692      -0.00007752
H        2.55413947      11.09289225       8.02194563       0.00068982       0.00174774       0.00307626
H        2.44588168      10.52022928       6.37595726       0.00246155       0.00136827       0.00252241
H        0.19444230       9.51233161       6.88275700       0.00034721       0.00443447       0.00010297
H        0.32138281      10.07873520       8.53147654       0.00044221       0.00232343      -0.00029323
H        0.36016974      11.86272234       6.04630720       0.00557534       0.00326397      -0.00309715
H        0.48011757      12.44497598       7.68963397       0.00104591       0.00268966      -0.00258851
H        2.18839383       8.06219785       7.20059777      -0.00267847       0.00093493      -0.00048441
H        2.37733497       8.65385695       8.83570646      -0.00112623      -0.00004678      -0.00010151
H        2.67289662      13.54471919       7.15539110       0.00293501       0.00206788       0.00526311
H        1.39411860      14.13181068       6.09551286       0.00598967       0.00263827       0.00070555
H        2.57910109      12.96234521       5.50686674       0.00791216       0.00226244       0.00538628
H        0.13282886       7.70284357       9.44785197      -0.00213079       0.00402483       0.00043166
H       -0.07437662       7.12541583       7.79889073      -0.00501877       0.00576046       0.00034158
H        1.19298485       6.44252145       8.81518695      -0.00568500       0.00199266      -0.00126984
C       10.00242080       8.96936476       8.38196066      -0.00216526      -0.00237982       0.00214631
C       11.10216489      10.01477205       8.25971500      -0.00158119      -0.00205487       0.00521066
C       10.51649160       7.53447825       8.36651529      -0.00132221      -0.00226898       0.00040689
C       10.58098000      11.44668178       8.28581724       0.00053662      -0.00127076       0.00758954
C        9.40389240       6.50166752       8.49170609      -0.00101051      -0.00280157      -0.00212003
C       11.69124580      12.47292308       8.12167578       0.00204113      -0.00151882       0.01446965
H        9.44048336       9.14367655       9.30675374      -0.00313683      -0.00411295       0.00167477
H        9.28395543       9.10632614       7.56656969      -0.00154859      -0.00206722       0.00175592
H       11.65923000       9.85025829       7.32923482      -0.00108081      -0.00133682       0.00553113
H       11.82838937       9.87908476       9.06951634      -0.00333200      -0.00291238       0.00598612
H       11.07573538       7.36272844       7.43994270      -0.00040956      -0.00055404       0.00064081
H       11.23772331       7.40152422       9.17951616      -0.00201623      -0.00274963       0.00089195
H        9.83409062      11.57268436       7.49463818       0.00528312       0.00207202       0.00418735
H       10.05432199      11.62566530       9.22709588      -0.00520894      -0.00356090       0.00510520
H        8.84669570       6.63944590       9.42088243      -0.00161950      -0.00460045      -0.00215515
H        9.79095228       5.48176443       8.48635167      -0.00044332      -0.00246635      -0.00354506
H        8.69079722       6.59252719       7.66946101      -0.00035962      -0.00148628      -0.00237988
H       12.42147763      12.38975074       8.92991642      -0.00053295       0.00423635       0.01622277
H       12.21764674      12.32938824       7.17588459       0.00300138      -0.00215471       0.01562344
H       11.30248907      13.48997304       8.13986428      -0.00155152      -0.00292104       0.00918690
C        5.02893137       9.39487897       4.73714384       0.00270048       0.00157234      -0.00063765
C        3.75665413       9.02978417       3.98238757       0.00231194       0.00382721      -0.00100219
C        5.16682469       8.68821219       6.08138123      -0.00008741       0.00279444       0.00026026
C        3.58913599       9.79513757       2.67489819       0.00455371       0.00372556      -0.00134681
C        6.45646660       9.04616891       6.80621986      -0.00090858       0.00306682       0.00163746
C        2.27335624       9.48489372       1.97570526       0.00402763       0.00677536      -0.00143416
H        5.89797669       9.15687504       4.11077786       0.00257120      -0.00078670       0.00040369
H        5.05840202      10.47678392       4.90047252       0.00458098       0.00171161      -0.00143626
H        2.88585019       9.22012911       4.62150948       0.00261214       0.00586987      -0.00162838
H        3.74474961       7.95305036       3.77400645       0.00034903       0.00367644      -0.00058427
H        4.31339727       8.95427533       6.71162739      -0.00072452       0.00466244      -0.00136325
H        5.11252629       7.60415577       5.93245178      -0.00101506       0.00292572       0.00151858
H        3.65368438      10.86835048       2.88050858       0.00687684       0.00359595      -0.00165382
H        4.42944198       9.56634689       2.01135755       0.00389981       0.00155757      -0.00122683
H        7.32664788       8.76251299       6.20997867      -0.00016190      -0.00041702       0.00431138
H        6.53651922       8.53525705       7.76735748      -0.00346892       0.00588423       0.00347224
H        6.51681653      10.12092445       6.98538897       0.00040660       0.00316966      -0.00165223
H        2.18054207       8.41559428       1.76936977       0.00167462       0.00760582      -0.00264988
H        1.43125448       9.76676869       2.61143655       0.00443935       0.00824865      -0.00141685
H        2.17193315      10.01718528       1.02864012       0.00576788       0.00836292      -0.00092509
C       12.50621320       3.82593672       1.59824538       0.00405739       0.00346591       0.00059491
C       12.83080162       4.78859513       2.73114722       0.00622926       0.00050753       0.00232619
C       11.82808825       2.54599463       2.06950098       0.00083280       0.00469160      -0.00047624
C       13.41949973       6.11052204       2.25709760       0.00646609       0.00132947       0.00480133
C       11.40789438       1.64574806       0.92030869      -0.00031039       0.00670490      -0.00164299
C       13.70217725       7.06791921       3.40595183       0.00703204      -0.00143826       0.00686869
H       11.85287033       4.32876263       0.87535460       0.00488019       0.00592779       0.00152910
H       13.42131538       3.57799037       1.04503017       0.00310478       0.00221884       0.00009261
H       13.52189005       4.31297887       3.43691096       0.00719617      -0.00179380      -0.00009514
H       11.91608834       4.98976336       3.29902917       0.00724259      -0.00070444       0.00387667
H       12.49461679       2.00771460       2.75232401      -0.00065844       0.00325590       0.00008069
H       10.94736189       2.80507536       2.66223343       0.00134751       0.00658306      -0.00109191
H       14.33923605       5.92011178       1.69299349       0.00592181       0.00255036       0.00380190
H       12.72457431       6.57575714       1.54890093       0.00583133       0.00283639       0.00658660
H       10.76500233       2.17019114       0.21146593       0.00022924       0.00967820       0.00015523
H       10.86620404       0.76666039       1.26684715      -0.00213476       0.00711437      -0.00329411
H       12.27919475       1.29768391       0.34346670      -0.00134048       0.00589732      -0.00283293
H       12.79875282       7.24508279       3.99302271       0.00708719      -0.00144617       0.00662483
H       14.45908272       6.66061513       4.07996849       0.00597487      -0.00423878       0.00662243
H       14.06415162       8.03189691       3.04926174       0.00881632      -0.00139478       0.00906836
C       10.51534720      11.42685343       1.05507244      -0.00180330      -0.00011110      -0.00418639
C        9.35665634      12.40181309       1.23788485      -0.00288392      -0.00273561       0.00160739
C       11.82462182      11.97170116       1.61784822      -0.00243706      -0.00135466      -0.00198889
C        7.98130641      11.80776876       0.95952966      -0.00184157      -0.00233150      -0.00609483
C       13.04705004      11.12355248       1.27591981      -0.00320628      -0.00032714      -0.00508961
C        6.86755444      12.83493064       1.11445167      -0.00341287      -0.00358883      -0.00435873
H       10.28610869      10.47311278       1.54117492      -0.00093810      -0.00320458      -0.01033320
H       10.64223088      11.21346633      -0.01171013      -0.00112625       0.00729256      -0.00546291
H        9.51627897      13.25628834       0.57142884      -0.00271944       0.00246724       0.00880584
H        9.36925370      12.79628886       2.26213598      -0.00485779      -0.01083884       0.00458187
H       11.95259433      12.99790405       1.23703423      -0.00339023      -0.00019269       0.00141755
H       11.74408723      12.08127046       2.70386705      -0.00283014      -0.00617463      -0.00142804
H        7.96060493      11.39288094      -0.05253555       0.00247211       0.00340866      -0.00815603
H        7.80772033      10.96841379       1.64199252      -0.00257539      -0.00583854      -0.01129425
H       12.99538463      10.14752837       1.76092596      -0.00763486      -0.00430870      -0.01468842
H       13.98442950      11.59035100       1.60250576      -0.00292166      -0.00718241       0.00350311
H       13.12527321      10.93393722       0.19820552      -0.00036183       0.00876249      -0.00602444
H        6.85230966      13.24892022       2.12547284      -0.00580201      -0.00826959      -0.00269729
H        7.00520193      13.66189726       0.41594208      -0.00202339      -0.00104289      -0.00037476
H        5.88700270      12.40174454       0.91743483      -0.00396585      -0.00100236      -0.00674679
C        4.16821859       3.85903450      12.92213100      -0.00170320      -0.00150722       0.00195388
C        4.27360505       5.37888477      12.94012686      -0.00055456      -0.00164121       0.00294852
C        5.51607930       3.15569354      12.80669541      -0.00208575      -0.00237758       0.00274176
C        2.92707645       6.08398019      13.05858261      -0.00039268      -0.00095247       0.00073072
C        5.39898460       1.64623316      12.65467516      -0.00312554      -0.00187993      -0.00041075
C        3.04145676       7.60053916      12.98835494      -0.00004562      -0.00127602      -0.00237546
H        3.65658011       3.51786181      13.83012943      -0.00280352      -0.00172022       0.00121537
H        3.52816768       3.55428168      12.08583760      -0.00100298      -0.00040736       0.00119811
H        4.77317372       5.71481410      12.02393053       0.00128470      -0.00170108       0.00413853
H        4.92105545       5.69256453      13.76788737      -0.00190632      -0.00243894       0.00433975
H        6.06030421       3.56702650      11.95160220      -0.00064474      -0.00116821       0.00423482
H        6.11864667       3.39313117      13.68913790      -0.00317895      -0.00436485       0.00403664
H        2.26529262       5.72844514      12.26124897       0.00017063      -0.00236817       0.00098097
H        2.44944776       5.78998000      13.99956980      -0.00115161       0.00107849       0.00091314
H        4.91277419       1.19500979      13.52246916      -0.00510553      -0.00313680      -0.00220704
H        6.37280932       1.17179128      12.53534271      -0.00329435      -0.00252928       0.00062097
H        4.80837727       1.37758242      11.77717150      -0.00127639       0.00020958      -0.00188951
H        3.68934093       7.98343446      13.77942476      -0.00020345       0.00034050      -0.00302882
H        3.47021789       7.91409535      12.03431985       0.00036581      -0.00343887      -0.00279111
H        2.07161986       8.08810538      13.09308670      -0.00006455      -0.00086290      -0.00376483
C        3.05048870       3.30468983       3.84392097      -0.00027797      -0.01227036      -0.00425097
C        2.77947111       2.17530020       2.85753615       0.00297371      -0.01293698      -0.00466463
C        4.49700952       3.77644269       3.79461717      -0.00213602      -0.00744870      -0.00379685
C        1.32423635       1.72855106       2.84769090       0.00281522      -0.01265715      -0.00324956
C        4.79947793       4.89017457       4.78445054      -0.00699917      -0.00764373      -0.00238734
C        1.02663809       0.65309835       1.80810827       0.00093806      -0.01012558      -0.00486091
H        2.38195474       4.14992096       3.63254610      -0.00275145      -0.01371270      -0.00380091
H        2.81382757       2.96618131       4.85906026       0.00022383      -0.01278880      -0.00447407
H        3.42554630       1.32625304       3.10266930       0.00414519      -0.01277831      -0.00757529
H        3.06360259       2.50313620       1.85010475       0.00123345      -0.01072489      -0.00453168
H        5.14731323       2.92047629       3.99572786       0.00015658      -0.00575247      -0.00402978
H        4.72570886       4.11182539       2.77692390      -0.00299579      -0.00611711      -0.00336915
H        1.05272197       1.35830983       3.84076466       0.00404433      -0.01370715      -0.00340351
H        0.68577448       2.59672542       2.66110012       0.00233006      -0.01221055      -0.00105725
H        4.15984698       5.75830823       4.61218708      -0.00983191      -0.00977330      -0.00236664
H        5.83654223       5.22509406       4.71403633      -0.00798090      -0.00408003      -0.00079411
H        4.63119819       4.55467535       5.80769097      -0.00709156      -0.00939590      -0.00306565
H        1.21920415       1.03032234       0.79232434      -0.00038807      -0.00681856      -0.00390221
H        1.65905265      -0.22845368       1.94752686       0.00097544      -0.01071404      -0.00895950
H       -0.02230829       0.33431928       1.88426229       0.00112812      -0.01021409      -0.00375835
C        8.53834637       6.17828186       2.85899454      -0.00005251       0.00328657       0.00245351
C        9.69743342       7.04480485       3.33323799      -0.00219136       0.00383042       0.00627176
C        8.95843859       4.73435551       2.61574625       0.00168967       0.00416109       0.00073087
C        9.32351002       8.49768793       3.58796335      -0.00484031       0.00346652       0.00515983
C        7.82351493       3.82805970       2.16865964       0.00297445       0.00436416      -0.00269282
C       10.49266728       9.31962918       4.11194506      -0.00771308       0.00499028       0.00883083
H        7.73255054       6.20926673       3.60121076      -0.00165735       0.00102185       0.00095633
H        8.11759348       6.59718530       1.93740363       0.00126741       0.00443362       0.00248387
H       10.50366108       7.00468639       2.59082380       0.00003710       0.00489785       0.00867769
H       10.11387092       6.61411354       4.25230921      -0.00464240       0.00411814       0.00733924
H        9.75567029       4.72414427       1.86611196       0.00274229       0.00623174       0.00183934
H        9.40264601       4.33794998       3.53499817       0.00064783       0.00287972       0.00058267
H        8.94118978       8.93827094       2.66175868      -0.00239144       0.00296211       0.00407788
H        8.49654745       8.53845333       4.30268990      -0.00706536       0.00217023       0.00242189
H        7.05655248       3.75149380       2.93827310       0.00194445       0.00223671      -0.00387181
H        8.17426833       2.81749750       1.95038358       0.00394001       0.00500211      -0.00429417
H        7.34776205       4.21487193       1.26571328       0.00395979       0.00591590      -0.00241716
H       10.85494695       8.91941186       5.06178589      -0.01044203       0.00572059       0.00995557
H       11.32997566       9.29937102       3.41043487      -0.00570561       0.00690120       0.01158817
H       10.21724556      10.36279725       4.27420060      -0.01044381       0.00471514       0.00790764
C        7.19026064       2.83021561       9.10392630      -0.00008884       0.00285150      -0.00358719
C        6.01943706       3.43165575       8.33661475      -0.00054062       0.00386262      -0.00199312
C        8.28467832       2.25277079       8.21739883       0.00118907       0.00748158      -0.00511122
C        4.96706839       4.02198929       9.26759388      -0.00136590      -0.00007249      -0.00069362
C        9.46112174       1.72607867       9.02581523       0.00150457       0.00539932      -0.00638834
C        3.79339545       4.68113810       8.55903105      -0.00185132       0.00014850       0.00049867
H        7.62581776       3.60298394       9.75006628      -0.00148691       0.00125772      -0.00098541
H        6.82423414       2.04210823       9.77088167       0.00054447       0.00005305      -0.00699328
H        5.56049208       2.66704080       7.69903133       0.00026162       0.00503504      -0.00416300
H        6.38861430       4.21054167       7.65869096      -0.00167376       0.00640044       0.00009146
H        7.86669721       1.44236585       7.61372792       0.00282745       0.00958046      -0.00862680
H        8.62271205       3.02074372       7.51221782       0.00127894       0.01054287      -0.00161429
H        4.59802793       3.23047980       9.92653908      -0.00040400      -0.00204289      -0.00271681
H        5.45003390       4.75467046       9.92200285      -0.00243907      -0.00084570       0.00118013
H        9.88784633       2.50914311       9.65733064      -0.00102366       0.00285189      -0.00183666
H       10.25826177       1.34952234       8.38408915       0.00266154       0.01046146      -0.00741693
H        9.14892979       0.91002766       9.67875579       0.00176156       0.00134905      -0.01107636
H        4.12067484       5.51981550       7.94063335      -0.00248782       0.00105914       0.00152571
H        3.27481631       3.97506224       7.90684064      -0.00135715       0.00064676      -0.00045133
H        3.06768116       5.06541094       9.27810235      -0.00231272      -0.00154188       0.00077893
