196
Lattice="13.438227052309657 0.0 0.0 0.0 13.438227052309657 0.0 0.0 0.0 13.438227052309657" Properties=species:S:1:pos:R:3:forces:R:3 energy=-512519.5625 stress="0.0016105454415082932 0.0006601936183869839 0.00029453239403665066 0.0006601936183869839 -0.0009026899933815002 5.301652527123224e-05 0.00029453239403665066 5.301652527123224e-05 -0.0006290385499596596" pbc="T T T"
Gd      13.40691679      11.93398329       1.72365700       0.00255173      -0.00362056       0.00698169
O        5.47997839      12.18900880       4.96949714       0.01498461       0.04238856      -0.01278877
O        7.92675953      12.86005735       4.24969472       0.01071680       0.04189789      -0.02413553
O        6.16480847      12.08671772       2.46736242       0.01335663       0.01577944      -0.01258111
O        7.13463906      10.36454599       4.14797595       0.01935250       0.03640318       0.00346100
Mn       6.67573783      11.87529874       3.96975018       0.01673961       0.03305495      -0.01375071
O        5.73635563       7.75610904      11.52874133       0.00536597      -0.00077996       0.01045215
O        8.26539746       7.58990798      10.91338061       0.00732291      -0.00365973       0.01031542
O        7.56028926       7.79836689      13.41122546       0.00532857       0.00724882       0.00900269
O        7.30676821       9.83432234      11.81950275       0.00501131       0.00057685       0.00258400
Mn       7.21976055       8.24019803      11.92762140       0.00462474       0.00130508       0.01386079
O       13.05723811      11.74311381       3.79849353       0.00502440      -0.00493342       0.00569785
O       11.08775154       9.92254121       3.87486227       0.01451313      -0.00808592       0.01801933
O       13.48800105       9.25221097       4.79482405       0.01900989      -0.00155079       0.00535154
O       13.11538986       9.83200727       2.11705818       0.00068052      -0.00179398       0.00847369
Mn      12.64201462      10.07922448       3.73759749       0.00300485       0.00104314       0.00493181
O       10.44384354       0.18587377       3.50789517       0.00547296      -0.01836860      -0.00321144
C       11.24134737       1.33732337       3.78668966      -0.00601189      -0.01053670       0.00129130
C       10.44531357       2.62614992       3.68330592      -0.01854333      -0.01837635      -0.00334521
C       11.96611320       1.20267605       5.11485891      -0.01641303      -0.00556320       0.00764394
H       11.99401559       1.33459464       2.98295354      -0.00018871      -0.00301743       0.00789210
H       11.10332877       3.48443575       3.83703839      -0.02685225      -0.01250082       0.00269122
H        9.97013211       2.72449330       2.70713205      -0.01132818      -0.02115465      -0.00663498
H        9.66693846       2.65517275       4.45001141      -0.02439341      -0.02657236      -0.00934656
H       12.68847707       2.01351770       5.23528784      -0.02323356      -0.00056311       0.01373224
H       12.48836198       0.24803409       5.16282552      -0.01043601      -0.00200942       0.01147026
H       11.26296102       1.25945791       5.94728797      -0.02376172      -0.01120998       0.00171167
H        9.57119088       0.13621666       3.95725017      -0.00628415      -0.01446592      -0.02770489
O       11.09258257      12.41632148       1.32497257       0.01231943       0.00824954      -0.00761726
C        9.89330815      11.88912139       0.63844322       0.01766384       0.00111367      -0.00913785
C        9.39799402      10.62792477       1.31305257       0.01834682       0.00444889      -0.00140673
C        8.82879849      12.96600051       0.62121787       0.01467896      -0.00165021      -0.02209043
H       10.23715224      11.67278095      -0.37729006       0.02198333      -0.00577542      -0.00551361
H        8.54844233      10.23476870       0.74985760       0.01989321      -0.00171220       0.00053197
H       10.17097322       9.86307534       1.36073683       0.02001300       0.00680782       0.00533133
H        9.05827513      10.84133543       2.32658509       0.01656230       0.01058596      -0.00294384
H        7.96029193      12.60307150       0.06980234       0.01763713      -0.00698526      -0.02322243
H        9.20150131      13.87663725       0.15721244       0.01509623      -0.00359559      -0.02675595
H        8.48891328      13.17404374       1.63780732       0.00937950       0.00542381      -0.02545857
H       10.74542202      12.84847167       2.16745647       0.00941986       0.00688049      -0.00547311
O        1.54769824       0.32508048       2.33353262      -0.00822055       0.00300303       0.00563413
C        2.40758980       1.17980490       1.49960270      -0.01223231       0.00054485      -0.00079250
C        1.89772400       2.60087996       1.56298234      -0.01331650       0.00003445      -0.00552918
C        3.85417335       1.05525168       1.91972851      -0.01110673       0.00233811      -0.00498718
H        2.26910325       0.77896292       0.48825562      -0.01510948      -0.00373216       0.00104788
H        2.47764606       3.23050944       0.88711838      -0.01320416      -0.00151516      -0.00658002
H        0.84691568       2.66126655       1.27638375      -0.01334311      -0.00152198      -0.00654783
H        2.02283422       3.00682715       2.56700595      -0.01477654       0.00337800      -0.00641990
H        4.46760922       1.69141992       1.27988696      -0.01263957       0.00258847      -0.00635441
H        4.24140297       0.04010785       1.84359650      -0.01067448       0.00272790      -0.00617058
H        3.99732089       1.41080804       2.94412698      -0.00871477       0.00195572      -0.00465038
H        1.86655430       0.38420105       3.24479616      -0.01108679       0.01113851       0.00398237
O        4.83280088       3.37176197       4.44302318      -0.00666261      -0.01463973       0.00088939
C        6.24587839       3.52460505       4.29734776      -0.00539684      -0.01701254       0.00328293
C        6.60527796       3.95503336       2.88780905      -0.00317198      -0.01857638       0.00340676
C        6.78600522       4.49893430       5.33801186      -0.00680527      -0.01550663       0.00266325
H        6.66612975       2.53207318       4.49284946      -0.00685456      -0.01737553       0.00523522
H        7.68375849       4.00410811       2.74517652      -0.00284235      -0.01755444       0.00573224
H        6.18877023       3.26290782       2.15712260      -0.00087988      -0.01999013       0.00344533
H        6.22763324       4.95789909       2.67744622      -0.00355929      -0.01915145       0.00036127
H        7.87657492       4.55204588       5.28846195      -0.00690022      -0.01421079       0.00244652
H        6.49275154       4.19510353       6.34276701      -0.00605381      -0.01537213       0.00305530
H        6.40354308       5.50565935       5.15781734      -0.00782938      -0.01580068       0.00291670
H        4.40048903       4.03518144       3.87964069      -0.00417666      -0.01441295       0.00083516
O       13.68553258       0.83379063       9.04340066       0.00268763       0.00366527       0.00599298
C       12.57222989       1.73333159       9.15116234       0.00373340       0.00533524       0.00489163
C       11.25810621       0.97776162       9.19114996       0.00258666       0.00760195       0.00528271
C       12.74387348       2.65269114      10.34868175       0.00455258       0.00578088       0.00430471
H       12.61019714       2.33217441       8.24104572       0.00523173       0.00425872       0.00425780
H       10.42292062       1.67496934       9.21897369       0.00413707       0.00971586       0.00424096
H       11.15434735       0.34014063       8.31522131       0.00144429       0.00699402       0.00581160
H       11.19295966       0.35593671      10.08845430       0.00136205       0.00902635       0.00603135
H       11.95045561       3.40187568      10.37275068       0.00742666       0.00886390       0.00192757
H       13.70673242       3.16192723      10.30500796       0.00662385       0.00201271       0.00517552
H       12.69886686       2.07419069      11.27629714      -0.00006513       0.00719791       0.00468658
H       13.56196934       0.14314135       9.70155088       0.00429659       0.00708590       0.00979202
O        9.88582706       2.06518826      12.11491907       0.01109946       0.02298012       0.00116915
C        8.60621474       2.69931789      11.92980433       0.00473377       0.01020259       0.00356913
C        8.08105199       3.24829196      13.24297627       0.00450233       0.00940645       0.00386131
C        8.69538445       3.76792112      10.85830571      -0.00857779       0.00757962      -0.00026995
H        7.95578676       1.88598182      11.59518990       0.01147541       0.00317115       0.00833617
H        7.10561887       3.71311192      13.09352255      -0.00110799      -0.00130041       0.00659273
H        7.99362663       2.45379792      13.98441223       0.01564341       0.01059659       0.00627790
H        8.75144231       4.01941603      13.63106142      -0.00207080       0.01709954      -0.00074543
H        7.72913742       4.25708397      10.72760089      -0.01288331      -0.00052644       0.00218545
H        9.02775274       3.35237597       9.90688808      -0.00892831       0.00690064      -0.00041775
H        9.41389852       4.53409964      11.16129156      -0.01329863       0.01386595      -0.00549324
H       10.52831587       2.77129452      12.23327823       0.00387356       0.02934694       0.00410987
O       10.70424880       3.98389646       7.74101003      -0.00690335      -0.00101030      -0.00454831
C       11.01690714       5.37909069       7.92119615      -0.00572392      -0.00205994      -0.00166363
C       12.04096754       5.82482158       6.89023789      -0.00538605      -0.00085622      -0.00124949
C        9.75680649       6.21994489       7.89319522      -0.00427347       0.00029197       0.00007177
H       11.45333224       5.43595686       8.91941769      -0.00543723      -0.00496431      -0.00220400
H       12.31510028       6.86935573       7.04631093      -0.00309082      -0.00155935       0.00261153
H       12.93951589       5.20879284       6.94697187      -0.00709695      -0.00271206      -0.00440661
H       11.62712454       5.73687654       5.88161590      -0.00680184       0.00433774      -0.00109863
H        9.99811978       7.27743497       8.00406270      -0.00243576      -0.00086072       0.00413836
H        9.07656206       5.92540067       8.69156521      -0.00535879      -0.00157494      -0.00088027
H        9.24213524       6.10116915       6.93483701      -0.00410638       0.00431827      -0.00032197
H       10.13591084       3.92204865       6.96687430      -0.00235873       0.00004360      -0.00947442
O        3.31203422       5.23477865       3.05506446       0.00636911      -0.00885287      -0.00474513
C        3.13714691       6.29096721       4.02647414       0.00573137      -0.00948372      -0.00423945
C        4.13309683       7.40202719       3.77229938       0.00473106      -0.00783664      -0.00384276
C        1.70126689       6.76685849       4.02488198       0.00469339      -0.00932533      -0.00812412
H        3.35936455       5.81153514       4.98394296       0.00389613      -0.00865439      -0.00549090
H        4.03832401       8.18791856       4.52082705       0.00494069      -0.00877003      -0.00286032
H        5.16004257       7.03766621       3.79040848       0.00532459      -0.00834978      -0.00350330
H        3.94681774       7.84914540       2.79218365       0.00531748      -0.00676936      -0.00255771
H        1.53649980       7.50920128       4.80391466       0.00257505      -0.01065333      -0.00606677
H        1.01992539       5.93233101       4.19473824       0.00550046      -0.01029377      -0.01027171
H        1.44211218       7.23521079       3.07195719       0.00648517      -0.00813154      -0.00622141
H        3.51851154       5.63977914       2.20624142       0.01565927      -0.00948519      -0.00309101
O        6.47317641      10.71182653       9.28247548       0.00139755       0.00190127       0.00482717
C        5.90767587      11.98207056       9.56724072       0.00163886       0.00364006      -0.00215954
C        4.80552933      11.86105819      10.61682599       0.00106847       0.00940713      -0.00203413
C        6.98345417      12.96612410      10.00631966       0.00178850       0.00568777      -0.00722593
H        5.47341675      12.31985547       8.62134080       0.00193217      -0.00113650      -0.00390387
H        4.35649997      12.83688642      10.82088171      -0.00028358       0.00999619      -0.00879453
H        4.02909604      11.17205464      10.27916688       0.00226080       0.00624889       0.00181264
H        5.23087660      11.47083349      11.54371897       0.00082123       0.01606221       0.00103015
H        6.56102503      13.95832120      10.17656976       0.00261160       0.00703634      -0.01333511
H        7.76231549      13.04083490       9.24770442       0.00223313       0.00074597      -0.00748599
H        7.44133813      12.62690458      10.93880707       0.00135458       0.01099616      -0.00533611
H        6.85714115      10.38164499      10.11214387       0.00050829       0.00509217       0.00639558
O        2.01258615      11.10549958       0.54319790       0.00303239       0.00264731       0.00303245
C        2.91329219      10.19898668       1.31627147       0.00255283      -0.00080642       0.00057003
C        4.21195339      10.03189640       0.56447593       0.00136667       0.00054721      -0.00286505
C        3.10676920      10.75406327       2.71128863       0.00603256      -0.00170767       0.00104022
H        2.35395485       9.26196888       1.35421076       0.00266546       0.00083292       0.00041793
H        4.86962136       9.35043713       1.10456331       0.00109307      -0.00300568      -0.00630358
H        4.05918842       9.62861207      -0.43746184      -0.00181349       0.00287578      -0.00336362
H        4.74593071      10.98378148       0.51024199       0.00256508      -0.00109875      -0.00128090
H        3.73878899      10.08143490       3.28863032       0.00624220      -0.00304502      -0.00126233
H        2.16336670      10.84784813       3.25735213       0.00756613      -0.00077461       0.00231460
H        3.62115983      11.71251402       2.68567265       0.00710240      -0.00161216       0.00042133
H        2.56592589      11.56057168      -0.10236078      -0.00026530      -0.00019765       0.00152025
O        5.47107881       4.96510225      11.81112481      -0.01208895       0.00045529       0.01470554
C        4.37752705       4.47443955      11.04484869      -0.00721020       0.00402957       0.00506154
C        4.34657968       2.97434325      11.26841913      -0.00934331       0.00310600      -0.00255066
C        3.08200637       5.15828915      11.45367554      -0.00999725       0.00245592      -0.00063542
H        4.54998347       4.67494494       9.97820627      -0.00005291       0.00907798       0.00713420
H        3.53941726       2.50907827      10.70114874      -0.00693303       0.00667424      -0.00827949
H        5.29364680       2.52671517      10.96461216      -0.00811088       0.00353136       0.00025051
H        4.20204505       2.76345176      12.33125441      -0.01471498      -0.00187189      -0.00405560
H        2.23218768       4.75384197      10.90151123      -0.00606132       0.00459671      -0.00842234
H        3.13931237       6.22664407      11.24308380      -0.00933652       0.00332087       0.00449298
H        2.91031451       5.01315472      12.52334965      -0.01773526      -0.00285801      -0.00272532
H        5.51955568       5.93082480      11.70732500      -0.00571822      -0.00086221       0.01315894
O        4.20910194       7.44393288       9.11110848      -0.00278394       0.01073980       0.01056898
C        4.21248728       8.50796965       8.15487512      -0.00014812       0.00386173       0.00364077
C        5.39834314       8.40030757       7.20689751       0.00212115      -0.00272815       0.00698805
C        2.88152155       8.44092751       7.43155930       0.00163800      -0.00212152       0.00006390
H        4.29385501       9.46404471       8.68241852      -0.00233329       0.00763345      -0.00371718
H        5.41308399       9.23300940       6.49990394       0.00399724      -0.00726691       0.00224677
H        6.33481743       8.43571598       7.76327221       0.00089270       0.00068481       0.00928228
H        5.34951322       7.46022971       6.65226120       0.00327644      -0.00616656       0.01282273
H        2.79455629       9.23757466       6.69120765       0.00374896      -0.00642146      -0.00467621
H        2.05448573       8.52919033       8.13680745      -0.00054954       0.00182866      -0.00314437
H        2.78531971       7.47976743       6.92111252       0.00355151      -0.00479974       0.00503943
H        4.87965079       7.63172701       9.78387357       0.00023171       0.01242901       0.00837559
O       10.80761737       6.46216502      11.10148347       0.00771332      -0.00186026       0.00151852
C       11.64776116       7.49122220      11.61241811       0.00951493      -0.00077021      -0.00302443
C       12.00059017       8.49360684      10.52240660       0.00548357      -0.00303149      -0.00604910
C       11.00855276       8.17791040      12.80845405       0.01337785       0.00158322      -0.00255090
H       12.55747243       6.97339579      11.93535266       0.01058900       0.00014135      -0.00487970
H       12.67758512       9.26063469      10.90680291       0.00637947      -0.00189888      -0.01008311
H       12.47074470       8.00488402       9.66978626       0.00309893      -0.00452916      -0.00685491
H       11.09259476       8.98484741      10.16659727       0.00414653      -0.00426233      -0.00437089
H       11.73879874       8.78536043      13.34947932       0.01328100       0.00350796      -0.00657661
H       10.59489371       7.44050410      13.49582453       0.01657008       0.00201380       0.00094216
H       10.19299671       8.82685742      12.48423285       0.01043640      -0.00091524      -0.00116888
H        9.91658464       6.83908091      10.98710393       0.00816703      -0.00216770       0.00405364
O        8.68071808       6.35439905       2.28533867       0.00387222      -0.02135007      -0.00187355
C        9.60695178       6.47682925       3.36245074      -0.00313222      -0.00127733       0.00008190
C       11.02690749       6.66412151       2.84228224      -0.00207984       0.00815442       0.00529447
C        9.19155360       7.55336227       4.34881810      -0.01691628       0.00487304      -0.01157922
H        9.55505174       5.49999418       3.85917221       0.00305827       0.00351930       0.00915268
H       11.75609618       6.61147439       3.65393749      -0.00553424       0.02140097       0.00974445
H       11.26187281       5.89329348       2.10608353       0.00886813       0.00308192       0.01345509
H       11.14085842       7.63890694       2.36699902      -0.00858659       0.00397465      -0.00217777
H        9.92148888       7.65382202       5.15368251      -0.02377231       0.01488658      -0.00672922
H        8.21999626       7.32659399       4.78807446      -0.01885268       0.00170553      -0.01693457
H        9.11923242       8.52433075       3.85945673      -0.01853353       0.00025949      -0.01968773
H        8.57063991       7.20452373       1.84133418      -0.00212710      -0.02415047      -0.01372202
O       11.32561834       9.33002213       7.09931649       0.00804383      -0.00679755       0.00438902
C       11.26370083      10.72252771       7.43101145       0.00047165      -0.00578761       0.01273781
C       12.66141374      11.32308168       7.41218026      -0.00063270      -0.00209254       0.00806957
C       10.27641842      11.47038075       6.54257326      -0.00425887      -0.00928047       0.01521224
H       10.88131154      10.73447919       8.45636587       0.00468361      -0.00948614       0.01237673
H       12.66300574      12.37065632       7.71092442      -0.00402124      -0.00203058       0.01226424
H       13.31954841      10.76780594       8.08253816       0.00333032      -0.00113626       0.00347964
H       13.08586847      11.27184971       6.40875868      -0.00478469       0.00414941       0.00654536
H       10.08383265      12.46964214       6.93896548      -0.00570852      -0.00933339       0.01748172
H        9.32685261      10.93950297       6.48848380      -0.00246713      -0.01183033       0.01872861
H       10.65729259      11.58559511       5.52886346      -0.00806071      -0.00657897       0.01453072
H       11.82871560       9.24816169       6.27989592      -0.00721007      -0.00205848       0.00780499
