196
Lattice="13.464006307550108 0.0 0.0 0.0 13.464006307550108 0.0 0.0 0.0 13.464006307550108" Properties=species:S:1:pos:R:3:forces:R:3 energy=-653921.375 stress="-0.0006182768847793341 -0.0006089310627430677 -0.00042774213943630457 -0.0006089310627430677 -0.0005566520267166197 0.0002684557839529589 -0.00042774213943630457 0.0002684557839529589 -0.0011848647845909" pbc="T T T"
Gd      12.80510311      12.85144968       1.60285767       0.01146024      -0.04260516      -0.00306934
Br       7.59722027      11.93630349      11.61233971      -0.00968368       0.00074448      -0.00008459
O        7.93838544      11.66575660      13.18800608      -0.00737140      -0.00398056      -0.00089908
O        8.94926918      12.43556842      10.87787949      -0.01355088       0.01394942       0.00277567
O        7.06896627      10.55470385      10.95853884      -0.00101230       0.00123000      -0.00634658
O        6.44348496      13.07283521      11.51638858      -0.01750910      -0.00572968       0.00630315
Br      10.80605466      11.51203070      -0.26995501      -0.00929028       0.00179473      -0.00431800
O       12.48423681      11.52376329      -0.42013866      -0.01084483      -0.01108140      -0.02196389
O       13.76112832      14.32383864       1.15062401       0.00891268      -0.03240931       0.02763999
O       10.53480593      10.50632747       0.99676226      -0.00163153       0.00523698       0.00105780
O       10.62462798      13.05065152       0.39928301       0.00815421       0.00116372       0.00009267
Br      12.90365706      12.09903945       4.88716982       0.01507977       0.00194298      -0.00492479
O       13.15213431      10.66860887       5.58376772      -0.02918021      -0.00486925      -0.00484762
O       11.53926374      12.11413740       3.98630903       0.01863033       0.03338901      -0.01105241
O       12.88719870      13.29126876       5.96560407       0.03825463       0.00126421      -0.00378329
O       14.06702979      12.37567664       3.75233210       0.02575910      -0.03221993      -0.00025228
O        8.82630121       2.01995821       5.12397554      -0.00276220      -0.00105849      -0.00340521
N       10.62813478       2.27666393       3.74433693      -0.00073513       0.00280198       0.00497466
C        9.87071066       2.14586838       2.51797334       0.00495355      -0.00085758       0.00178564
C       12.05075377       2.51804411       3.62936216      -0.00233442       0.00681612       0.00857791
C       10.02720287       2.17766012       4.94233451      -0.01185894       0.00131373       0.00243780
H       10.33726190       1.40895256       1.85996740       0.00666189      -0.00586024       0.00865293
H        9.83756389       3.10641019       2.00285887       0.01244510      -0.00304389      -0.00273877
H        8.86812573       1.81125750       2.76724430       0.00245720       0.00484557      -0.00229900
H       12.61690000       1.59150403       3.49050938      -0.00394380       0.01185870      -0.02661438
H       12.41485097       3.00567990       4.53364799       0.00069597      -0.02224445       0.02269727
H       12.23306367       3.15772331       2.76670800      -0.00539271       0.03513062       0.02913305
H       10.74418467       2.25244392       5.77552639      -0.01060849       0.00564788       0.00556087
O        6.90889868       9.17948419       2.42495055      -0.00315058       0.00040603       0.00470980
N        7.00229053      11.41191241       2.88926319       0.00259966       0.00039336       0.00459087
C        5.68881350      11.44899361       3.49129344       0.00354991       0.00396540       0.00675208
C        7.71915686      12.65516140       2.72140567       0.00617525      -0.00173696       0.00460372
C        7.49202963      10.25839278       2.39569560      -0.00117904      -0.00051200       0.00367482
H        4.94388267      11.86554397       2.80657334       0.00411317       0.00786300       0.00858799
H        5.69419462      12.04784261       4.40082179       0.00711109       0.00259313       0.00752097
H        5.38901348      10.43902316       3.74652692       0.00015259       0.00476366       0.00538996
H        7.22939624      13.29056895       1.97652340       0.00657886       0.00076914       0.00649485
H        8.72749358      12.45159438       2.36536220       0.00472945      -0.00451943       0.00216824
H        7.77873908      13.19284705       3.67094381       0.01012864      -0.00293893       0.00491181
H        8.48913851      10.38168873       1.94939121      -0.00192130      -0.00258496       0.00151989
O        3.87802043       3.69077788       0.86564322      -0.01375115       0.00368810       0.00361717
N        3.39275110       1.92219365       2.22755191       0.00270643       0.00177118       0.00314300
C        4.49090629       1.09911100       1.77916317       0.00232144       0.00597069      -0.00595718
C        2.53261986       1.35267311       3.23921293       0.01331206       0.00019438       0.01057893
C        3.16222753       3.12774115       1.68580443      -0.00054246       0.00441897       0.00429302
H        4.10821838       0.21975934       1.25355178       0.00173157       0.00537288      -0.00447398
H        5.07805288       0.76197312       2.63435855       0.00904027       0.00674058      -0.01028174
H        5.11930827       1.67264860       1.10441162      -0.00403343       0.00886583      -0.00873472
H        2.20493906       0.36337900       2.93449059       0.01427348      -0.00127974       0.01492879
H        1.64344870       1.96750879       3.35007217       0.01212436      -0.00263128       0.01681743
H        3.05552854       1.26666783       4.19629803       0.02126801       0.00452227       0.00644895
H        2.23919058       3.58831486       2.07290986       0.00076473       0.00198725       0.01809970
O        7.27284557       6.52150683       4.94550569       0.00213971      -0.00240946       0.00642717
N        6.21585874       4.74388992       3.97978009      -0.00122356       0.00284292      -0.00147694
C        5.02786774       5.48327036       3.62622329       0.00397348       0.00884299      -0.00583365
C        6.24575084       3.33499002       3.67021218      -0.00602917       0.00324781      -0.00396983
C        7.24918105       5.35125486       4.61068552      -0.00148693      -0.00475395       0.00390607
H        4.17172932       5.14281142       4.21993551       0.00113598       0.01785257      -0.00485572
H        4.78829260       5.32343965       2.57351151       0.00362234       0.00504380      -0.00506881
H        5.20803069       6.53776868       3.81691523       0.01073542       0.00858036      -0.01081308
H        5.39919245       2.82575502       4.14180016      -0.01014510       0.00598241      -0.00851594
H        7.16698852       2.89457943       4.05020819      -0.00927284      -0.00141366      -0.00141335
H        6.17043766       3.18346290       2.59078974      -0.00248427       0.00573582      -0.00454730
H        8.08278373       4.65319085       4.79395672      -0.00578517      -0.00710195       0.00713114
O        9.85136255       1.37284722       8.54269381       0.00815487       0.00744271       0.00682685
N       12.01931939       2.09682186       8.63745084       0.00473619      -0.00100985       0.00468643
C       12.55057910       0.87211092       9.20154401       0.00143827      -0.00101465       0.00902414
C       12.94982426       3.16869841       8.37165816       0.00643269      -0.00537844      -0.00228583
C       10.70358060       2.22421014       8.35351887      -0.00133109      -0.00696713       0.00677767
H       13.10578562       1.09546278      10.11386821       0.00727871       0.00207955       0.00479281
H       13.22194541       0.38925995       8.48750362      -0.00345173      -0.00708884       0.00842923
H       11.71692712       0.20687227       9.41452519       0.00021484       0.00402620       0.01696203
H       13.49547973       3.43150727       9.28045664       0.00870845      -0.00284331      -0.00495189
H       12.39971874       4.03630472       8.00552401       0.00758202      -0.00594379      -0.00545683
H       13.68174862       2.87212835       7.61284088       0.00392371      -0.01117277      -0.00202563
H       10.45528441       3.21532329       7.93322093       0.00610602      -0.00014144       0.00261855
O        7.31949232       3.20437836      10.52319303      -0.00045371       0.00293273       0.00999251
N        9.01409528       2.63140778      11.94371492       0.00357500      -0.00526078      -0.00214568
C        8.14463445       2.01775334      12.92402736       0.00751118      -0.00883485      -0.00067681
C       10.43644148       2.64620977      12.22491292       0.00459235      -0.00905096      -0.01059208
C        8.50815309       3.15698311      10.81406265      -0.00570416       0.00046344       0.00222141
H        8.00614229       2.67549849      13.78930305       0.01066373      -0.01148817       0.00175568
H        8.58876541       1.08139711      13.26366522       0.01054354      -0.00891265      -0.00490933
H        7.18245810       1.81543455      12.46308777       0.00594932      -0.00865810       0.00305519
H       10.65394089       3.24832601      13.11262634       0.01152266      -0.00984156      -0.01196942
H       10.96836262       3.07052022      11.37472629       0.00043017      -0.01040821      -0.01397535
H       10.79462162       1.63165913      12.40186653       0.00230023      -0.01004308      -0.01311762
H        9.28624966       3.57387953      10.15725186      -0.00472867       0.00256243       0.00060219
O        9.66846459       8.64018767       6.49114012       0.00576520       0.00014156       0.00022845
N       11.46344118       7.26946231       6.13786161      -0.00056522      -0.00209510      -0.00340243
C       10.66469782       6.09444468       5.86522330      -0.00395545      -0.00038747      -0.00174602
C       12.89941967       7.14577603       6.11274184      -0.00135590      -0.00566150      -0.00494703
C       10.87090421       8.44983621       6.45294186      -0.00195587      -0.00086731      -0.00140507
H       10.79392061       5.34268341       6.64876688      -0.00371210      -0.00015101      -0.00147349
H       10.94933451       5.66185816       4.90269850      -0.00610287      -0.00125599      -0.00194243
H        9.61570072       6.38288607       5.84166264      -0.00329778       0.00113526      -0.00005256
H       13.25614730       6.46386185       6.89098917      -0.00239271      -0.00638673      -0.00524279
H       13.34881873       8.12112131       6.28908488       0.00131007      -0.00694558      -0.00468448
H       13.23280234       6.77286497       5.13985784      -0.00366469      -0.00657198      -0.00518963
H       11.60823423       9.23858439       6.66576545       0.00384921      -0.00284839      -0.00063893
O        0.70783803       7.81549136       0.69282577       0.00684810      -0.01871000      -0.00071302
N        2.69983760       8.80178608       1.23452993       0.00127259      -0.00111112      -0.00518368
C        2.12032131      10.06004523       1.65527873      -0.00825293      -0.00582679      -0.00584489
C        4.12902884       8.64358803       1.37547480       0.00242147       0.01047113      -0.00213439
C        1.91949627       7.78817687       0.79319708       0.01308239      -0.00909363      -0.00147662
H        2.54113152      10.88483903       1.07033472      -0.01593366      -0.00248992      -0.00684382
H        2.32350489      10.24808753       2.71323603      -0.00916548      -0.00315562      -0.00631657
H        1.04425796      10.01040491       1.48703192      -0.00823447      -0.01617689      -0.00504325
H        4.67367003       9.38571820       0.78782403      -0.00280493       0.01489705      -0.00144704
H        4.41760844       7.65107493       1.03278336       0.01157414       0.01305756      -0.00119955
H        4.44584262       8.75759673       2.41209238      -0.00093599       0.01339906      -0.00150442
H        2.51613436       6.89479345       0.53241315       0.01663902      -0.00415832       0.00005987
O        5.44050683      11.17367825       8.26862953      -0.02859533       0.02354753       0.01634181
N        4.18937895      11.05451039      10.17906866      -0.01051062       0.00242135       0.00078845
C        4.19635247       9.61402633      10.24002005      -0.00217152       0.00019653      -0.00491566
C        3.64976130      11.74993161      11.31964444      -0.01483829      -0.00441740       0.00028918
C        4.87169421      11.70330795       9.20402437      -0.00311989      -0.00868255      -0.02373075
H        3.17524867       9.22444550      10.23399706      -0.00087768      -0.00383256      -0.00306441
H        4.70369612       9.28449326      11.15137827       0.00049505       0.00160094      -0.00565875
H        4.74663117       9.24307170       9.37942671      -0.00264697       0.00565216      -0.00547671
H        2.58842779      11.52475024      11.45131412      -0.01214746      -0.01311752       0.00038414
H        3.77570729      12.81980124      11.18398930      -0.02395529      -0.00285316       0.00001274
H        4.19126397      11.46704478      12.22815778      -0.01132432       0.00047404      -0.00092238
H        4.85146469      12.79607645       9.34566735      -0.02221334       0.00765550       0.00123836
O        1.51119535       2.82671499      10.97949387      -0.00120986       0.01063311      -0.03336012
N        3.67638222       3.51428386      11.23889756      -0.00240034       0.00783101      -0.00840723
C        4.22526909       2.17799230      11.32078057      -0.00683328       0.00658060      -0.00431647
C        4.58493414       4.61630139      11.46028343      -0.00216490       0.00570178       0.00318471
C        2.34678049       3.70254691      11.14281419       0.00449646       0.01589853      -0.02394925
H        4.54063390       1.96994840      12.34584556      -0.02104324       0.00305962      -0.00099015
H        5.09852667       2.08191377      10.67709314       0.00035924       0.00598176       0.00604248
H        3.44528724       1.47761384      11.03826484      -0.00514930       0.00882317      -0.01611435
H        4.95037505       4.60218902      12.48780057      -0.00937579      -0.00156055       0.00532228
H        4.06003832       5.55462918      11.28236658      -0.00083745       0.00693363       0.00623771
H        5.43657059       4.52960304      10.78545072       0.00155285       0.00881107       0.00762996
H        2.07338225       4.77085596      11.21046538       0.00227997       0.01216215      -0.03415233
O        3.45994044      11.21884465       5.60525631      -0.01785511      -0.01339412      -0.00999069
N        3.65992346       9.17304335       6.61330368      -0.01090997      -0.00692967      -0.00224974
C        5.03540961       8.95995785       6.21201925      -0.00907411      -0.00080948       0.00013686
C        2.96250718       8.08632740       7.25798654      -0.00651735      -0.00782073       0.00012599
C        3.00926354      10.31291905       6.28628690      -0.01415765      -0.01017964      -0.00990671
H        5.11684144       8.30573056       5.33938651      -0.00496037       0.00033516      -0.00036824
H        5.58938097       8.50438193       7.03239001      -0.00911848       0.00061774       0.00078878
H        5.48500219       9.92273571       5.99750177      -0.01327455       0.00131255       0.00189673
H        2.73931204       7.27854828       6.55044144      -0.00380252      -0.01027009       0.00211921
H        2.02686820       8.44051780       7.69110509      -0.00762662      -0.01045924       0.00006440
H        3.57328559       7.67131818       8.06228180      -0.00446975      -0.00361042       0.00056952
H        1.98903605      10.34332321       6.70386283      -0.01705313      -0.01481139      -0.01213786
O       13.14020681       8.40572179       9.26670372       0.00002766      -0.00213087      -0.01045697
N       10.89877507       7.94774719       9.44100536       0.00175554       0.00502700       0.00003184
C       10.46865533       9.31397119       9.65362975       0.00639179       0.00664519       0.00036268
C        9.86553388       6.94203541       9.33709460      -0.00108857       0.00823504       0.00332762
C       12.19768081       7.62864866       9.31313979       0.00312209       0.00467163      -0.00631198
H        9.93445169       9.37974435      10.60346521       0.00528547       0.00720326      -0.00025174
H        9.79847903       9.62758198       8.85191351       0.00802350       0.00903173      -0.00015137
H       11.34453449       9.95660048       9.68114446       0.00832605       0.00340302       0.00187267
H        9.21511316       6.97268103      10.21353918       0.00156470       0.01119398       0.00479406
H       10.31620999       5.95305568       9.27340563      -0.00402732       0.00691959       0.00294394
H        9.26008111       7.10149712       8.44278482      -0.00232065       0.00961280       0.00445110
H       12.33812587       6.53370089       9.23410113      -0.00256710       0.00167078      -0.00689395
O       10.82245733       5.14870043       1.84806818       0.00777650       0.00204432       0.00292838
N       11.11133395       7.27712671       2.63156967       0.00480333       0.00284117      -0.00137861
C        9.69629561       7.57527839       2.74046041       0.00421129      -0.00039122       0.00059539
C       12.02837782       8.36567062       2.90048052       0.00314638       0.00500827      -0.00608825
C       11.53831217       6.10583139       2.14386408       0.00540000       0.00218058      -0.00092170
H        9.43523315       8.35603798       2.02707715       0.00139740      -0.00192180      -0.00007915
H        9.44854138       7.91952676       3.74560400       0.00524662       0.00026999       0.00054985
H        9.12747058       6.67764391       2.51831849       0.00629738      -0.00203392       0.00272474
H       11.91899628       9.14581513       2.14603067      -0.00001034       0.00238726      -0.00845119
H       13.04986344       7.99577016       2.87114757       0.00359902       0.00652860      -0.00703682
H       11.81616063       8.79168896       3.88188235       0.00413097       0.00751227      -0.00710836
H       12.63394482       6.07165553       2.03419400       0.00594354       0.00518956      -0.00358311
O       10.88220418       7.44702033      12.56113391       0.00070024       0.00396931       0.00366297
N        8.68715674       6.90411226      12.89228004      -0.00107414      -0.00051910       0.00590867
C        8.21250672       8.26917586      12.88832219      -0.00300565      -0.00143781       0.00429677
C        7.69991208       5.86149557      12.98381618       0.00008535      -0.00192108       0.01211512
C        9.99970971       6.62381339      12.71776197      -0.00535417      -0.00399959       0.00700255
H        7.57306772       8.44300017      13.75600799      -0.00312427      -0.00087816       0.00393000
H        7.65282949       8.49472741      11.97833920      -0.00260723      -0.00225532       0.00391561
H        9.07010308       8.93319265      12.94883609      -0.00326619      -0.00057612       0.00387033
H        7.09165264       5.98877530      13.88393820       0.00346792      -0.00070018       0.01444134
H        8.19396924       4.89333791      13.02530333       0.00147888      -0.00110447       0.01226225
H        7.03792387       5.87028311      12.11276518      -0.00343892      -0.00470524       0.01486364
H       10.19250641       5.53830331      12.73016683      -0.00032614       0.00095797       0.00898258
O        8.51312601       4.50621414       7.72139218       0.00652385       0.00231409       0.01189421
N        6.34924432       3.83048635       7.48666395       0.00437486      -0.00063494       0.00409549
C        5.80768443       5.16862472       7.53809610       0.00345465      -0.00202267       0.00620282
C        5.41265185       2.73603388       7.57018242       0.00441448      -0.00174174      -0.00182504
C        7.67696470       3.61564420       7.64566578       0.00011015      -0.00664556       0.00707002
H        5.30691874       5.34324830       8.49661992       0.00198224      -0.00400104       0.00563434
H        5.08086061       5.31114216       6.73545876       0.00517082      -0.00012584       0.00515178
H        6.61587045       5.88276701       7.40943231       0.00372410      -0.00118826       0.00912843
H        4.81916948       2.80215509       8.48713026       0.00164244      -0.00479562      -0.00329566
H        5.95236486       1.79096357       7.57005341       0.00415908      -0.00166553      -0.00380962
H        4.72761184       2.74918319       6.71768965       0.00655198       0.00118860      -0.00383818
H        7.94081472       2.55110086       7.67729342       0.00350568      -0.00044942       0.00605075
