196
Lattice="13.45751347411033 0.0 0.0 0.0 13.45751347411033 0.0 0.0 0.0 13.45751347411033" Properties=species:S:1:pos:R:3:forces:R:3 energy=-446659.53125 stress="0.000966641993727535 7.113470564945601e-05 0.0004901843494735658 7.113470564945601e-05 -0.000743612356018275 -0.0005620220908895135 0.0004901843494735658 -0.0005620220908895135 0.00040049449307844043" pbc="T T T"
Ho      13.39265996      11.78112791       1.04646880      -0.02745992      -0.02121446       0.03330636
O        1.23017304      12.04882136      13.01741553       0.01440904      -0.03427027      -0.02558073
H        1.78087582      12.30705842      12.28001155      -0.01173576      -0.04176831      -0.01332749
O        4.88296777      11.88079316       6.96973717      -0.00489748       0.00297463      -0.01037775
H        5.50298960      12.56303482       7.25760421      -0.00732619       0.00063568      -0.00828427
O       11.72708354      13.11310682       9.90687145       0.03027493      -0.01842973      -0.02021652
H       11.21856823      13.92303903       9.99644597       0.03426437      -0.00701901      -0.02625516
O        4.27155235      10.51039810       2.61790678      -0.00671606       0.00238191       0.00903124
C        5.50347564      10.26094517       1.92402261      -0.01220375      -0.00694379       0.00467052
C        6.62223531      11.17037828       2.38614085      -0.00810385      -0.01149887      -0.00440624
H        5.78615423       9.21260462       2.05662066      -0.01707006      -0.00435412       0.00717199
H        5.28820042      10.40971641       0.86645769      -0.02910801       0.00268400      -0.00147796
H        7.56141733      10.87973030       1.91084681      -0.01206681      -0.00718334      -0.01765870
H        6.41425198      12.20758532       2.13164955      -0.00960650      -0.00721192       0.00343519
H        6.75812164      11.09931571       3.46670633       0.00786178      -0.01244985      -0.00459024
H        4.43821161      10.33978763       3.55416121      -0.00393170       0.00768001       0.00713792
O       13.34368349      13.28624568       6.74897669      -0.01255554      -0.00279216       0.02685410
C       12.06153069      13.16324535       6.14580575      -0.00617346       0.00000337       0.01223524
C       11.60298380      11.72050249       6.04280188      -0.00938380       0.00142038       0.00965031
H       11.32210309      13.75415140       6.69800173      -0.01040387       0.00331524       0.00276124
H       12.15272595      13.60639116       5.15046387       0.00571216      -0.00194575       0.01237303
H       10.61106862      11.67167456       5.58535382      -0.00674039       0.00338848       0.00348855
H       12.29578326      11.12825966       5.44184859      -0.00690401      -0.00125726       0.01459040
H       11.54456255      11.27185805       7.03747802      -0.01661473       0.00266938       0.01000617
H       13.23738591      13.11274057       7.69093418      -0.02379479      -0.00278967       0.02436823
O        6.73035997       0.59722930       7.23940522      -0.00339940       0.00040844      -0.00329792
C        7.26345550       1.65184259       8.01848509      -0.00184011       0.00074086      -0.00276434
C        8.78427574       1.67111106       7.99421493      -0.00198174      -0.00157294      -0.00271638
H        6.86958919       2.61599384       7.67371308      -0.00034675       0.00140196      -0.00526057
H        6.90202617       1.51152260       9.03945015      -0.00335506       0.00228238      -0.00382066
H        9.17539522       2.49828825       8.59179314      -0.00093621      -0.00167111      -0.00347462
H        9.17562033       0.73657653       8.39515107      -0.00375253      -0.00176366      -0.00136326
H        9.15348922       1.78297973       6.97287829      -0.00175565      -0.00339777      -0.00253253
H        6.67494423       0.86961754       6.30577161      -0.00289641       0.00081858      -0.00298489
O        7.04684832       7.18094469      10.23588144       0.00610888      -0.00679493       0.00784808
C        7.19470854       6.17718622       9.25014526       0.00726497      -0.00683248       0.00783181
C        7.71842456       4.91418780       9.89316987       0.00065209      -0.00808203       0.00998414
H        6.23023953       5.97444562       8.76144424       0.00876421      -0.00370447       0.00310913
H        7.87626544       6.52348652       8.46445528       0.01190808      -0.00866729       0.01054740
H        7.72602362       4.09475036       9.17619249       0.00367036      -0.00714138       0.00923844
H        8.73009187       5.06351360      10.27477039      -0.00150502      -0.01013295       0.01620398
H        7.07248355       4.61500570      10.71898667      -0.00505021      -0.00767015       0.00553606
H        7.26647351       8.02393081       9.78579665      -0.00150885      -0.00511989       0.00440710
O        4.72550763       3.41275860       9.71627990      -0.00551620      -0.00248277       0.00894243
C        3.69626887       4.10310418      10.41919493      -0.00620839       0.00417212       0.00161600
C        3.69114640       5.59434846      10.15293165       0.00323524       0.00358897       0.00025844
H        2.71820537       3.66230010      10.18509518      -0.00737715       0.00919683      -0.00410217
H        3.89273116       3.89878808      11.47432352      -0.01431742       0.00446905       0.00349703
H        2.87214229       6.07745363      10.68923606       0.00409120       0.00940320      -0.00512525
H        4.62948900       6.05986999      10.45625480       0.00463465      -0.00097587       0.00396738
H        3.54862983       5.80743174       9.09057832       0.00982204       0.00341662      -0.00137690
H        4.58978037       3.55755426       8.77547771       0.00248444      -0.00184233       0.00887556
O        1.37885398       6.24724856       6.79214235       0.00073233       0.00287241      -0.00384125
C        0.96265666       5.21048504       7.66257361       0.00593055       0.00817096       0.00052090
C        1.56486200       3.86703540       7.28047129       0.00417575       0.00612080       0.00267401
H        1.18902359       5.45241281       8.70564132       0.00954080       0.01047783      -0.00041986
H       -0.12738442       5.14237109       7.58136185       0.00484508       0.00672282       0.00570662
H        1.18432041       3.06301375       7.91329954       0.00650959       0.00757425       0.00597171
H        1.30751343       3.62940995       6.24558642       0.00058109       0.00375227       0.00420681
H        2.65453312       3.89298704       7.37626803       0.00448889       0.00684605      -0.00133466
H        2.12694526       6.75292750       7.16041158       0.00150337       0.01041812      -0.00330399
O        7.82470552       9.10774429       8.56771822      -0.01376605      -0.00263715       0.00403890
C        8.84990225      10.04464501       8.43249911      -0.01374030      -0.00440490       0.00422937
C        8.38183797      11.44087668       8.08336926      -0.01261857      -0.00315458       0.00641902
H        9.42188056      10.06714746       9.37077832      -0.01228753      -0.00573918       0.00370681
H        9.57473413       9.72172970       7.66214863      -0.01458046      -0.00404012       0.00270981
H        9.24056261      12.10989260       8.00551562      -0.01239958      -0.00309448       0.00743852
H        7.85175085      11.45602329       7.13085862      -0.01208918      -0.00117403       0.00643316
H        7.70083180      11.83288505       8.83987741      -0.01305801      -0.00453403       0.00699341
H        6.99593101       9.24930165       7.91332389      -0.01350372      -0.00154499       0.00455532
O        5.83971050       9.30201216       7.11008644      -0.01144916       0.00264645       0.00070393
C        6.18826923       9.29210640       5.77406255      -0.00334146      -0.00082704       0.00050557
C        5.76304915       8.01225569       5.06608192       0.00060797      -0.00139147       0.00113341
H        5.72347998      10.15443131       5.24874763       0.00052196      -0.00082368      -0.00263020
H        7.27972354       9.43158264       5.63219455      -0.00163329      -0.00083309       0.00791068
H        6.03735438       8.02239947       4.00686265       0.00623101      -0.00240653       0.00312470
H        6.23057193       7.14264319       5.53510693      -0.00137220      -0.00059257       0.00487003
H        4.68197425       7.89505726       5.15379530       0.00048789      -0.00156208      -0.00378159
H        5.28882132      11.01835764       7.20617075      -0.00806555       0.00244567      -0.00698216
O        3.89049486       2.87748162       4.61156429      -0.00063163       0.00483685      -0.00051779
C        4.47073795       4.19627853       4.59506688      -0.00397107       0.00645746      -0.00161186
C        3.45524459       5.26636219       4.28643480      -0.00594315       0.00316012      -0.00696385
H        4.97490776       4.38853717       5.54967175      -0.00718610       0.00980953      -0.00043103
H        5.24500985       4.14759283       3.82568545      -0.00151041       0.00659059       0.00084463
H        3.96023991       6.22115410       4.14802999      -0.00807276       0.00391102      -0.00852291
H        2.89991465       5.02672695       3.38099170      -0.00330312      -0.00107823      -0.00741620
H        2.73901653       5.39170509       5.09969457      -0.00784837       0.00353869      -0.00861177
H        3.20225971       2.85736006       5.28492119      -0.00210750       0.00434230      -0.00179589
O        1.65515108      11.59618260       2.62804935      -0.00619358      -0.00124988       0.01242154
C        1.55561784      11.83617465       4.06785565      -0.00326267       0.00068757       0.00506011
C        2.66957645      12.70244181       4.59242213      -0.01147342       0.01662597       0.00044592
H        0.59027637      12.32466460       4.20875023      -0.00893047      -0.00597198       0.01068333
H        1.52205839      10.86690200       4.57125227       0.00841222       0.00637883       0.01354735
H        2.50106999      12.88756849       5.65267399      -0.00861214       0.02393051      -0.00000045
H        3.64411214      12.22247641       4.51681516      -0.00541824       0.02427036       0.00157247
H        2.70385847      13.65709120       4.06525121      -0.02027214       0.01330014      -0.00743948
H        2.55459931      11.25136054       2.44488280      -0.00477207      -0.00437610       0.01133426
O       10.31152989       8.74204391       5.21724597       0.00774516       0.00592756       0.00271425
C        9.77352312       7.57802021       5.85027860       0.00717254       0.00300619      -0.00166336
C       10.66628156       7.06086948       6.96195639       0.00571167       0.00013775      -0.00218451
H        8.77268322       7.78801558       6.24423723       0.00597334       0.00127554      -0.00329164
H        9.67677866       6.84103123       5.05258573       0.00885933       0.00584403      -0.00486761
H       10.25076939       6.14556191       7.39091360       0.00551356      -0.00130150      -0.00579121
H       11.67296365       6.85890530       6.59524520       0.00608712       0.00212175      -0.00131901
H       10.73126039       7.79756617       7.76601940       0.00370071      -0.00208448       0.00009815
H       10.33854314       9.44473370       5.87495244       0.00840092       0.00306348       0.00614426
O       12.70008313       7.23192944      10.66189709       0.00532907      -0.00876153      -0.00472760
C       11.49336421       6.63224115      11.12450913       0.00467828      -0.00416662       0.00164050
C       10.30764082       7.57157814      11.05553436       0.00677878      -0.00157818       0.00165193
H       11.28009006       5.71470052      10.56144129       0.00079320      -0.00610074       0.00567299
H       11.69648996       6.33626637      12.15594018       0.00757848      -0.00059886       0.00190303
H        9.41572878       7.13546973      11.50722827       0.00704254       0.00180079       0.00509924
H       10.54100967       8.51738524      11.55271541       0.01090171      -0.00060543      -0.00200506
H       10.04306471       7.80830077      10.02295808       0.00495715      -0.00430976       0.00173014
H       12.55743996       7.52422628       9.75657221       0.00258607      -0.01240437      -0.00557037
O        1.18424715       3.95972913       2.10897574       0.00759733      -0.00950384      -0.01430240
C        0.99694495       4.58492512       0.83942949       0.00395016      -0.00546250      -0.01186493
C        2.17852207       5.44192027       0.44268977      -0.00185722       0.00418389      -0.00818510
H        0.78294466       3.82980632       0.07267894       0.00922796      -0.00381410      -0.01502374
H        0.10324787       5.20000491       0.95004650      -0.00062549      -0.01208386      -0.00970387
H        2.00140729       5.91975425      -0.52184319      -0.00411896       0.00641935      -0.00656395
H        2.34738119       6.22275024       1.18500849      -0.00736404       0.00280632      -0.00507820
H        3.08279382       4.83286353       0.35610873       0.00245962       0.01068158      -0.00952786
H        1.93008723       3.35580949       2.04411903       0.01030762      -0.00552034      -0.01705256
O        9.23362095       4.69330656       3.36462382      -0.01122165       0.01378852      -0.01180124
C        9.39676036       4.10231591       4.64754877      -0.00792772       0.00516222      -0.01646435
C        8.20698793       4.32104252       5.56380119      -0.00094318       0.00630130      -0.00735715
H        9.61449511       3.02857865       4.56054658      -0.01493654       0.00422013      -0.02359321
H       10.29115412       4.57215092       5.06306890      -0.00256568      -0.00292006      -0.01870924
H        8.46406102       4.07301774       6.59489480       0.00382635      -0.00430012      -0.01116100
H        7.89022267       5.36407570       5.53402592       0.00645667       0.00861099       0.00350551
H        7.36636048       3.68790138       5.27362249      -0.00711939       0.01457152      -0.00715715
H        8.42558040       4.36915965       2.94926091      -0.01464702       0.02027789      -0.01180381
O       13.60145602       8.09193893       2.27572411       0.00777680       0.00917661      -0.00775319
C       13.45685505       7.58533112       3.61491806       0.01031548       0.01339015      -0.00549102
C       12.58327793       6.35028002       3.68967153       0.02197582       0.00509691      -0.00165847
H       14.46241715       7.36157290       3.97498765       0.01109922       0.02467696      -0.00311176
H       13.03750638       8.36504017       4.26598351       0.00129339       0.01200080      -0.00930926
H       12.53306254       6.00716775       4.72440398       0.02400767       0.00885092      -0.00032598
H       11.56576420       6.55616031       3.35174144       0.02047846      -0.00680514      -0.00407551
H       12.98979523       5.53497635       3.09278084       0.03118578       0.00647023       0.00214447
H       12.76736271       7.91598097       1.81031710       0.01022130       0.00251365      -0.00790611
O        3.37500237       8.20414011       7.48745804      -0.00717935      -0.00991857      -0.01504138
C        2.70743437       9.44192957       7.73201371       0.00897950       0.01832607       0.03112042
C        1.28330683       9.38135991       7.22923465      -0.00186998       0.00367215       0.01487541
H        2.71653042       9.66667887       8.80694118      -0.00929570       0.00675219       0.00645655
H        3.24825742      10.25172230       7.23766368      -0.01607400       0.00325054      -0.00535482
H        0.81156969      10.35991427       7.33240899      -0.01751177       0.01072663       0.01370738
H        1.26364156       9.08996838       6.17830856      -0.02170158      -0.00205198      -0.01767133
H        0.69094096       8.64637727       7.77557011      -0.01259565      -0.00422308       0.01616244
H        4.33768911       8.44269168       7.40097764      -0.00852434       0.01067650       0.00060259
O        6.18632249       1.36628822       4.65296387      -0.00071347       0.00497526      -0.00082707
C        6.75385899       1.45194866       3.35188529      -0.00246014       0.00263515      -0.00180405
C        5.71028575       1.37734804       2.25558314      -0.00388467       0.00165775      -0.00049189
H        7.32900303       2.38209149       3.24550420      -0.00141534       0.00180209      -0.00374784
H        7.46326607       0.62486218       3.27203539      -0.00342017       0.00133628      -0.00128461
H        6.19267925       1.33898650       1.27670974      -0.00507169      -0.00046317      -0.00095783
H        5.08467340       0.49176150       2.37577571      -0.00450921       0.00276196       0.00165080
H        5.06386109       2.25590912       2.27688082      -0.00295196       0.00254051      -0.00072200
H        5.31598493       1.81029354       4.66173968      -0.00105481       0.00620696      -0.00066085
O       11.45773479      11.94949522      12.61944591      -0.00061360       0.00703275      -0.00997618
C       10.14731059      11.39250304      12.33659034       0.00369989       0.00531375      -0.01211201
C        9.02824626      12.30028104      12.78713222       0.00030190       0.00573826      -0.01461321
H       10.11227502      11.22435089      11.26052786       0.00297686       0.00393042      -0.01104808
H       10.06173818      10.41742059      12.82802254      -0.00024460       0.00640950      -0.01052348
H        8.06616326      11.85976548      12.52157728       0.00004379       0.00482348      -0.01464198
H        9.04193895      12.44351743      13.87043013      -0.00052413       0.00801426      -0.01453051
H        9.09751872      13.27790535      12.30718806      -0.00074647       0.00513083      -0.01681744
H       11.83623663      12.78989027      10.81411850       0.01958169      -0.01150549      -0.02167776
O       11.05838368       8.03985149       1.07115001       0.00578568       0.00221720      -0.00438535
C       10.38119137       8.99265297       1.89432888       0.01076421      -0.00587079       0.00550276
C       11.19210722      10.27316666       2.08481850       0.00183363       0.00197428      -0.00564316
H        9.40445295       9.23396234       1.46068986       0.00390491      -0.01116696       0.02162381
H       10.21106519       8.51559859       2.85615716       0.02924651      -0.00448647       0.00860605
H       10.64998746      10.98837062       2.70710134       0.00989352      -0.00301594       0.00789827
H       12.16102369      10.04064779       2.55771126       0.01408553       0.00717719      -0.02157845
H       11.31998008      10.72780705       1.09188789      -0.01418708       0.01029992      -0.00610308
H       10.94550402       8.27118272       0.14341242      -0.00877947       0.00017697      -0.00025332
O        6.74643393       4.77779531       1.25228953       0.01439412      -0.00049126       0.02290595
C        5.88156511       5.89415732       1.48851478       0.00693593      -0.00215656       0.00425509
C        5.63867148       6.73421605       0.25437911       0.01485926      -0.01455706      -0.00540268
H        4.92510778       5.54483795       1.89427622       0.00461352      -0.00310718      -0.00136189
H        6.37578489       6.47306417       2.27067343      -0.00288427       0.00681949       0.00372019
H        4.98111627       7.57156752       0.49644800       0.01002574      -0.01424268      -0.01888855
H        6.56649280       7.12324419      -0.16444576       0.01715645      -0.01462828      -0.00138306
H        5.13862446       6.15562106      -0.52591637       0.02333045      -0.02322897      -0.00446945
H        6.47338743       4.36770040       0.42611709       0.02387704      -0.00982380       0.02464917
O       12.14749666      -0.05201843       1.32742739       0.00690794      -0.00024730       0.00136030
C       11.32091912       1.08837693       1.26122300       0.00677323      -0.00582749       0.01288195
C       11.74565827       2.21292236       2.17921818       0.00505796      -0.01556569       0.01984918
H       11.30265414       1.46124760       0.22380869       0.00674114      -0.00251004       0.01813549
H       10.28692275       0.79765918       1.50346192       0.01137328      -0.01340255       0.01057655
H       11.05314799       3.05321077       2.08668879       0.00318451      -0.01745437       0.02642952
H       11.73987002       1.88380779       3.21985970       0.00672810      -0.02006166       0.01771989
H       12.74762907       2.56839819       1.94329706       0.00237677      -0.00756653       0.02296115
H       11.37247124      -0.81045430      -0.14974295       0.00234827       0.00261709      -0.01168722
