193
Lattice="13.618222462857975 0.0 0.0 0.0 13.618222462857975 0.0 0.0 0.0 13.618222462857975" Properties=species:S:1:pos:R:3:forces:R:3 energy=-305934.3125 stress="-0.002286746399477124 0.0004007266543339938 0.0003257137141190469 0.0004007266543339938 -0.0024360863026231527 -0.0004922012449242175 0.0003257137141190469 -0.0004922012449242175 -0.0037933001294732094" pbc="T T T"
K       13.49297219      13.50927449      -0.21065943      -0.01127138      -0.00652151       0.01163904
N       11.87047462      13.77397537       3.07259751      -0.01489484      -0.00107139       0.00574708
C       12.08011890      14.22789470       2.01660098      -0.02822000       0.01671517      -0.02403569
S        2.58256335       2.67497298      11.93121072      -0.01032108       0.00022554       0.01525879
O        1.66386157       1.78869879      12.72007223      -0.00400108      -0.00391501       0.01402551
C        4.24318502       1.98317862      12.03044048      -0.00821507       0.00122643       0.00595130
C        2.91049157       4.11560338      12.95524582      -0.00180158      -0.00103223       0.01628309
H        4.24272221       1.05529718      11.45948961      -0.01683413      -0.00065714       0.00989652
H        4.48978271       1.81788359      13.08045293      -0.00522299       0.00270082       0.00520429
H        4.93809345       2.70322342      11.59599674      -0.00597009      -0.00408088       0.00041657
H        3.63444761       4.73469050      12.42664290      -0.00430943       0.00072742       0.01514499
H        3.29953911       3.76998344      13.91293105       0.00352223      -0.00153519       0.01347777
H        1.96328354       4.63816325      13.07623648       0.00090645       0.00110493       0.02233712
S        4.37453239       1.51738568       2.80455699       0.00435710      -0.02219993       0.00720549
O        4.81720803       2.59087299       1.85129077      -0.00347674      -0.01147544       0.01656771
C        5.55600886       0.17914269       2.60959257       0.00058034      -0.02067906      -0.01793262
C        2.94003638       0.74548759       2.03948836      -0.00192499      -0.01306549       0.01024753
H        6.48207079       0.52195294       3.06892761       0.00506355      -0.02751762      -0.02268338
H        5.71427230       0.00892571       1.54482755      -0.00927295      -0.00954135      -0.02080619
H        5.19581822      -0.72637521       3.09871029       0.00277262      -0.02486289      -0.02442153
H        2.68808463      -0.17225530       2.57120506       0.00357611      -0.01936781       0.00132726
H        3.15201187       0.55822073       0.98760281      -0.01100212       0.00019624       0.00639720
H        2.11888053       1.45848928       2.11051842      -0.00127393      -0.01440957       0.02586260
S        9.15676425       5.96311473       2.04498155       0.00543964      -0.00609535       0.00030506
O        7.92738556       6.80029448       2.21699610       0.00400567      -0.00830865       0.00032920
C        8.63903880       4.23119932       2.06178845       0.00923672      -0.00676006       0.00709954
C        9.99036079       5.94480359       3.62720424       0.00831529       0.00109483      -0.00156808
H        7.95815312       4.09262225       1.22265319       0.00825168      -0.01045284       0.00879529
H        8.13379250       4.02202184       3.00040400       0.01112341      -0.00380450       0.00848025
H        9.51277020       3.58906574       1.96080354       0.00999041      -0.00614097       0.00910580
H       10.89349931       5.33545897       3.56545953       0.00938366       0.00279813      -0.00005626
H        9.30167919       5.55561077       4.37639324       0.01019330       0.00169680       0.00007989
H       10.22715260       6.97768715       3.87245464       0.00649587       0.00243224      -0.00609012
S        8.64193928       2.27197221      12.84331868       0.00280827      -0.00760663      -0.00390148
O        7.74730913       3.26837285      12.19254234      -0.00047565      -0.00968778      -0.00242138
C       10.30097197       2.98279606      12.95259050       0.00172341      -0.00660896      -0.00004607
C        9.01313568       1.04601771      11.57269094       0.00836226      -0.00435579      -0.00505489
H       10.18101865       3.94986367      13.43436960       0.00098119      -0.01265490       0.01088184
H       10.70574421       3.13608763      11.95358067      -0.00244641       0.00752662       0.00009000
H       10.92587305       2.33078377      13.57235327       0.00166462      -0.01559480      -0.00960352
H        9.52445654       0.18660896      12.00501617       0.01321378      -0.00178117      -0.00546904
H        9.60535625       1.49728799      10.77668418       0.00649340      -0.00018959      -0.00382698
H        8.04532519       0.74631884      11.17585701       0.01068352      -0.00927512      -0.00611589
S       11.13701013       6.59514653       7.98402099       0.00121152       0.00650382       0.01731890
O       10.25600148       7.75334644       7.67993812      -0.00278091       0.00622416       0.02764755
C       12.79534000       7.27040134       8.22543563       0.00226414       0.00553560       0.00771378
C       11.44043137       5.71975658       6.46313684      -0.01021840       0.01322003       0.01185697
H       12.71796674       7.98139687       9.04545529       0.00725308       0.00541809       0.00791553
H       13.10371606       7.81745932       7.33339467      -0.00222341       0.00573071       0.00664856
H       13.49551087       6.46841295       8.46508364       0.00198434       0.00419748       0.00312596
H       12.12548940       4.89393419       6.64238837      -0.00861724       0.01277346       0.00264239
H       11.84385127       6.38445015       5.70134324      -0.01623604       0.01754574       0.01249540
H       10.47999301       5.31387931       6.15792226      -0.01197672       0.01403783       0.01664053
S        4.00299209       9.66661467       2.58799586      -0.00101966      -0.00197780      -0.00238395
O        4.45056151      10.84063190       3.40832292      -0.00380081       0.00256646      -0.00792456
C        2.93232082       8.64431132       3.60184609       0.00934497      -0.00100520       0.00833434
C        5.38902735       8.54345452       2.42919794       0.00459784       0.00506118      -0.00176576
H        2.03615624       9.22300428       3.80360490       0.01026249      -0.00189510       0.01393218
H        3.41825977       8.37785242       4.53863355       0.01778828       0.00425481       0.00515829
H        2.68397511       7.76349373       3.01282791       0.00667363      -0.00404758       0.01454646
H        5.06608247       7.68753571       1.83887144       0.00823963      -0.00025492       0.00463784
H        5.74413960       8.21398273       3.40426672       0.00988323       0.01317990      -0.00123376
H        6.17612941       9.04536014       1.86961287      -0.00057422       0.00668938      -0.00716630
S        7.64890532      11.91146962      10.24573555       0.02051234      -0.01741034      -0.00491118
O        6.89821515      12.82120624       9.31716529       0.03804481      -0.01281542      -0.01434195
C        7.45476841      10.22403855       9.66584562       0.01000701      -0.01523697      -0.00595017
C        6.65786936      11.74785324      11.73291447       0.00328952      -0.00809946      -0.01554668
H        7.85200399      10.20617051       8.65380333       0.02139413      -0.02022523      -0.00079083
H        6.41255728       9.89953347       9.68766983       0.00650427      -0.00341497      -0.01682753
H        8.07082537       9.58219602      10.29351950      -0.00443427      -0.02141142       0.00121731
H        7.07376758      10.96205744      12.36826529      -0.00946588      -0.01255812      -0.01330489
H        5.64310460      11.48558233      11.43025837       0.00427973       0.00101675      -0.02553131
H        6.66989903      12.71119212      12.24219930       0.00702058      -0.00914443      -0.01408932
S        2.68103242      11.04737905      -1.04631203      -0.00858623      -0.00636339      -0.02227989
O        1.85312482      12.26610548      -1.30957651      -0.01159948      -0.00952125      -0.02759579
C        1.71475621      10.04225302       0.09303982      -0.00621793      -0.00544515      -0.01951516
C        3.99951921      11.59373513       0.05430992      -0.01119083      -0.00408968      -0.01999456
H        0.75969748       9.87826071      -0.40272009      -0.00412759      -0.01168032      -0.02077885
H        1.55397135      10.57942150       1.02849532      -0.01027302      -0.00124934      -0.02276511
H        2.22524394       9.09788458       0.27022365      -0.00309318      -0.00235045      -0.01292620
H        4.76505255      10.82221321       0.13691354      -0.01161838      -0.00413328      -0.01620137
H        3.60420793      11.85641560       1.03254137      -0.01380984      -0.00271633      -0.02157247
H        4.40895265      12.47299641      -0.43835702      -0.00912394      -0.00544967      -0.02007468
S        3.56208868       9.46717243       8.32216421       0.00117368       0.00844294      -0.00236094
O        4.30426273       8.73269232       9.40778280       0.00463480       0.01370639      -0.00177586
C        4.14090223      11.16920267       8.37366659      -0.01376238       0.01298785       0.00003782
C        1.91561164       9.80891389       8.94939324      -0.00400382      -0.00962935      -0.00678024
H        5.18984751      11.18924403       8.09347034      -0.01317094       0.02122958       0.00264615
H        4.02717502      11.55473461       9.38700378      -0.01993668       0.01113022      -0.00013106
H        3.55470376      11.73819271       7.65820766      -0.01742779       0.00773862      -0.00108552
H        1.38676450      10.43102064       8.23384350      -0.01308675      -0.02440096      -0.01216951
H        2.00072652      10.29688170       9.91929916      -0.01362400      -0.00017856      -0.01117602
H        1.38874918       8.86325637       9.04644823       0.01226767      -0.01719831       0.00153846
S       10.66980595       6.86742983      10.96091167       0.00886691       0.00047255       0.02260804
O        9.56339160       5.88171593      11.10923133       0.01322377      -0.00475776       0.01778296
C       12.18755145       5.96985385      11.36504997       0.01257336       0.00805226       0.02390292
C       10.63737655       7.94968617      12.39077090      -0.00003041      -0.00448328       0.02562898
H       12.27093295       5.18723310      10.61189528       0.02030110       0.01145308       0.02161704
H       12.09232984       5.52779573      12.35662663       0.01243801       0.00405964       0.02189849
H       13.04867908       6.63437827      11.30906025       0.00812102       0.01379289       0.02905576
H       11.49314218       8.62475003      12.33822842      -0.00370352       0.00019360       0.02931065
H       10.63940987       7.36058438      13.30884221       0.00157366      -0.00799897       0.02298319
H        9.71750005       8.52997043      12.32863672      -0.00326046      -0.00987221       0.02566463
S       10.55965916      10.54091165       0.79428206      -0.00302720       0.02184516      -0.01011699
O       11.96720391      11.01497953       0.55393923      -0.00692403       0.02904922      -0.01797408
C        9.64383709      11.85130548       1.61534441      -0.00472426       0.01364154       0.00088847
C       10.58555879       9.42469011       2.21451115       0.01361555       0.01810157      -0.01428288
H        9.54079386      12.67078840       0.90705390      -0.01682836       0.01379487       0.00270896
H       10.19645545      12.20334180       2.48610034       0.00244823       0.01715448      -0.00595254
H        8.66322734      11.44463888       1.86616835       0.00462472       0.00179194       0.01621465
H        9.56604673       9.08413634       2.40752687       0.01691248       0.01438775      -0.00559737
H       10.99098118       9.94138091       3.08362698       0.01983346       0.01699835      -0.01678507
H       11.20936507       8.57434291       1.94459004       0.01393712       0.02140450      -0.02241866
S        6.70919530       7.90731366      12.16048021      -0.01465574      -0.01872605      -0.01234341
O        7.15169393       8.94083932      13.16664642      -0.00519729      -0.01270711      -0.02298689
C        4.91526239       7.85814263      12.22522612      -0.01398408      -0.01321118       0.00063770
C        7.00049316       6.28433461      12.84287649      -0.01187373      -0.01276386      -0.00048187
H        4.54097959       8.78387168      11.79532644      -0.01371551      -0.01646779      -0.00599016
H        4.60077154       7.72979964      13.26175483      -0.00755363      -0.00248342       0.00362967
H        4.58993370       7.02774679      11.60074579      -0.01947891      -0.01850787       0.01114720
H        6.58177897       5.55509079      12.15153159      -0.02036878      -0.01814988       0.01109423
H        6.56948682       6.22384319      13.84074165      -0.00113104      -0.00191645       0.00437933
H        8.07733482       6.14073525      12.86781693      -0.01202618      -0.01474146      -0.01046165
S        8.55746436       3.17687892       6.99062659      -0.00157070      -0.01119578       0.00416613
O        8.48567229       4.52699107       6.33689858      -0.00094894      -0.01820278      -0.00956190
C        7.09424412       2.30463536       6.40763313       0.00000626      -0.01884775       0.01264311
C        8.05946854       3.40959606       8.70047931      -0.00446957       0.00670257       0.00025070
H        7.26604399       2.09843470       5.35252106       0.00051545      -0.03132309       0.01551041
H        6.23169264       2.96268355       6.51154168      -0.00089951      -0.01921603       0.00501315
H        6.96461111       1.37340031       6.95857224       0.00134329      -0.01214117       0.02362487
H        7.86343146       2.43819843       9.15406956      -0.00355526       0.01204237       0.01108213
H        7.17316862       4.04098617       8.72913076      -0.00564113       0.00518019      -0.00900400
H        8.86572562       3.91449030       9.23104148      -0.00614572       0.01330128      -0.00397672
S        4.64748025       4.94160640       9.10598414      -0.00432240      -0.00252083       0.00218511
O        4.94044064       4.87646125      10.57245016      -0.01427406      -0.00131914       0.00374973
C        2.97402166       5.58892334       8.97132516       0.00064683       0.00618458      -0.00964554
C        4.28619089       3.25791818       8.56747378      -0.00932857      -0.00150925       0.00444851
H        3.03080568       6.62232104       9.31249581       0.00443935       0.00675471      -0.01267038
H        2.32426285       4.98763270       9.61011053      -0.00611813       0.01239017      -0.01112081
H        2.65663978       5.54782268       7.93131171       0.00646121       0.00431466      -0.01109597
H        4.12102703       3.28178352       7.49020226      -0.00750821      -0.00320301       0.00431696
H        3.42412073       2.87115180       9.11045358      -0.01147325       0.00329117       0.00401832
H        5.16837583       2.66323607       8.79653944      -0.01199155      -0.00397321       0.00725693
S        0.85861309       4.26904048       4.77074184      -0.01485920       0.00306839      -0.00307982
O       -0.59135042       4.28639388       4.42701439      -0.00838244       0.02202341       0.01352352
C        1.05617748       3.32724520       6.30413862      -0.00628118       0.00424266      -0.00129545
C        1.18791822       5.90087595       5.49280602      -0.00385402       0.00251329      -0.00565585
H        0.83596166       2.28824246       6.07307750      -0.01406151       0.00603351       0.00033557
H        0.36060036       3.69629167       7.05759008       0.00181949       0.01053895       0.00194101
H        2.09001530       3.42665867       6.62274459      -0.00358285       0.00207083      -0.01075990
H        2.21677232       5.96960645       5.83082619      -0.00110869      -0.00503722      -0.01057059
H        0.49521192       6.05552371       6.31321539       0.00169034       0.00709186      -0.00257820
H        0.99118739       6.63245327       4.71119016      -0.00147142       0.00315562      -0.00545147
S       11.10243770      10.74955510       8.84026562      -0.02004600       0.00517783      -0.00374210
O       12.56871805      10.44477435       8.79845801      -0.02573621      -0.01911569       0.00300659
C       10.52020680      10.81569310       7.13876476      -0.01339716       0.00763434      -0.00594616
C       10.98952416      12.52283482       9.17569770       0.00979064       0.00845355      -0.01464995
H       10.67575796       9.81972153       6.72977250      -0.04104666       0.00183463       0.00008803
H       11.06114466      11.58583806       6.59098432       0.00938302      -0.01210877      -0.00882669
H        9.45015700      11.02024262       7.13346731      -0.00585207       0.04102905      -0.00937285
H        9.95647747      12.85021179       9.07263931       0.01886977       0.02846113      -0.03182543
H       11.64382053      13.05599621       8.48623960       0.02946571      -0.01028212      -0.00889279
H       11.31711104      12.66919419      10.20376492      -0.00089039       0.00917149      -0.01174249
S        7.11969051       8.17619106       5.47097313       0.02185416       0.01196218      -0.00234270
O        8.55348246       8.52183242       5.27117678       0.01658106       0.02740765      -0.01522946
C        6.27439287       9.72393065       5.83714404       0.01117739       0.00434661       0.00159666
C        6.88564100       7.39210468       7.07467486       0.03684814       0.01072824       0.00072807
H        6.34015512      10.34217231       4.94478241       0.00232428       0.00360368       0.00071357
H        6.76940976      10.20564502       6.68058120       0.00936858       0.01018026      -0.00095797
H        5.22069352       9.54010569       6.05048932       0.01402791      -0.00491973       0.00590985
H        5.81107294       7.30414372       7.24721320       0.03838162       0.01172891       0.01223722
H        7.35686067       7.97339917       7.86473550       0.04599093       0.00966771      -0.00469129
H        7.34188578       6.40501272       7.01368883       0.03452970       0.01007363      -0.00279388
S        4.42966256       5.47317763       4.55642664       0.01016533      -0.00337815       0.00954157
O        3.93273475       4.37538650       5.46251564       0.00349969      -0.00150394       0.00762063
C        3.58107196       5.27139889       2.96834633       0.01564685      -0.00302434       0.00747746
C        6.03373275       4.97297714       3.97281177       0.01035398      -0.00768313       0.01482850
H        2.55577291       5.61433134       3.06639762       0.01332103      -0.01028738       0.00636586
H        3.62015344       4.22077607       2.69210164       0.02403360      -0.00181285       0.00426347
H        4.10844308       5.85609891       2.21676487       0.01313097       0.00378803       0.01138632
H        6.42764005       5.74255677       3.30384617       0.01286469      -0.00890926       0.01509713
H        5.91919179       4.02015057       3.45459654       0.00936161      -0.00769719       0.01544181
H        6.68467673       4.89202114       4.84391658       0.00834264      -0.00908612       0.01591995
S        1.65484148      11.67184710       4.95495121      -0.01188239       0.01187348      -0.00442553
O        2.11266656      10.60821461       5.90574083      -0.01382405       0.01329923      -0.00276864
C        2.50780438      13.18165028       5.44523479      -0.01489726       0.01302022      -0.00367549
C        0.00302140      12.13259801       5.46852482      -0.01259321       0.01263550      -0.00793046
H        3.56511067      13.01603333       5.24270113      -0.01460660       0.01645939      -0.00369264
H        2.34547102      13.35427704       6.50984694      -0.01548062       0.01160095      -0.00384404
H        2.13830880      14.02196477       4.85967805      -0.01703559       0.01242323      -0.00280023
H       -0.40268487      12.91590966       4.82095031      -0.01298188       0.00969526      -0.01063582
H        0.02253786      12.40378070       6.52580584      -0.01314778       0.01735438      -0.00932753
H       -0.59246305      11.22978650       5.34212901      -0.01179589       0.01189654      -0.00469437
