199
Lattice="12.55431532746276 0.0 0.0 0.0 12.55431532746276 0.0 0.0 0.0 12.55431532746276" Properties=species:S:1:pos:R:3:forces:R:3 energy=-156374.75 stress="0.0014660813612863421 0.0009658935596235096 0.0008457370568066835 0.0009658935596235096 0.0011800274951383471 0.00039006545557640493 0.0008457370568066835 0.00039006545557640493 0.0008551134960725904" pbc="T T T"
K       13.19256533      12.59542614      -1.18649203      -0.00670090      -0.00113059      -0.00503470
O       12.10506265      10.20684972       1.26847388      -0.00716358       0.02469134       0.00370881
N       11.40287506      12.44613615       1.74670012       0.00045305       0.01949477       0.00139180
C       11.75685643      11.32919358       1.53035130       0.01323542      -0.03079648      -0.00874253
O        0.67135333       8.84595591       5.50068058      -0.00958756      -0.00986482       0.00061607
H        1.39359580       8.33121240       5.89731527      -0.01818530      -0.01917138       0.00550395
H        0.99467915       9.72165006       5.17182287       0.00155921      -0.01255878       0.00585700
O        3.81702946      11.85933711       7.77925441       0.01762520       0.01372513       0.01112902
H        3.98551952      11.22205300       7.05144720       0.01593285       0.01748230       0.00802599
H        4.53936259      11.71782168       8.41474381       0.01765443       0.00859565       0.01032921
O       12.08623675       5.50976130       5.53317628      -0.01319504      -0.00007860      -0.00096956
H       11.49605925       6.01871308       6.14467548      -0.01372609      -0.00003489      -0.00142070
H       11.76640139       5.71177460       4.63752815      -0.01110289       0.00088172      -0.00177290
O        3.40008682       1.36519157       2.27020970      -0.00589925      -0.00800872       0.00981314
H        2.48694574       1.29962830       1.89495591      -0.00303545      -0.00236090       0.00362256
H        3.87368631       0.50933870       2.13014282      -0.00726684      -0.00791950       0.00256997
O        5.51198255       8.24663958       1.99563282      -0.00544075      -0.00507840       0.00324938
H        5.96049528       8.52827341       1.17837778      -0.00455989      -0.00727066       0.00290622
H        5.78533094       7.31208790       2.11001191      -0.00455716      -0.00448949       0.00686663
O        4.78773771      11.63437643       2.16690208      -0.00437960      -0.00797156      -0.00208449
H        4.94864467      11.45741839       1.21104422      -0.00453092      -0.00448093      -0.00296311
H        5.65847058      11.78715391       2.60090226      -0.00530689      -0.00240349      -0.00256451
O        6.26100283       1.78462046       4.65837040      -0.00493753      -0.00103530       0.01017727
H        7.06575809       2.31195626       4.84162397      -0.00527142      -0.00168271       0.01280836
H        5.74579838       1.76663338       5.48301035      -0.00745383      -0.00320400       0.00891818
O        6.40901585       9.54362017       4.23314406       0.00075403       0.00213137      -0.00535752
H        6.75949951      10.42774060       3.98094916      -0.00122467       0.00290391      -0.00599344
H        6.07416283       9.13359262       3.40039497      -0.00317502       0.00128595      -0.00374683
O        4.67746249       1.91186594       7.13901754      -0.01225168       0.00273851       0.00108456
H        4.56437145       0.96095586       7.34591996      -0.02263843       0.00196872      -0.00096882
H        3.76904938       2.15627329       6.85684177      -0.00769724       0.01122455      -0.00707272
O        9.30084265       3.62276907      10.93685746       0.00378838       0.01038811       0.00666785
H        8.35057468       3.61790898      11.09931243       0.00326375       0.01252535       0.00268503
H        9.65562026       4.10075944      11.70767647      -0.00048999       0.01967690       0.00326920
O        2.12610549      11.09885840       0.52262503      -0.00185601       0.00525911      -0.00026135
H        3.01710461      10.94929244       0.16477795      -0.00392506       0.00177236      -0.00149108
H        1.75864592      10.22591725       0.69908436      -0.00582728       0.00635190       0.00146523
O        6.98849528       8.75274632      12.18909060      -0.00285427      -0.00081509       0.00550932
H        7.13615508       9.62678020      11.76984251      -0.00306311       0.00105690       0.00958169
H        7.62872966       8.13983825      11.74228043      -0.00246334       0.00141367       0.00267761
O        2.17321606      10.79054988       9.89192420      -0.00143717      -0.00274888      -0.00200048
H        1.63235553       9.97540951       9.88323349      -0.00388051      -0.00143044      -0.00458245
H        2.34955671      11.05603675       8.97644524      -0.00269260       0.00123885      -0.00063736
O       12.14439455       2.75037822       5.79401268      -0.00111207       0.00308483      -0.00508202
H       12.11472971       3.72954229       5.71837538      -0.00861274       0.00339772      -0.00422914
H       11.37883369       2.52981692       6.36560984       0.00374166      -0.00218944      -0.00030904
O        8.64014672       3.15092701       4.95324895      -0.00139178      -0.00323540       0.00944420
H        9.00322673       2.98440979       5.85371315       0.00112399      -0.00436443       0.00825103
H        9.23507022       2.62804626       4.37569863      -0.00423329      -0.00300765       0.00709845
O        4.40437525       6.32276871       4.96164306       0.02781300      -0.01005176       0.02923343
H        4.75650098       6.69445802       4.14598190       0.02446225       0.01200062       0.03807992
H        4.50112497       7.00864790       5.66894514       0.01392683      -0.01872925       0.04344022
O       10.58102964       1.57484514       3.82460199      -0.00229380      -0.00208973      -0.00009021
H       10.90529228       1.06366584       3.04693204      -0.00082408       0.00168860      -0.00099341
H       11.34149100       2.02806649       4.23785017      -0.00340138       0.00090552       0.00006017
O       10.45812931      11.74275298      10.41993243      -0.00876927       0.00656460       0.00689279
H       10.06882558      11.96861561       9.55810458      -0.01604554       0.00614133       0.00927774
H       10.51710403      10.76787822      10.48451413      -0.00764884       0.00604364       0.00542802
O        0.61121593       4.17778676       2.34526704       0.00591201       0.00772419      -0.00100283
H        1.21848871       4.57724129       1.67878226       0.00474359       0.00406925      -0.00464218
H        1.13160145       4.23065265       3.17418705       0.00725527       0.01560026      -0.00241450
O        3.29723417       4.90318789       8.05018891       0.00710177       0.01005672      -0.01158157
H        2.83072271       4.13136063       7.64207097       0.00420200       0.01190549      -0.01179680
H        4.20814778       4.90048653       7.68525976       0.00909087       0.00143325      -0.00711302
O        6.23536192      12.62452521       9.28111332       0.01790278       0.00179899       0.00931665
H        5.97858961      13.47863881       9.65811132       0.01184155       0.00360987       0.00143377
H        6.59963115      12.10761882      10.03158692       0.01320035       0.00691124       0.01550122
O        3.31377240       1.10660289      -1.02163774      -0.00814874      -0.00508508      -0.00968534
H        3.84853711       1.67724596      -1.61563120      -0.00615328      -0.00528676      -0.00885738
H        3.30221745       1.54417245      -0.16198202      -0.01643747      -0.00118361      -0.01203188
O        4.20508934      10.15555477       5.69848887       0.01311742       0.01983744      -0.00123449
H        5.08001003       9.97449397       5.28401365       0.01100333       0.01597158      -0.00493751
H        3.60586094      10.03330790       4.91442241       0.00881375       0.00543877       0.00387812
O       10.64332294       4.62622071       8.88248862       0.00571166      -0.00102194       0.00022486
H       11.53450551       4.81208531       9.22205721       0.00606049       0.00132306      -0.00123230
H       10.09587415       4.36723701       9.66414946       0.00546238       0.00414183       0.00186874
O        2.57514144       5.18318746      13.32527439       0.00564656      -0.00403992      -0.00739440
H        2.61274379       6.16648627      13.49551876       0.00397864      -0.00376911      -0.00555371
H        2.74583125       5.05217351      12.37504171       0.00292356      -0.00174351      -0.00801534
O        1.54135346       6.73610059       7.02996448      -0.00695769      -0.00690679      -0.00945939
H        1.00787279       6.20939640       6.40226887      -0.00711549      -0.01041488      -0.00671921
H        2.35084800       6.22169248       7.22382264      -0.00289159      -0.00143450      -0.01110418
O        4.79126444      11.40523959      12.11045331      -0.00246960       0.00041969      -0.00286572
H        4.33941007      12.20718713      11.77638657      -0.00432457      -0.00066283      -0.00300171
H        4.91509319      10.80033086      11.33887930      -0.00190705       0.00027570      -0.00281898
O        4.25688917       3.89775661       2.47088600       0.00660561      -0.01017784      -0.00993545
H        4.11273666       2.92966610       2.35962859       0.00000880      -0.00995791      -0.00337669
H        3.71008954       4.33593798       1.77550564       0.00776467      -0.00992768      -0.01053261
O        0.41729382       8.66124454      10.05173455      -0.00796025       0.00095537      -0.00217301
H        0.07956001       8.94067663       9.16921143      -0.00919390      -0.00157920      -0.00229363
H        0.57967425       7.69887529       9.98272534      -0.00551868       0.00116397      -0.00112138
O        3.03164196       9.90451882       3.33785123       0.00385046      -0.01194368       0.00518616
H        3.65546703      10.48441281       2.84614123       0.00072782      -0.01251822       0.00085458
H        2.17175737      10.34394232       3.26351502       0.00307413      -0.01208168       0.00934555
O        5.79850748       4.86358021       6.87585252       0.01145968      -0.03434187       0.00157273
H        5.49195746       5.30446355       6.05629633       0.01725220      -0.04546434      -0.00747849
H        5.90261009       3.93187604       6.65118850      -0.00949918      -0.04233843       0.02539322
O        8.82264996      12.65081913       8.21390729       0.01535392      -0.00527945       0.01293116
H        7.88935537      12.69976268       8.51240294       0.01645380      -0.00302826       0.01735675
H        8.89648476      11.82869573       7.69185093       0.00859111      -0.00186102       0.00570482
O        0.88032965      11.23645032       4.43027619       0.01113206      -0.00775449       0.00740332
H        1.53673318      11.95053052       4.60192791       0.01201725      -0.00840978       0.00814816
H        0.00637042      11.56498247       4.71761024       0.01026320      -0.00633508       0.00169776
O        8.56871858      12.17432967       1.24051757       0.00170249       0.00962086       0.01432850
H        8.78134195      11.20852240       1.18661945       0.00010434       0.00846912       0.01137102
H        9.46491654      12.55825522       1.28441717       0.00030781       0.00840744       0.01093366
O        9.25514681       9.56202054       1.09701913      -0.00156532       0.00911629       0.00127881
H        8.42921214       9.08426136       0.92789210      -0.00017039       0.00615441       0.00408751
H        9.53623194       9.42336362       2.03298576       0.00460292       0.00591803      -0.00080153
O        8.76662055       7.12701326      10.98507763      -0.00575301       0.00451237      -0.00550549
H        9.07003544       6.49553192      11.66950454      -0.00515649       0.00466559      -0.00598585
H        9.49003345       7.79558337      10.94306851      -0.00671209       0.00615860      -0.00375673
O        2.47887804       4.36903798       4.40761712       0.01678693       0.02275172      -0.00945093
H        2.82958638       5.22510229       4.71015137       0.03635488       0.01402516      -0.00511237
H        3.18288169       4.09067322       3.76742811       0.01025343       0.00981002      -0.01133635
O        0.63472714       5.92602494       9.54465495       0.00297949       0.00290754      -0.00458489
H        0.96802740       6.14782263       8.64553730      -0.00101401       0.00286368      -0.00628346
H        1.39802589       5.57497894      10.02408690       0.00520702       0.00393190      -0.00740428
O        4.68150986       7.78013528       7.15887678      -0.01114942       0.01574248       0.00595617
H        4.50143202       8.70587559       6.92307248       0.00316462       0.01466794      -0.01142970
H        5.51217837       7.76745826       7.65423852      -0.00941503       0.01054341       0.00348862
O        9.85424405       2.46142794       7.27327275       0.00891346      -0.00550051       0.00596878
H       10.08873952       3.10828382       7.96475399       0.00926094      -0.00365510       0.00448097
H        9.50435128       1.64131148       7.68706360       0.01152431      -0.00524423       0.00869133
O        5.04455156       7.20976385      10.77702620       0.00539850       0.00029371      -0.00641453
H        5.70863324       6.94449986      10.09815056       0.00279402      -0.00122589      -0.00786974
H        5.56724691       7.63135313      11.47905977       0.00685815       0.00086332      -0.00753801
O        0.53002985      -0.19638004       7.61467820      -0.00770426      -0.00514503      -0.00490960
H        1.41216444      -0.01754726       7.26567346      -0.00930979      -0.00158154      -0.00734684
H       -0.08657891      -0.01181408       6.88285433      -0.00914987      -0.00752068      -0.00429885
O        8.55049876       5.72587250       4.09425552       0.00185120      -0.00199339       0.00909453
H        8.61683459       4.82036057       4.47874641       0.00090265      -0.00135028       0.01042502
H        9.38727668       5.83987215       3.61003454       0.00118063      -0.00343945       0.00741257
O        4.92984592       2.59960754       9.89103080      -0.00718870      -0.00851360      -0.00686882
H        4.75527528       2.56019677       8.92954013      -0.00917760      -0.01180249      -0.00688441
H        4.66193817       3.48251447      10.19964488      -0.00297511      -0.00622588      -0.00960101
O        0.95344684       1.63916439       1.22402463       0.00023955       0.00667555      -0.00781597
H        0.23893920       1.02718231       1.51591561       0.00093828       0.00884473      -0.00802367
H        0.72497849       2.50431929       1.61919464       0.00335655       0.00707552      -0.00464285
O        2.18957167       2.94670755       6.64972756       0.00024337       0.01840222      -0.01825469
H        1.26002383       2.64909231       6.59021454       0.00026111       0.01801895      -0.02077390
H        2.31951513       3.38907948       5.77524558       0.00357294       0.02275100      -0.01615268
O        6.27798676       5.67351655       2.52402049       0.00230090      -0.00101621       0.00901902
H        5.63964937       4.96286060       2.74833703       0.00350151      -0.00169528       0.00817230
H        7.05249140       5.63718447       3.13090688       0.00280550      -0.00164632       0.00841665
O       11.13520366       5.91086541       2.78219909      -0.00030442      -0.00022254       0.00018333
H       11.81579015       5.22286465       2.57636068       0.00134898       0.00220714      -0.00110378
H       11.64462146       6.76066564       2.74419121      -0.00143860       0.00144935      -0.00080778
O       10.58994165       9.11790775      -1.34255885      -0.00788391       0.00783358      -0.00288796
H       11.53068247       8.90456939      -1.52827616      -0.00810545       0.00578021      -0.00227278
H       10.47997835       9.28666757      -0.38819470      -0.00768873       0.00720431      -0.00205401
O        2.54675744       7.75055038       1.34871834      -0.00059244      -0.00495854      -0.00406475
H        1.80888517       7.90706136       1.97227115      -0.00164554      -0.00529215      -0.00438287
H        3.32687068       8.15214266       1.75892030      -0.00079149      -0.00750365      -0.00148668
O        9.61611261       5.39239339       0.47055917      -0.00520527       0.00871390       0.00487897
H        8.83438539       4.89666947       0.77903287      -0.00400756       0.00657802       0.00455429
H       10.14709428       5.62874551       1.25690419      -0.00255283       0.00418666       0.00477222
O       10.63191490       6.85966434       7.34163159      -0.01905235      -0.00427085      -0.00069186
H       10.50873136       6.14882808       8.00858052      -0.00742728      -0.00532416       0.00074167
H       11.15253947       7.54323906       7.77404670      -0.02890144       0.00455552      -0.00270161
O        7.26890742       3.99926805       0.55288346      -0.00131747       0.00201112       0.00310898
H        6.78313440       4.61360879       1.14126486      -0.00188477       0.00024311       0.00448970
H        7.10851669       3.12644531       0.92268821      -0.00132726       0.00112377       0.00102863
O       10.16020867       9.53368289       3.61933406       0.00951724      -0.00533251      -0.00173849
H       10.31659675      10.43405157       3.92374884       0.02736732      -0.01160464       0.00646736
H        9.60573721       9.10459970       4.31035391       0.00577954      -0.00289466      -0.00317197
O        8.49323965       8.33217957       5.38956758      -0.00110036       0.00309870      -0.00641890
H        7.65987328       8.64901767       4.97017514      -0.00023915       0.00302715      -0.00868388
H        8.54059004       7.37298405       5.24578278      -0.00217030       0.00216634      -0.00084273
O        7.10738103      12.04087803       3.48836153      -0.01034085       0.00328029       0.00297244
H        6.87600564      12.87882760       3.95344726      -0.01087985       0.00110358       0.00751600
H        7.72799814      12.23377994       2.74679133      -0.00493325       0.00626248       0.00875321
O        2.89915837      12.97451957       4.86443322       0.01459792      -0.01508595       0.00923665
H        3.62174189      12.35521374       5.02235638       0.01049722      -0.02443041      -0.00644486
H        3.10700789      13.40411018       4.00769561       0.00628503      -0.01041470       0.00932352
O        3.47942226       5.00443291      10.70186856       0.00334933       0.00088286      -0.01019006
H        4.02336153       5.81468183      10.83769881       0.00428922      -0.00047182      -0.00619652
H        3.35538892       4.96425832       9.72239412       0.00542872       0.00507877      -0.01059675
O       12.11490972       9.75400247       7.75023126      -0.01160046      -0.00514242      -0.00397008
H       12.50370925      10.65646866       7.80367440      -0.01023836      -0.00591403      -0.00406578
H       12.49321539       9.38062477       6.90969496      -0.01111027      -0.00641355      -0.00368542
O       11.09741240      12.11648335       5.56834841       0.00060874      -0.00958444      -0.01364205
H       10.40717470      11.54188288       5.95924375      -0.00262947      -0.00397172      -0.00981815
H       10.67714983      12.82090594       5.03017530       0.00361086      -0.00580116      -0.01119444
O        7.71552793      11.33977391      11.23355968      -0.00049925       0.00239556       0.01762356
H        7.73234628      11.83024113      12.07481864      -0.00645185       0.00085353       0.01796603
H        8.64041156      11.43727360      10.93028865       0.00122594       0.00539251       0.02205306
O        6.87995170       6.69536327       8.88395651      -0.00401947      -0.00285587      -0.01918100
H        6.86744117       5.92478926       8.29986736      -0.00198080      -0.00583820      -0.01579319
H        7.71361186       6.70224278       9.38619836      -0.00300819       0.00152454      -0.02141782
O        9.55500528      10.32243888       6.95167989      -0.00648899       0.00354883      -0.00893217
H       10.40139789      10.01873058       7.34264014      -0.00809623       0.00040670      -0.00741634
H        9.14370348       9.53047536       6.54826478      -0.00912108       0.00472616      -0.00943908
O        0.20931118       8.04722826       2.85019291       0.00028279      -0.00204223      -0.00242212
H        0.29025092       8.27346908       3.79943430      -0.00281959      -0.00275807      -0.00343658
H       -0.18509266       8.83746013       2.43263661      -0.00154890       0.00065557      -0.00328213
O        4.74384720       9.85381761       9.94359157      -0.00000788       0.00067822      -0.00303188
H        4.77549958       8.89676049      10.13181410       0.00162885       0.00038026      -0.00483965
H        3.78898992      10.07238459       9.92874715      -0.00050245      -0.00137594      -0.00415717
