196
Lattice="13.334802729763517 0.0 0.0 0.0 13.334802729763517 0.0 0.0 0.0 13.334802729763517" Properties=species:S:1:pos:R:3:forces:R:3 energy=-429942.96875 stress="-0.0005005276179872453 0.0003641331713879481 0.0002552106016082689 0.0003641331713879481 -0.0019174197223037481 0.00043177904444746673 0.0002552106016082689 0.00043177904444746673 -0.0019856388680636883" pbc="T T T"
La      13.70183890      11.03969014       2.55402200      -0.00560284      -0.00041980       0.00846970
P       13.21108778       7.59025630       1.20135241       0.00890135      -0.00655155      -0.00751469
O       11.83774385       7.10619410       1.41416915       0.00723320      -0.00501373      -0.00651373
O       14.09760956       7.14187860       0.11497743       0.01275367      -0.01794267       0.00352651
O       12.18651347      11.51325926       1.52655580      -0.00747144       0.00969583       0.01677954
O       13.72934704       8.69305744       2.08855773       0.00291041       0.00394371      -0.01621079
O        1.84329419       2.37603446      13.24013451       0.00724310      -0.03201643       0.00471641
O        0.33815835       2.67940509      11.63300149       0.00122850      -0.02278626       0.01223770
O        0.15637189       3.83595916      13.55310289       0.00179785      -0.04207212       0.02434695
C        2.28820150       1.52154843      12.15861166       0.01299673      -0.01085339      -0.01015864
C        1.13444444       1.57085667      11.16357469       0.00295013      -0.01735978       0.00186402
C        0.73020973       3.03896464      12.87065664       0.00363269      -0.03381366       0.01438650
H        2.46121203       0.53055010      12.56283076       0.03526748      -0.01278788      -0.02479838
H        3.21960658       1.91846725      11.76311651       0.00206813       0.01163423      -0.01337102
H        1.44660189       1.77534832      10.14475104      -0.00931087      -0.01354848      -0.00101954
H        0.51478011       0.67499262      11.17932513       0.00871173      -0.02125528       0.00750297
O        3.79245607       0.07590935       1.21805967      -0.00058159      -0.00055808       0.00434831
O        3.06690039       1.24994941       2.94311732      -0.01260668       0.00469434      -0.00454232
O        1.69921560      -0.20612045       1.94036872      -0.00261536      -0.00513496      -0.00377956
C        4.93009375       0.89055506       1.59469392      -0.00517571       0.00431969       0.00721720
C        4.49701435       1.49140941       2.92749580      -0.01225027       0.00320715       0.00517845
C        2.78518725       0.33908486       2.03619059      -0.00591937      -0.00050344      -0.00172492
H        5.08089940       1.62293973       0.80194524      -0.00559891       0.00479290       0.00757343
H        5.79521425       0.23899033       1.68021898      -0.00291941       0.00767425       0.00979533
H        4.92011518       0.98915105       3.79462265      -0.01868919       0.00151166       0.00718108
H        4.65815461       2.55977009       3.01080814      -0.01138541       0.00284973       0.00783847
O        9.02283082       6.30012627       2.16857838       0.00626568      -0.00155371      -0.00290962
O        7.52191410       4.66531085       2.15794867       0.01123792      -0.00606730       0.00350364
O        6.89193681       6.76234324       1.64840478       0.00534183      -0.01070678      -0.00458269
C        9.75598414       5.14784799       2.63940798       0.00768977       0.00320762       0.00631189
C        8.78497415       3.99831633       2.36615388       0.01382136      -0.00097322       0.00506784
C        7.74507309       5.98283847       1.97179039       0.00599971      -0.00591138      -0.00203805
H        9.95947813       5.29643131       3.69958863      -0.00012133       0.00844015       0.00712869
H       10.68701051       5.10643622       2.08262949       0.01128703       0.00447336       0.01247078
H        9.02290071       3.44448944       1.45721666       0.01751097       0.00063957       0.00522658
H        8.66642655       3.31249340       3.20158806       0.01614052      -0.00096154       0.00499609
O        9.33751687       0.91737380      12.36826257      -0.00237584      -0.00242266      -0.01385491
O        9.38623889       3.10525965      12.00687703       0.00089625       0.00178475       0.01223202
O        7.41310159       2.03154515      12.03824279      -0.00092471       0.00473912       0.00317456
C       10.73074630       1.28527868      12.52860050      -0.00202942      -0.00554430      -0.00877768
C       10.77897279       2.69966771      11.96418259      -0.00013971      -0.00182632       0.00173336
C        8.61260843       2.01466202      12.12245023      -0.00095332       0.00162849       0.00080124
H       11.32916404       0.57034721      11.97171745      -0.00214003      -0.00194135      -0.01337546
H       10.97313718       1.22744432      13.59035494      -0.00376114      -0.01340564      -0.00882912
H       11.35720946       3.39715109      12.56334529       0.00510439      -0.00835922       0.00410160
H       11.10420898       2.72518581      10.92787360      -0.00541970       0.00452164       0.00017738
O        9.71742405       4.85679236       6.75696745       0.00708219      -0.01311141       0.00489773
O       11.24419907       6.42676525       6.38205418      -0.01040423      -0.00111635      -0.01673398
O        9.05986614       6.97266570       6.37589413      -0.01528668      -0.02398121      -0.00975446
C       10.98971484       4.22049912       7.01668465       0.01393858       0.00047833       0.00471982
C       11.97348090       5.18082117       6.37607172       0.00351012       0.00669080      -0.00353810
C        9.94396546       6.17356093       6.50191550      -0.00859773      -0.01382428      -0.00709166
H       10.97064758       3.23034402       6.56884748       0.02264373      -0.00174603       0.00983584
H       11.12471281       4.13910662       8.09376714       0.01828921       0.00776836       0.00456893
H       12.88824426       5.31306431       6.93924803       0.00139126       0.02313160      -0.00394589
H       12.21792963       4.93938117       5.34130689       0.00788137      -0.00045325      -0.00075656
O        6.05293822      12.42718583      10.18270472       0.00454742       0.00451383      -0.00082828
O        5.05191407      13.13622190      12.02997645      -0.00415692       0.00059244      -0.00420544
O        4.27038484      13.78293832      10.01995661      -0.00578529      -0.01039314      -0.00699949
C        6.73807870      11.74237249      11.24518007       0.00853074       0.01221833       0.00144158
C        6.22287757      12.43594843      12.49987421      -0.00211982       0.00728454      -0.00001097
C        5.05945134      13.17854333      10.68699426      -0.00199676      -0.00249204      -0.00440755
H        7.80637989      11.87101830      11.10297877       0.00743204       0.02387299       0.00488706
H        6.47763478      10.68539646      11.18474874       0.01970711       0.00955880       0.00105608
H        5.92093818      11.75381982      13.28980584      -0.00166306       0.00435826      -0.00236860
H        6.92583339      13.16425899      12.89023658      -0.00844845       0.01073289       0.00446552
O        2.93908730      10.13863603       1.70016654      -0.00014928       0.00230831       0.00619093
O        5.14971436       9.98006681       1.70844562       0.00023609       0.01193987       0.01371172
O        4.13453241      11.40792030       3.12843902      -0.01114471       0.00423294       0.01201135
C        3.22488834       8.90389767       0.99328239       0.00650504       0.00639117       0.00249270
C        4.69951944       9.06733072       0.68062641       0.00902444       0.00850298       0.01336130
C        4.09268013      10.58536706       2.26323053      -0.00416445       0.00643492       0.01101214
H        2.56681564       8.82017124       0.13451003       0.01347031       0.01096385      -0.00319761
H        3.01487055       8.08871408       1.68101244       0.00138174       0.00242573      -0.00393510
H        5.28188606       8.15546144       0.77511379       0.00957170       0.00959188       0.02012858
H        4.87164374       9.53519868      -0.29132245       0.01577964       0.00577599       0.01341602
O        5.19345992       4.29648374      11.65658275      -0.00579012      -0.00361387      -0.00135610
O        7.18559727       4.95673258      10.92136880      -0.00768423      -0.00677142      -0.00883055
O        5.73916966       3.99428177       9.49941289      -0.00914943      -0.01698887      -0.00011218
C        5.90831476       4.67215740      12.84254070      -0.00436327       0.00568803      -0.00511456
C        7.14504257       5.37906370      12.29018605      -0.00679630       0.00411299      -0.01218104
C        6.02524630       4.37218706      10.59624921      -0.00771032      -0.00980231      -0.00335836
H        6.15805336       3.76658171      13.38994688      -0.00146574       0.00996119       0.00063215
H        5.28059845       5.32276800      13.44450259      -0.00445755       0.00847968      -0.00854716
H        7.05989612       6.46531893      12.32048737      -0.00934707       0.00409043      -0.02099360
H        8.07058215       5.06159066      12.76305593      -0.00558114       0.00986962      -0.01070869
O        5.64827367       9.80857452       9.02159184       0.00072457       0.00044277       0.00787726
O        4.49884999       8.01622975       8.39761497       0.00320548      -0.00402260       0.01643807
O        6.70707336       7.84060568       8.78683847       0.00278997      -0.00008100       0.02201422
C        4.28420781      10.26625733       8.95494503      -0.00051836      -0.00305724       0.00882366
C        3.53969767       9.09414563       8.31979916       0.00357115      -0.00422779       0.00697508
C        5.70674325       8.49467659       8.73357363       0.00225919      -0.00090373       0.01605417
H        4.25735913      11.17077996       8.35818017      -0.00353055      -0.00198171       0.01071382
H        3.94827045      10.48157466       9.97112270      -0.00083405      -0.00637778       0.00935766
H        2.64430254       8.79439275       8.86038608      -0.00001681      -0.00277628       0.00196499
H        3.31387189       9.26437772       7.27168676       0.01020718      -0.00641043       0.00529099
O       10.65762905       7.38850882       9.27770387       0.01088905      -0.00434461      -0.00454831
O       12.14366357       8.09209001      10.77705563       0.00386050      -0.01209551       0.00578302
O       12.38939955       8.66584941       8.61396551       0.01288563       0.00047582       0.00977814
C       10.14310407       6.94834636      10.54547194       0.00749528      -0.01650566      -0.01007774
C       11.32465073       7.14654602      11.48845208       0.00174373      -0.01672401      -0.00251114
C       11.80424659       8.08085803       9.47533008       0.00869149      -0.00529414       0.00500125
H        9.82220011       5.91360233      10.45224341       0.01473169      -0.01789233      -0.01907496
H        9.28001867       7.57254449      10.79270211       0.00252360      -0.02373853      -0.01014001
H       11.05628846       7.57181519      12.45242781      -0.00481543      -0.02065587      -0.00260621
H       11.91198222       6.24495664      11.64620619       0.00299317      -0.01566827      -0.00275337
O        8.63368401      11.08730546       0.39733505       0.00415879      -0.00309430      -0.01048097
O        8.80991684      10.45227599       2.51549928       0.01890780       0.01266900      -0.00704569
O        7.66931539      12.31745085       2.01815099       0.01787901       0.00917882      -0.01260719
C        9.40777759       9.86830335       0.34514468       0.00448906      -0.00253792      -0.00755888
C        9.71233355       9.56601786       1.80608858       0.00415999      -0.00150606      -0.00689083
C        8.31850024      11.36926791       1.67500377       0.01375723       0.00785041      -0.00910130
H       10.31316415      10.07167010      -0.22221088       0.00429362      -0.00351989      -0.00783910
H        8.79816740       9.10104850      -0.13585406       0.00514117      -0.00335979      -0.00694412
H        9.50919422       8.54458393       2.10382187      -0.00960286       0.00218686      -0.00362553
H       10.72752028       9.85992346       2.05457241       0.00874746      -0.01557699      -0.00918026
O        9.00513720       2.17500638       8.09592820       0.00142318      -0.00124908      -0.01466574
O        8.30585502       0.16541558       8.71996775       0.00092173      -0.00071479      -0.01416031
O       10.32550428       0.89204271       9.38569263       0.00167137      -0.00177640      -0.01575965
C        7.63181986       2.10465154       7.63751811       0.00069521       0.00048697      -0.01238111
C        7.28873537       0.63226209       7.79681940      -0.00181332       0.00120425      -0.01020449
C        9.29975697       1.06564112       8.78602386       0.00122666      -0.00156402      -0.01482898
H        7.60343508       2.44350537       6.60490941      -0.00075682      -0.00061100      -0.01261085
H        7.03004533       2.75491632       8.26971938       0.00276253       0.00197810      -0.01205581
H        6.31327097       0.45207542       8.23199238      -0.00037599       0.00345801      -0.00594184
H        7.37833828       0.06212350       6.87355916      -0.00713089       0.00083432      -0.01012951
O        4.82171113       4.57528222       6.70951054      -0.00674309       0.02261505      -0.00009882
O        5.85317770       3.74271224       4.92248376       0.00667155       0.00169190       0.01739950
O        3.89423091       2.85733255       5.59702626       0.00771904       0.00215256       0.01975165
C        6.02039402       5.36436102       6.60004738       0.00016358       0.01309058       0.00483459
C        6.62747240       4.90143382       5.27608474      -0.00639284       0.01577748       0.00158036
C        4.76363200       3.65927739       5.73800165       0.00269586       0.00793785       0.01272405
H        6.64696553       5.16584741       7.46523491      -0.00046751       0.00035912       0.00261712
H        5.73587081       6.41297622       6.59960750       0.01042362       0.01565796       0.01300536
H        6.51357567       5.63820030       4.48288087      -0.02663523       0.00955233      -0.00160858
H        7.67135431       4.61165306       5.37687631      -0.00133744       0.03160326      -0.00751966
O        1.30268425       4.02797701       9.07735374      -0.01137736      -0.01470041      -0.00126043
O        1.75736148       6.14422164       9.56399169      -0.01608562      -0.01514840       0.00365257
O       -0.38637005       5.46453449       9.44456939      -0.01423061      -0.02252160       0.01588559
C        2.73408457       4.06401109       9.29066193      -0.00909048      -0.00955588      -0.01574501
C        3.03161690       5.54538244       9.22380739      -0.01607969      -0.00774908      -0.00938678
C        0.78894674       5.23610658       9.37428831      -0.01265097      -0.01836511       0.00711737
H        3.22489622       3.48217156       8.51898082      -0.01490964      -0.00267121      -0.02455634
H        2.94818877       3.64486285      10.27373350       0.00236614      -0.01504833      -0.02073151
H        3.76579953       5.88129465       9.94836399      -0.01186275      -0.00933206      -0.01308936
H        3.31403642       5.86882112       8.22707284      -0.02530393      -0.00019820      -0.00963205
O       11.20949869      11.35045521       7.75584043      -0.00701016       0.00192408       0.00361963
O       11.88378312      11.40335221       9.87125046       0.00329928       0.01156178      -0.00008282
O       13.29992803      12.01237927       8.23208872      -0.01062977       0.02164572      -0.00873467
C       10.11745315      10.76061151       8.48403667       0.00067636      -0.00454712       0.01029426
C       10.49737804      11.03516799       9.93887037       0.00648186       0.00138011       0.00758421
C       12.23203513      11.61321876       8.59731995      -0.00613576       0.01291689      -0.00265814
H       10.07024098       9.70363984       8.23197173       0.00768322      -0.00538814       0.01305224
H        9.19828315      11.26527441       8.19693216      -0.00414068      -0.01212749       0.01397634
H        9.95352618      11.87927948      10.35969996       0.00245628      -0.00177914       0.00874016
H       10.40884612      10.15927059      10.57811960       0.01663160       0.00214615       0.01013094
O        5.71186664       8.17493496       4.08978780       0.00003478       0.00839741      -0.00916573
O        5.48138832       9.47352519       5.87608307      -0.00232008      -0.00616270       0.00101967
O        3.65100040       8.71049422       4.79723709      -0.00115836      -0.00392081      -0.00262457
C        7.06126256       8.41280660       4.55609947       0.00033778       0.01309201      -0.01256606
C        6.88536681       9.55791038       5.53793130      -0.00299981       0.00247306       0.00006467
C        4.84211148       8.78403322       4.91499048       0.00004488      -0.00060560      -0.00318167
H        7.67827321       8.66220823       3.70011922      -0.00545520       0.02680151      -0.01277119
H        7.43314250       7.51842094       5.04599595       0.00890161       0.01031047      -0.02404672
H        7.46901545       9.42841087       6.44521654      -0.00149998      -0.00454230      -0.00211009
H        7.06148838      10.53493823       5.08803987      -0.00725603       0.00757402       0.01017657
O        1.57515929       5.68831686       2.85627462       0.00344947      -0.00219697       0.00646332
O        3.40062068       5.55720898       4.12690282       0.00875705      -0.00526298      -0.00193772
O        1.38943373       5.85731892       5.10038429       0.01307470      -0.00011815       0.00759208
C        2.62526888       5.24135403       1.97314472      -0.00114679      -0.00550224       0.00230145
C        3.87929803       5.56432943       2.77383162       0.00231588      -0.00472340      -0.00427935
C        2.05661142       5.71936062       4.12573288       0.01004130      -0.00264135       0.00296438
H        2.51673143       5.77742843       1.03268323      -0.00535450      -0.00725770       0.00196180
H        2.49120788       4.17322655       1.80208912      -0.00325992      -0.00564390       0.00574012
H        4.66754654       4.81851453       2.68773343       0.00286540      -0.00348824      -0.00851768
H        4.29990515       6.54930592       2.56907262      -0.00010584      -0.00416625      -0.00627951
O        2.82551229      13.47150691       5.54567979       0.00412607      -0.00994417      -0.01811451
O        3.24972269      11.41400991       6.25135714      -0.00975733      -0.00287551       0.01126280
O        4.91087852      12.92983303       6.19877136      -0.00039506      -0.01364312      -0.00785367
C        1.55367252      12.81298189       5.56473710       0.00005069      -0.00151753      -0.00999036
C        1.92625916      11.34117731       5.71160202      -0.00929178      -0.00201333       0.01020417
C        3.76806973      12.63709466       6.01012109      -0.00173712      -0.00932476      -0.00522654
H        1.04058621      13.06764869       4.63241666       0.00147612      -0.01084017      -0.01335081
H        0.97921361      13.16647695       6.41927199       0.00152427       0.01335663      -0.01525277
H        1.28503010      10.80116464       6.40313428      -0.01377574       0.01189493       0.01685873
H        2.00381524      10.80112300       4.75737757      -0.01175383      -0.01546155       0.01743591
O       12.09048121      11.00011798       4.71755488      -0.00786737       0.03707701       0.00921313
O        9.98736514      10.44480578       5.18466863      -0.00266854       0.01611662       0.00332996
O       11.46751115       8.83788814       4.60353455       0.01524481       0.01882672      -0.00603946
C       11.43419780      12.26843788       4.91153974      -0.02138397       0.03001916       0.01113706
C        9.96607786      11.87888421       5.09345085      -0.01495147       0.01761952       0.01102482
C       11.18212148       9.96314582       4.83100979      -0.00584552       0.04446620       0.00663009
H       11.60317963      12.86563784       4.01315882      -0.02470979       0.03193305       0.01145738
H       11.86150724      12.73094769       5.79671949      -0.02211177       0.03273055       0.01072174
H        9.55255453      12.26990649       6.01870406      -0.01760437       0.00853674       0.01460245
H        9.34190979      12.14864397       4.24394632      -0.01908788       0.01610570       0.01419696
