197
Lattice="14.05096883866072 0.0 0.0 0.0 14.05096883866072 0.0 0.0 0.0 14.05096883866072" Properties=species:S:1:pos:R:3:forces:R:3 energy=-528396.375 stress="-0.0015114005655050278 0.00038676853000652045 0.0003768128517549485 0.00038676853000652045 -0.0007689251215197146 -0.0005496767407748848 0.0003768128517549485 -0.0005496767407748848 -0.0015349506866186857" pbc="T T T"
La      10.81979750      15.64038825      -2.54551026      -0.00379354       0.00178060       0.03255343
O       12.71792849      15.04915713      10.70480059      -0.04191741       0.00192799       0.01180595
H       13.66723622      15.16759994      10.62339418       0.00190084       0.00071624      -0.00633211
O       10.95707267      15.42247865      13.64037160       0.00270762       0.00479479      -0.00816861
H       11.40606164      15.02415402      14.38597197       0.01732760      -0.00503166      -0.00186119
O        9.97936815      14.54592914       6.79651165      -0.00367054       0.00247484      -0.00458773
H        9.45915860      13.79719857       7.13755781       0.00178716       0.00479553       0.00243736
S        2.74777430       8.30890558       2.78636981      -0.00674862      -0.00384891       0.00801635
O        2.05309847       7.10204412       3.31822619      -0.00353742      -0.00271523       0.01384628
C        4.39724803       8.28793877       3.54998521      -0.00815731       0.00597404       0.00946492
C        2.14103940       9.74334075       3.68988012      -0.01198193      -0.00051492      -0.00190616
H        5.04694716       7.65661718       2.94574622      -0.00611465       0.00226177       0.01596396
H        4.26019579       7.84680675       4.53725045      -0.00749484       0.01561712       0.01337142
H        4.81172689       9.29005225       3.63150913      -0.01185320       0.00782451       0.00110679
H        2.77385244      10.59756204       3.44992951      -0.01734276       0.00052686      -0.01125175
H        2.17471695       9.53455360       4.75707044      -0.00777180       0.00949267      -0.00039977
H        1.11028800       9.91270063       3.38547699      -0.01349305      -0.00843120      -0.00020365
S        8.32892533      12.59033777      11.11522693       0.00305879       0.00010586       0.00006375
O        9.16288052      13.85791788      11.27611872       0.00215271       0.00446033      -0.00598364
C        6.65791617      13.18075886      10.90925981       0.00436342      -0.00070699      -0.00588753
C        8.18123863      11.88766654      12.74649545       0.00760742       0.01301832       0.00396949
H        6.63813042      13.72918405       9.97009594       0.00622222      -0.00604364      -0.00807920
H        6.38377160      13.79810719      11.76269165       0.00177962       0.00256957      -0.00938180
H        5.99942255      12.31627328      10.84771586       0.00448225      -0.00198565      -0.00319650
H        7.53658567      11.01161789      12.66283572       0.00947136       0.01068375       0.01265781
H        7.75075200      12.58807711      13.45812075       0.00770833       0.01805404      -0.00071450
H        9.17192115      11.55072852      13.04112778       0.00816682       0.01752042       0.00394397
S        4.62387140      11.42910629      -0.35192049       0.00442523      -0.00058806      -0.00251698
O        5.39740935      12.65957685       0.01189011       0.00475287       0.00044417      -0.00722980
C        2.96828584      11.63954136       0.32916363       0.00445902       0.00459940      -0.00486988
C        5.16598415      10.14783164       0.77869470       0.00178704       0.00385645       0.00374639
H        2.48073622      12.42905722      -0.23819422       0.00635738       0.00389442      -0.00783068
H        3.06175390      11.92189428       1.37805075       0.00414485       0.00878686      -0.00627369
H        2.41842956      10.70430443       0.22416729       0.00208195       0.00600274      -0.00161330
H        4.56515924       9.25176074       0.62159856      -0.00072496       0.00497867       0.00827690
H        5.04995210      10.53017151       1.79319688       0.00368509       0.00912449       0.00172333
H        6.22029038       9.94893738       0.58585193       0.00089937      -0.00000627       0.00323627
S        6.14854986       3.03419805      14.05978072       0.00890625       0.00115359       0.00282335
O        5.67821480       4.25427128      13.33706344       0.00820261       0.00276637       0.00510716
C        7.65555778       2.46310676      13.23490075       0.00437865      -0.00092280      -0.00505391
C        5.08143010       1.68412630      13.54454482       0.00402588       0.00348449       0.00704467
H        8.34979436       3.30204261      13.26369335       0.00519564      -0.00159715      -0.00836110
H        7.42175892       2.20767076      12.20029855      -0.00157318      -0.00009635      -0.00417532
H        8.06282691       1.60878538      13.77752829       0.00422732      -0.00174642      -0.00616108
H        5.39341190       0.74668169      14.00162561       0.00417013       0.00224106       0.00429106
H        5.09531683       1.61063774      12.45757749      -0.00162897       0.00488816       0.00694564
H        4.07697345       1.94431573      13.87241696       0.00630115       0.00494392       0.01227932
S        4.19252354       8.77371460       8.91049617      -0.00525713       0.00012454       0.00139606
O        2.78579740       8.50449727       9.35120690      -0.00498712       0.00050811       0.00245166
C        4.87030423       9.93634462      10.10961071      -0.00468160      -0.00221950       0.00264812
C        4.10176365       9.96824661       7.55552865      -0.00561689       0.00204599       0.00369805
H        4.87973350       9.42825210      11.07109723      -0.00798475      -0.00265671       0.00222807
H        4.21179745      10.80499359      10.15594301      -0.00328434      -0.00147064       0.00260356
H        5.88016477      10.19480759       9.79287372      -0.00352836      -0.00391127       0.00532416
H        5.06779983      10.44995985       7.42657695      -0.00528596       0.00130114       0.00412155
H        3.32251675      10.68712402       7.81171380      -0.00484155       0.00203975       0.00547591
H        3.82155801       9.43975510       6.64766585      -0.00657214       0.00340602       0.00342789
S        8.44515030       6.56731679      11.53407975      -0.00023043      -0.00612342       0.00517583
O        8.10288514       5.11546286      11.46131200       0.00611711      -0.00905704      -0.00915096
C        8.66817526       6.95550351      13.27368777      -0.01161074      -0.02301915       0.00927651
C        6.92744366       7.50048417      11.29826093      -0.00427520      -0.01350126       0.00649341
H        9.55996453       6.42310491      13.60282792      -0.00970428      -0.01948747       0.00847461
H        7.79563282       6.60780348      13.82636148      -0.01173028      -0.03627658      -0.00048548
H        8.79759563       8.02762130      13.42020540      -0.02016786      -0.02353667       0.02024692
H        7.14922336       8.55184683      11.48360102      -0.01235974      -0.01488533       0.02151863
H        6.16762513       7.12279264      11.98362273      -0.00538716      -0.02607377      -0.00289987
H        6.63121107       7.38484939      10.25675607       0.00190098      -0.00206037       0.00392978
S        9.31285040       9.85747306       2.03120478       0.00641829       0.00097257      -0.01053810
O        8.37452722       9.55961132       0.89208381       0.01112086       0.00961287      -0.01973355
C        9.43271403      11.63471888       2.15575526       0.00923841      -0.00151795       0.00030483
C       10.97775042       9.54708071       1.42556150       0.00708812      -0.00009609      -0.00483024
H        8.46608321      11.97886116       2.51535011       0.01019588       0.00073235       0.00019463
H        9.67786121      12.04483357       1.17616131       0.01421437       0.00557615       0.00440313
H       10.20434819      11.87466460       2.88918453       0.00885159      -0.00734988       0.00299871
H       11.68900861       9.96516598       2.13917447       0.00496458      -0.00617262       0.00081143
H       11.08261579      10.02351342       0.45001232       0.01320983       0.00498290      -0.00123152
H       11.09713422       8.46885033       1.33270540       0.00438902       0.00050925      -0.01013132
S       13.13028514      12.37170416       4.40995791       0.00485611      -0.00035068       0.00175271
O       12.22023738      11.51203821       3.58578255       0.01245832       0.00312328      -0.00575262
C       13.35373212      11.52910171       5.98598173      -0.00022609      -0.00657091      -0.00085282
C       12.34128530      13.78229913       4.92232752       0.00026321      -0.00349683       0.00519660
H       13.85763239      10.58590475       5.78169949       0.00187135      -0.00444183      -0.00306867
H       12.36840476      11.36303182       6.42058545      -0.00206514      -0.01087568      -0.00649363
H       13.96937317      12.16149898       6.62412776      -0.00485070      -0.00819083       0.00476404
H       12.91851929      14.30408375       5.68429553      -0.00534543      -0.00677770       0.01122826
H       10.61904070      14.13982588       6.17870611      -0.00197715      -0.00190174      -0.00338124
H       12.07180738      14.41623980       4.08035274       0.00303310       0.00065225       0.00723651
S        9.24665706       4.41400419       8.62288231       0.00539637      -0.00798786      -0.00934172
O        8.30218282       4.56265795       7.46723325       0.01206827      -0.01114184      -0.00915956
C       10.70889769       3.56874356       7.99902828       0.00937182      -0.00682470      -0.00218868
C        8.61844934       3.00453230       9.59245097       0.00570276      -0.00905550      -0.00934166
H       11.25402357       4.30547024       7.41377317       0.01063018      -0.00624332      -0.00068384
H       10.40152798       2.69938092       7.41691375       0.01173639      -0.00655425      -0.00239411
H       11.32559936       3.27113811       8.85045897       0.00696925      -0.00692737      -0.00020622
H        8.95854299       3.15833878      10.61814378      -0.00263732      -0.00511887      -0.00676084
H        8.89447327       2.04906568       9.13646873       0.01228349      -0.00861883      -0.00468330
H        7.53764842       3.12155923       9.62417110       0.00554021      -0.01270780      -0.01725148
S        3.00741408       3.84016802       9.88939295       0.00568777       0.00903666      -0.00168681
O        2.13532057       2.93037111      10.69444137       0.00446200       0.00705492      -0.01008463
C        4.72271990       3.45528412      10.29870786       0.00481778       0.00483397       0.00039387
C        3.01430492       5.45597920      10.68748128       0.00580059       0.00520331       0.00624782
H        4.88044017       2.41035327      10.03274480       0.00259592       0.00526854      -0.00208382
H        4.90827989       3.64222948      11.35794151       0.00287527       0.00113598       0.00115758
H        5.36732112       4.09369943       9.69341178       0.00797543       0.00473434       0.00402532
H        3.85282134       6.03281431      10.29968468       0.00502975       0.00665971       0.00764114
H        3.08755861       5.31234313      11.76728150       0.00718720       0.00007790       0.00530139
H        2.09624026       5.97681737      10.42859431       0.00563577       0.00694481       0.01020174
S       10.19657468      11.44128765       8.09259480       0.00294662       0.00141740      -0.00132036
O        8.96576533      12.29469453       8.21500308       0.00558364       0.00626940       0.00338414
C       10.03969353      10.02997429       9.21075156       0.00147141       0.00424778       0.00224006
C       11.50025353      12.31000095       8.98976191       0.00917244      -0.00300875      -0.00756198
H        9.06829750       9.58088967       9.00234603      -0.00200471       0.00907014       0.00763830
H       10.10242158      10.34214762      10.25204647       0.00893103       0.00599609       0.00092831
H       10.82998146       9.31967089       8.96023241      -0.00368491      -0.00022514      -0.00100008
H       12.40241182      11.69944842       9.00918428       0.00626975      -0.00725915      -0.01067219
H       11.15589847      12.51762071      10.00305546       0.01511101       0.00071779      -0.00685431
H       11.68422148      13.24380389       8.46079530       0.01168593      -0.00471817      -0.00947288
S        7.71123536       8.40268110       6.89618860       0.00201881       0.01325434       0.00273848
O        7.13805892       8.99032797       8.15765902      -0.00331813       0.00730771       0.00376189
C        7.40452570       9.57835664       5.57187468      -0.00615701       0.01193732       0.00455904
C        6.55745377       7.12429286       6.37850143       0.01363587       0.00472927       0.00152279
H        7.98446378      10.47751672       5.77474166      -0.01582299       0.01685774       0.00742946
H        6.34743196       9.83843466       5.52822953      -0.00811175       0.00159556       0.00179805
H        7.73904441       9.13214018       4.63386318       0.00073114       0.01775581       0.00451805
H        6.80663680       6.80127150       5.36846017       0.01563221       0.00964249       0.00059634
H        5.54594471       7.52666465       6.42580697       0.01017509      -0.00446697       0.00317436
H        6.68548696       6.28977035       7.06533509       0.02327182       0.00429733      -0.00141604
S        2.72328037       4.22697430       0.87246873      -0.01002264      -0.00178695      -0.00109023
O        2.12294906       5.30044189       0.02085713      -0.00941652      -0.00115657      -0.00173259
C        1.61616618       3.96461051       2.27190264      -0.00025684       0.00668899       0.00280315
C        4.04184510       4.96651466       1.86015862      -0.01071632      -0.00221932      -0.00120485
H        0.72901059       3.45348108       1.90552929       0.01210901       0.02187883       0.00851267
H        1.37228206       4.94048808       2.69157512      -0.01074510       0.00000530      -0.00197017
H        2.13945861       3.34717735       3.00399115      -0.01341232      -0.00048142      -0.00147430
H        4.50044734       4.16567220       2.44163145      -0.01213003      -0.00201482       0.00060485
H        3.59306078       5.70756568       2.51787319      -0.01056238      -0.00111532      -0.00212394
H        4.75430632       5.38788351       1.15547716      -0.00985803      -0.00374551      -0.00049432
S        2.73868168      12.79162305       5.38181052      -0.00457966       0.00395596      -0.00230527
O        4.07623965      12.21064690       5.03516169      -0.00887322      -0.00264806      -0.00653440
C        2.42641400      14.13440706       4.22287430      -0.00160415       0.00382620      -0.00327206
C        2.97577578      13.83645485       6.83620376       0.00721906       0.00485653      -0.00508738
H        2.36121448      13.67966935       3.23621452      -0.00898520       0.00343083      -0.00248697
H        3.23715771      14.86230133       4.27233725       0.00239688      -0.00061233      -0.00742354
H        1.46749447      14.59070267       4.46894806       0.00271796       0.00991615       0.00041801
H        2.03038986      14.32398433       7.07720248       0.01181664       0.01181422      -0.00268445
H        3.75071536      14.57029154       6.62149045       0.01194803      -0.00180542      -0.00897988
H        3.27345843      13.18387197       7.65418398       0.00485045       0.00390689      -0.00507963
S       10.74074688       6.84554230       5.82076518      -0.00454021      -0.00293977      -0.00146043
O       11.22653959       6.68931330       7.23557304       0.00085485      -0.00470582      -0.00233436
C       11.94120607       5.99048324       4.77572652      -0.00362122       0.00573958      -0.00678080
C       11.18310150       8.51045913       5.30334519      -0.01386946      -0.00001627       0.00235781
H       11.89952976       4.93611026       5.04475071       0.00380068       0.00517442      -0.00870182
H       12.93019594       6.41673662       4.94934259      -0.00577685       0.01115285      -0.00959766
H       11.64456086       6.10872491       3.73363534      -0.00786834       0.00514227      -0.00567669
H       10.96173800       8.62654786       4.24331473      -0.02133297       0.00209565       0.00422051
H       12.24520676       8.65676876       5.49704824      -0.01369575       0.00417089      -0.00312299
H       10.57162459       9.20722554       5.87349583      -0.01308728      -0.00483990       0.00834998
S       12.14574198       5.08621333      12.04118453       0.00353467      -0.00085419       0.00612968
O       11.29486796       3.99218240      11.40407865      -0.00680530      -0.00119209       0.01076865
C       11.99843139       6.49114477      10.94390348       0.01163835      -0.01041025      -0.00476414
C       13.83579805       4.65494099      11.68515882      -0.00147569      -0.01994647       0.01272210
H       11.01201025       6.92881532      11.08090981       0.00983441      -0.01268750      -0.01658653
H       12.11456033       6.15940351       9.91264614       0.02356497      -0.01502879      -0.00072607
H       12.77432216       7.20605673      11.21726137       0.00642854      -0.00587736      -0.00048371
H       14.49104146       5.35463359      12.20659058       0.00403603      -0.02366158       0.01244619
H       13.99514847       4.65364696      10.60837828       0.00272122      -0.02781300       0.01349235
H       14.02097224       3.66062865      12.08224330      -0.01609551      -0.01924282       0.02007115
S        5.11487912       3.71252987       5.35978885      -0.00005105       0.00279129      -0.00383967
O        4.39304757       2.73776419       4.47512922      -0.00161517       0.00322878      -0.00144458
C        6.80335012       3.81609595       4.74680731      -0.00121146       0.00222703      -0.00695722
C        5.53265845       2.83393649       6.87423915       0.00316700       0.00352016      -0.00421596
H        6.76530462       4.26305364       3.75486233      -0.00301770       0.00256402      -0.00662591
H        7.19526139       2.80148588       4.70103355      -0.00219008       0.00201172      -0.00831454
H        7.40618146       4.40615812       5.43524660       0.00084206       0.00129569      -0.00821833
H        6.26317614       3.42992371       7.42271889       0.00424780       0.00348607      -0.00593620
H        5.96401813       1.87071583       6.59566655       0.00292927       0.00366628      -0.00486672
H        4.61319637       2.70769256       7.44246082       0.00433266       0.00343113      -0.00266012
S        1.14336477       7.92609848       6.83111632      -0.00998116       0.00809433       0.00154173
O        0.21935642       8.18161604       5.67898370      -0.01190710       0.01347521       0.00486195
C        1.53229470       6.16470858       6.81761577      -0.01093901       0.00855476      -0.00810058
C        0.09710615       7.93002801       8.29561669      -0.00655478       0.00151052       0.00363386
H        2.02912139       5.97446353       5.86740498      -0.01405422       0.01393439      -0.01096322
H        0.61367242       5.58235410       6.89347738      -0.01121543       0.00895011      -0.00849922
H        2.20359541       5.94815897       7.64871950      -0.01064599       0.00328391      -0.00998551
H        0.66974178       7.56488667       9.14325161      -0.00514969      -0.00492693      -0.00031791
H       -0.79185581       7.34125328       8.06178662      -0.00787127       0.00433861       0.00224268
H       -0.17019777       8.97111636       8.47316527      -0.00392573       0.00068538       0.01106909
S        7.45041726       0.02165490       4.50995816      -0.00159860      -0.00243115      -0.00191757
O        7.93783256      -1.37459308       4.71052082       0.00096077      -0.00348663      -0.00250387
C        6.20344223      -0.02931380       3.21130915      -0.00179365      -0.00499712      -0.00093365
C        8.73263780       0.88684052       3.56593947      -0.00254387      -0.00233671      -0.00225961
H        5.41188638      -0.67132518       3.59774120      -0.00122482      -0.00485910      -0.00042169
H        6.61687728      -0.44346056       2.29132947      -0.00211857      -0.00493187      -0.00103396
H        5.81581920       0.97956983       3.05970368      -0.00233549      -0.00504074      -0.00128809
H        8.33822962       1.81341191       3.15227637      -0.00370525      -0.00240818      -0.00211584
H        9.07115299       0.23130710       2.76439998      -0.00224220      -0.00138679      -0.00269249
H        9.54407080       1.09289659       4.26059661      -0.00254725      -0.00147974      -0.00251532
