190
Lattice="13.924641982146795 0.0 0.0 0.0 13.924641982146795 0.0 0.0 0.0 13.924641982146795" Properties=species:S:1:pos:R:3:forces:R:3 energy=-370889.5 stress="-0.0010747931664809585 -0.00020171087089693174 -0.0007054322923067957 -0.00020171087089693174 -0.0005981061840429902 0.00012207026884425431 -0.0007054322923067957 0.00012207026884425431 -0.000726059137377888" pbc="T T T"
La      15.49333419      11.96137399      -1.35727547       0.02349779       0.01062727      -0.00086868
S        6.16865217      11.98320195       7.08365628       0.03714240      -0.00828671       0.00569296
O        6.30283946      10.69082367       6.41811598       0.04936621      -0.00106144       0.00393367
O        5.00422548      12.07128382       7.97060697       0.02395678      -0.01464596      -0.00498903
O        6.33872147      13.13777051       6.20892642       0.03941889      -0.00124383       0.01447034
C        7.57778880      12.05366840       8.19799282       0.02201998      -0.00623903       0.02547681
H        8.48114265      11.83053278       7.63550339       0.03090695       0.00392908       0.03529674
H        7.63681973      13.05425473       8.62196536       0.00994755      -0.00962759       0.03468323
H        7.43806433      11.31938645       8.98923457       0.01654848      -0.01396656       0.01737479
S        6.05648032       9.65450889       1.70787100       0.01203740      -0.00763690       0.00768912
O        6.22384846      10.46247790       2.89791574      -0.00946324      -0.02975154      -0.02708244
O        6.23944867      10.40643177       0.45329541       0.00810209      -0.02329683      -0.01592135
O        4.84020596       8.83998089       1.68477831       0.00281453      -0.03392839      -0.02040538
C        7.36988892       8.44984773       1.70934283       0.01083601      -0.01692075      -0.00191058
H        7.40314284       8.00684400       2.70075468       0.00428272      -0.01541801      -0.00077590
H        7.14404710       7.68982725       0.96763220       0.02185095      -0.01676942      -0.00310977
H        8.30871458       8.94231957       1.47888079       0.01000432      -0.01015588       0.00709028
S        1.59750489      13.78844112       5.06928261      -0.00772953       0.01429850      -0.00531313
O        1.59628181      12.51590492       5.77687603      -0.00671025       0.00433660      -0.02011836
O        2.25474210      13.74434986       3.75643000      -0.00645089       0.03031094      -0.00435591
O        2.01510052      14.93202414       5.88031309      -0.00960177       0.00380564       0.00872719
C       -0.12404880      14.11822934       4.68851122      -0.00732470       0.01507822      -0.00395960
H       -0.66782730      14.24316745       5.62129775      -0.01040005       0.00264770      -0.00418606
H       -0.17571022      15.02646107       4.09014786      -0.00698325       0.02198939       0.00648254
H       -0.53084320      13.27093871       4.14002702      -0.00260662       0.02036695      -0.01546491
C       12.31886397       7.97132425       8.72188358       0.00642888       0.00432952       0.00204302
C       13.24595852       7.16927807       9.39266513       0.00865573       0.00514700       0.00013103
C       11.73687066       9.03194211       9.41630583       0.00646320       0.00265023       0.00293896
C       11.96216842       7.68570993       7.29380964       0.00481971       0.00459154       0.00263450
C       13.59080155       7.41978449      10.71280963       0.00842097       0.00324984       0.00072614
C       12.07458391       9.28719729      10.74139302       0.00631856       0.00136808       0.00177232
C       13.00480284       8.48456190      11.39264484       0.00794982       0.00301246       0.00237232
H       13.70401115       6.33904283       8.86642467       0.00911496       0.00600859      -0.00070939
H       11.02389175       9.67034990       8.90902289       0.00489964       0.00249212       0.00416649
H       11.35587682       8.48450641       6.87020708      -0.00085801       0.00152846       0.00509630
H       12.85896098       7.57239613       6.68125853       0.00376144       0.01078759       0.00001667
H       11.39249032       6.75809572       7.20605321       0.01038435       0.00141749       0.00207854
H       14.31266576       6.78461635      11.21203065       0.01000811       0.00405506      -0.00047252
H       11.60416275      10.11362442      11.26270811      -0.01073350      -0.00666972      -0.00055691
H       13.25331636       8.66346409      12.43279260       0.00771315       0.00137434       0.00182551
C        3.81997519       7.36714678       4.35801319      -0.00698631       0.00903682       0.00230698
C        2.51825507       6.94810378       4.08949809      -0.00782491       0.00893676       0.00791921
C        4.02345089       8.66750017       4.82732481      -0.00396103       0.01060709      -0.00350559
C        4.98451906       6.46364912       4.09404281      -0.00864041       0.00606039       0.00508633
C        1.44269635       7.81553171       4.26019367      -0.00701374       0.01009905       0.00847847
C        2.95647274       9.53609402       5.00002648      -0.00367916       0.01147899      -0.00294611
C        1.66324645       9.11446111       4.70492980      -0.00461937       0.01133429       0.00336821
H        2.35184538       5.93719490       3.73118600      -0.00964599       0.00765435       0.01288192
H        5.02231923       9.02978766       5.04181366      -0.00318143       0.00997077      -0.00816713
H        5.62209052       6.36026885       4.97367808      -0.00844813       0.00916076       0.00528729
H        4.66892519       5.46532746       3.79597614      -0.01072513       0.00539842       0.00979371
H        5.58746038       6.88594235       3.28883866      -0.00887531       0.00140084       0.00270256
H        0.43780022       7.47607785       4.03241548      -0.00776899       0.00985160       0.01358635
H        3.12285251      10.54827669       5.34743184      -0.00274174       0.01228011      -0.00627670
H        0.84495946       9.81431948       4.81747349      -0.00376298       0.01222648       0.00480372
C        5.22902450       2.32464832       3.08972756       0.00050033      -0.00704908       0.00038742
C        6.54454604       2.64918152       3.41462560      -0.00146124       0.00401621      -0.00312451
C        4.23221401       2.53280209       4.04201288       0.00089002      -0.01222919       0.00185748
C        4.90491309       1.68723110       1.77299733       0.00231191      -0.01208994       0.00232562
C        6.86112849       3.16837925       4.66296128      -0.00290522       0.00947305      -0.00498307
C        4.54553242       3.05595203       5.28829897      -0.00078972      -0.00650576      -0.00025070
C        5.85991963       3.37752017       5.60203080      -0.00259339       0.00333954      -0.00322759
H        7.33064051       2.48049387       2.68583461      -0.00188547       0.00926720      -0.00470409
H        3.21388551       2.22998713       3.83714553       0.00261512      -0.01874740       0.00326147
H        3.90602361       1.96298238       1.43331303      -0.00261866      -0.02445064       0.00700434
H        5.62707856       1.96435494       1.00341496      -0.00471905      -0.00392073      -0.00124367
H        4.92910655       0.60150647       1.88199478       0.01577731      -0.01173484       0.00251582
H        7.88937001       3.40514831       4.90061822      -0.00439651       0.01842657      -0.00774756
H        3.75771675       3.17757979       6.01874921      -0.00068428      -0.01003838       0.00048989
H        6.10399448       3.77687140       6.57878313      -0.00369417       0.00726776      -0.00459838
C        9.79406089       4.61188898       6.29478589       0.00497605      -0.00194892       0.00585771
C       10.41871304       4.46595353       5.05532519       0.00990032      -0.00271593       0.00847233
C        8.89984926       5.66908819       6.46805488       0.00406584      -0.00226088       0.00156465
C       10.08503310       3.65292285       7.41127619       0.00071169      -0.00153813       0.00724220
C       10.15980965       5.35543487       4.02050204       0.01362802      -0.00353249       0.00683665
C        8.64688496       6.57032853       5.44095731       0.00830980      -0.00263636       0.00016014
C        9.27986512       6.41279299       4.21384105       0.01337517      -0.00329916       0.00283836
H       11.09794784       3.63548698       4.89808802       0.01107717      -0.00224174       0.01199846
H        8.38617562       5.78145453       7.41585514      -0.00039923      -0.00199595      -0.00086118
H        9.23428333       3.56186950       8.08656531      -0.00329043      -0.00401797       0.00185685
H       10.32603276       2.66353028       7.02344565       0.00536717      -0.00056317       0.00802945
H       10.94153656       3.98799746       8.00306920      -0.00381401      -0.00002302       0.01277621
H       10.62965834       5.21684622       3.05425667       0.01673125      -0.00490203       0.00854696
H        7.94906720       7.38513566       5.59476424       0.00796375      -0.00249557      -0.00315327
H        9.07633378       7.09848994       3.40383659       0.01704350      -0.00317885       0.00202098
C        5.78676417      12.35896131      11.45681899      -0.01262146       0.00052763       0.00045097
C        4.62698809      12.96180077      10.96358796      -0.01099437       0.00055459      -0.00423902
C        5.77095861      10.99034900      11.72664152      -0.01163927      -0.00068225      -0.00543921
C        7.03617594      13.14980158      11.68325923      -0.01574355       0.00198117       0.01278409
C        3.49621364      12.19537887      10.69921292      -0.00659570      -0.00070088      -0.01579326
C        4.62536747      10.23324017      11.54564411      -0.00984538      -0.00072341      -0.01365808
C        3.47552030      10.82377655      11.01965218      -0.00793817      -0.00160225      -0.01898510
H        4.63781592      14.01357623      10.70776197      -0.01025986       0.00106367      -0.00043685
H        6.65909375      10.51951494      12.12154568      -0.01399814      -0.00027737      -0.00118814
H        7.90535889      12.60575679      11.31068972      -0.01244096       0.00788356       0.01188760
H        6.99039124      14.11619114      11.18346843      -0.01651117       0.00639677       0.02144191
H        7.19599831      13.31013877      12.75261353      -0.02083214      -0.00752341       0.01490593
H        2.67051285      12.65076785      10.14726197      -0.00506534       0.00012650      -0.01778429
H        4.63531946       9.17815715      11.78344848      -0.00975335      -0.00159933      -0.01694828
H        2.63761334      10.18695123      10.72565723      -0.00597557      -0.00042288      -0.02353538
C        2.08389532      10.13134433       0.54756438      -0.00132889      -0.00248252      -0.00720800
C        0.79011823      10.61926206       0.84298170      -0.00013164       0.00042546      -0.01021124
C        3.15686666      11.05112723       0.56232890       0.00077263      -0.00642557      -0.00455271
C        2.30270815       8.66911749       0.33672589      -0.00371824      -0.00408274      -0.00598391
C        0.57161446      11.96796481       1.16657892       0.00262415      -0.00028230      -0.00753108
C        2.93636369      12.39827554       0.89109751       0.00413997      -0.00557985      -0.00361720
C        1.64348731      12.87195210       1.17609129       0.00476285      -0.00300497      -0.00400046
H       -0.02735183       9.91459666       0.90975795      -0.00355575       0.00171117      -0.01226623
H        4.16810047      10.71622026       0.36164761       0.00092915      -0.00957493      -0.00216278
H        3.23970301       8.48056408      -0.17967459      -0.00878310      -0.00547145      -0.01386435
H        2.39861570       8.18752578       1.31359494       0.00563084      -0.00077902      -0.00554407
H        1.46681616       8.21428961      -0.19923285      -0.00894994      -0.00419028       0.00351766
H       -0.42174307      12.29928865       1.43979566       0.00228277       0.00290491      -0.00884133
H        3.78220423      13.06549246       0.96420739       0.00595641      -0.00783572      -0.00079784
H        1.50239004      13.88772346       1.51124570       0.00817861      -0.00387609       0.00236213
C        5.93064208       7.81296583       8.99839823      -0.00334516      -0.00722590      -0.00782937
C        5.02951774       8.81891408       8.64734306      -0.00430344      -0.00996232      -0.01427703
C        5.46543462       6.50046938       9.07866517      -0.00142945      -0.00736260      -0.00141689
C        7.36361127       8.16160516       9.27898540      -0.00415334      -0.00375798      -0.00727008
C        3.70120700       8.52249775       8.38222980      -0.00380643      -0.01389566      -0.01314561
C        4.13330239       6.19923326       8.81081288      -0.00048336      -0.01097727      -0.00211864
C        3.24743142       7.21169020       8.46259329      -0.00140882      -0.01415539      -0.00775361
H        5.35904839       9.84318486       8.54266351      -0.00490201      -0.01013538      -0.01889136
H        6.15076937       5.70062687       9.34099846      -0.00084523      -0.00487560       0.00434267
H        8.01700725       7.29198280       9.21119782      -0.00583270      -0.00697820       0.01749708
H        7.71258378       8.92231863       8.57951682       0.00152757      -0.02062473      -0.02277833
H        7.48057135       8.56898904      10.28740850      -0.01019636       0.02010595      -0.01628661
H        3.03597369       9.31990991       8.07462115      -0.00795804      -0.01830091      -0.01564503
H        3.79942507       5.17036927       8.85772194       0.00090179      -0.01107448       0.00233239
H        2.21625447       6.98032075       8.22758908      -0.00074276      -0.01621090      -0.00791926
C        7.52906218       5.66513367      12.82752523       0.00054657       0.00043405      -0.00149539
C        8.01547326       4.36719686      12.99559825      -0.00124919       0.00041530       0.00350948
C        8.45262577       6.69829914      12.66633467       0.00148468      -0.00198814      -0.00922957
C        6.05496860       5.94454346      12.84169747       0.00098994       0.00291925       0.00228651
C        9.38088461       4.11065209      13.00936730      -0.00144548      -0.00154001       0.00090216
C        9.81899594       6.44676137      12.67406931       0.00126239      -0.00389099      -0.01116566
C       10.28897340       5.15106448      12.84870133      -0.00048685      -0.00379492      -0.00629407
H        7.31238352       3.55001925      13.11794195      -0.00200699       0.00224964       0.00962949
H        8.09287836       7.71318753      12.54066375       0.00274301      -0.00208931      -0.01346399
H        5.82282538       6.86167037      12.30121111       0.00121409       0.00278601       0.00210224
H        5.49955464       5.12948590      12.37770114      -0.00171594       0.00326942       0.00512659
H        5.68136641       6.06219751      13.86256713       0.00412447       0.00535633       0.00310633
H        9.73724454       3.09592649      13.13894816      -0.00272321      -0.00138994       0.00498395
H       10.51806709       7.26155122      12.53016186       0.00208607      -0.00557312      -0.01609499
H       11.35398345       4.95474687      12.85371735      -0.00080180      -0.00548946      -0.00803557
C       10.57066946      10.45317443       1.59944597      -0.00469743       0.00066784       0.00379945
C       10.42165689      11.64220687       0.88957631      -0.00357071      -0.00147861      -0.00046454
C        9.88856939      10.31500691       2.80991539      -0.00525131       0.00457689       0.00299087
C       11.35683623       9.30006665       1.04540287      -0.00395311      -0.00073999       0.00712147
C        9.58561852      12.65110681       1.36309688      -0.00367752       0.00029843      -0.00306545
C        9.02232261      11.29733554       3.26519634      -0.00592978       0.00612589       0.00067717
C        8.86912754      12.47215300       2.53675252      -0.00354414       0.00446796      -0.00368142
H       10.93855036      11.76818299      -0.05705894      -0.00337484      -0.00453869      -0.00019996
H       10.00100462       9.39580897       3.37618005      -0.00635073       0.00628939       0.00619819
H       10.69619413       8.46141571       0.80972877      -0.00341007      -0.00157550       0.00874822
H       11.86446684       9.57856769       0.12148752      -0.00364229      -0.00319797       0.00672129
H       12.09610103       8.92662235       1.75786043      -0.00416535       0.00158032       0.00850044
H        9.47121586      13.56527083       0.79266956      -0.00241308      -0.00123067      -0.00630851
H        8.42972663      11.13644465       4.15620879      -0.00583589       0.00898919       0.00021493
H        8.17026738      13.22230386       2.88165665      -0.00261752       0.00638878      -0.00531542
C       10.78779480      12.97734515       6.50720938      -0.00730206       0.01466102       0.00078498
C       11.35693231      13.46846097       7.68083674      -0.00244047       0.01481411       0.00245517
C       11.36469378      11.84264988       5.92799813      -0.00319903       0.01392296       0.00651310
C        9.63505141      13.67893659       5.85421656      -0.00408208       0.01081041       0.00838719
C       12.48782642      12.87734192       8.23347353       0.00301708       0.01682039       0.00763217
C       12.49193239      11.25189793       6.47813407      -0.00341118       0.00932831      -0.00066829
C       13.07023633      11.77480887       7.62789290      -0.00146702       0.01162632       0.00057501
H       10.91692538      14.33708678       8.15782352       0.00223901       0.01361378       0.00484921
H       10.94039171      11.44355185       5.01530549      -0.00708351       0.01292959       0.00712641
H        8.82388391      13.00496608       5.58231722      -0.00410053       0.00959274       0.01422621
H        9.20611265      14.43467584       6.51055607      -0.00382350       0.01213296       0.00737053
H        9.96525766      14.17230500       4.93536754      -0.00857994       0.00835316       0.00625262
H       12.92529675      13.30423037       9.12702646       0.00400392       0.01147212       0.00141086
H       12.94552918      10.39656898       5.99463566      -0.00474482       0.01152986       0.00228198
H       13.97718069      11.33697287       8.02104128       0.00021951       0.01124924       0.00034861
C        3.25537073       2.51435987       9.74130233      -0.00246322      -0.00138000       0.00028803
C        3.44270617       1.71868993       8.60901969      -0.00282101      -0.00376642       0.00284202
C        4.37775458       2.93998400      10.45432718      -0.00348677      -0.00021385      -0.00109586
C        1.87383537       2.92817237      10.16760182      -0.00091451       0.00011094      -0.00244567
C        4.71971237       1.36374022       8.18825750      -0.00289655      -0.00637853       0.00435470
C        5.65905428       2.60213652      10.02942843      -0.00316936      -0.00223781       0.00062343
C        5.82916536       1.81675829       8.89355370      -0.00218773      -0.00576636       0.00319419
H        2.59978022       1.38778004       8.01063035      -0.00236413      -0.00440045       0.00236246
H        4.24246430       3.56450332      11.33069728      -0.00207352       0.00290757      -0.00285007
H        1.90267704       3.82572194      10.78649530      -0.00214635       0.00385106      -0.00680512
H        1.24480028       3.12530855       9.29939305      -0.00147592      -0.00167766      -0.00263569
H        1.37437443       2.14765773      10.74971398      -0.00206561       0.00839180      -0.00119330
H        4.85110068       0.74196890       7.31275203      -0.00221206      -0.00963679       0.00582561
H        6.52080539       2.96175884      10.58179345      -0.00241415      -0.00101628       0.00021584
H        6.82184536       1.55607454       8.54607729      -0.00268848      -0.00792544       0.00437727
