199
Lattice="12.660498941198586 0.0 0.0 0.0 12.660498941198586 0.0 0.0 0.0 12.660498941198586" Properties=species:S:1:pos:R:3:forces:R:3 energy=-406656.78125 stress="0.00036297697806730866 -0.000264777903794311 -0.0011273386771790683 -0.000264777903794311 0.0010193604975938797 5.7632429161458276e-05 -0.0011273386771790683 5.7632429161458276e-05 0.0009866382461041212" pbc="T T T"
La      11.29477433      12.64557627       1.34005792      -0.00397400      -0.00033385       0.00477778
S        9.77559269      12.73505147       6.42994797      -0.00279503      -0.00610437       0.00737834
N       10.04098972      12.71249991       3.64778518      -0.00104389      -0.00021868       0.01409245
C        9.93822274      12.73073345       4.82392487      -0.00037753      -0.00370685      -0.00755256
S        0.57049827       8.74395429       2.14194439      -0.00298247      -0.00781077       0.00053877
N       -0.18731104      10.63491145       0.21819044      -0.00208618      -0.01048478       0.00768787
C        0.14661140       9.78628053       0.96384588      -0.00674881       0.00440966      -0.00774796
S        6.17832195      13.03816754       3.85409428       0.00055966       0.00355351      -0.00282799
N        7.05336205      10.52690535       2.95720533      -0.00609410       0.00081995       0.00126944
C        6.68106099      11.58068816       3.33902304      -0.00267460      -0.00025874      -0.00129788
O        4.45624177      11.97401836       0.17261830      -0.00001720       0.00480127      -0.00162464
H        5.02210963      12.76663853       0.35040203       0.00238144       0.00376488      -0.00306244
H        3.70805311      12.03676092       0.77464165       0.00322565       0.00521773       0.00248301
O        8.33752310       3.03930647       3.24292782      -0.00111612       0.00248328      -0.00097800
H        8.08172313       2.29701398       3.80366672       0.00185104       0.00348598       0.00170994
H        9.18733558       2.77215956       2.84850782       0.00153274       0.00471080       0.00218729
O        8.18092479       7.93056698       3.85351892       0.00730634       0.00211207      -0.00242743
H        7.73042481       8.76343472       3.63849487       0.00491387       0.00154671      -0.00032261
H        7.51253371       7.23265184       3.72657884       0.00748822       0.00145335      -0.00082912
O        4.08815463       1.26408225       6.48776770       0.00309986      -0.00235313      -0.00176474
H        4.29727994       1.33606103       5.54930374       0.00172189      -0.00370641      -0.00220576
H        4.82845747       1.71049106       6.97832317       0.00383538      -0.00199936      -0.00316622
O        9.14007538       4.50319162      11.04074533       0.00639495       0.00093203      -0.00079960
H        9.97986498       4.49012546      10.55012745       0.00397484       0.01510166      -0.00546533
H        9.23968880       5.23817577      11.67514282       0.00174568       0.00043713       0.00040387
O        9.17167536       6.88085154      12.41220148       0.00135648      -0.00071841      -0.00397854
H        8.22644239       6.99448493      12.63445169       0.00103126       0.00074320      -0.00637451
H        9.63900318       7.20399560      13.20341197      -0.00092159       0.00314336      -0.00366993
O        1.64325134      11.37391147       8.60529131       0.00670364       0.04933672      -0.00053932
H        2.33783522      11.65793054       9.23066789       0.01231314       0.03905696      -0.00049235
H        2.14828667      11.01306067       7.85651737       0.00130942       0.03031259       0.00519293
O       11.79009669       3.34366783       4.51707324       0.00284703      -0.00447902       0.00648814
H       12.74911427       3.46872828       4.47492016       0.00220688      -0.00043745       0.00583938
H       11.53200061       3.28407879       5.46136597       0.00317980      -0.00377342       0.00628415
O        8.31206697       3.51790148       7.18258000       0.00245614      -0.00300512       0.00160547
H        8.12733855       4.17502411       7.90245099       0.00304752      -0.00227352       0.00137407
H        8.36938611       4.07132774       6.36828612       0.00207032      -0.00326225       0.00143227
O        5.89511758       6.45611761       3.15068814       0.00937766       0.00456588      -0.00195171
H        5.43510418       5.61823908       3.34916843       0.01102159       0.00279078      -0.00406461
H        5.27967510       7.16078708       3.43460609       0.00852858       0.00200459       0.00237103
O       10.96878550       2.39368190       2.22375071       0.00092259       0.00081235       0.00810780
H       11.27329513       2.58970122       3.15606092       0.00047442       0.00018455       0.00866662
H       11.11431045       3.25522940       1.78998147       0.00379611       0.00067720       0.00921857
O       10.63737138      12.83099912      11.63110737      -0.01123218      -0.01574265       0.01007792
H        9.71314222      12.51896500      11.47397665      -0.01344012      -0.00617869       0.00532736
H       11.13726252      12.43482734      10.87197679      -0.01062691      -0.00497857       0.00413261
O        1.32792254       4.20235056       2.96656817       0.00391307       0.00238658       0.00527294
H        0.61749464       4.55071341       2.40157681       0.00019930       0.00079460       0.00858174
H        1.92356544       3.67306950       2.39934581      -0.00414912      -0.00454742       0.00354981
O        2.50526812       4.87953388       7.98155299      -0.00249804       0.00145539       0.00054996
H        2.05395939       4.16174950       7.46624890      -0.00381533       0.00279263      -0.00057595
H        3.23046892       5.17229460       7.38823706      -0.00433899       0.00242485      -0.00136206
O        6.37063902      12.68484340       9.25852643      -0.00889361      -0.00530247      -0.00120560
H        7.03583666      12.42433775       9.93375509      -0.00900736      -0.00678859      -0.00097826
H        6.59176540      12.19392026       8.44060865      -0.00895654      -0.00334569      -0.00243238
O        0.81252118       1.16051826       0.77215317      -0.00731841      -0.00086924      -0.00583614
H        1.05043643       1.76144273       0.00855551      -0.00955554      -0.00285449      -0.00757851
H        1.50599490       1.36458692       1.41908557      -0.00412729      -0.00146142      -0.00903519
O        5.62693362       9.16891788       6.73505338       0.00208601      -0.00354999       0.00073407
H        6.20534257       8.38239886       6.74695471       0.00461721      -0.00198401      -0.00135881
H        6.23816470       9.93300763       6.70181994      -0.00048807      -0.00160763       0.00074591
O       11.26308257       5.06136890       9.26507694       0.00452792       0.00365969       0.00269637
H       10.83933222       5.91586090       9.08199248       0.00429401       0.00379103       0.00328569
H       11.26779370       4.51290918       8.45977199       0.00289931       0.00252033       0.00329765
O        1.64836608       2.86016922      11.65126387      -0.01166822      -0.00526852      -0.01162145
H        1.22854044       3.73817061      11.50327692      -0.00658826      -0.00211444      -0.00657428
H        2.31399490       2.72738614      10.96464990      -0.01360063      -0.00442953      -0.01318055
O        1.80252800       7.57920823       7.70835308       0.01185644       0.00535426       0.01491401
H        1.85257725       6.60173303       7.69284687       0.00914230       0.00495106       0.02122320
H        2.27183953       7.83471501       8.51823229       0.02228025       0.01204053       0.00676183
O        3.87376196      11.95207600      10.10670306       0.00288048      -0.01068808      -0.00022265
H        3.95857946      11.97278200      11.07826159      -0.00372988      -0.00432002       0.00017524
H        4.71663236      12.32904181       9.77503115       0.00479241      -0.01140693       0.00188052
O        3.16489349       2.50665021       1.81701054      -0.01096773      -0.01137109      -0.00676736
H        3.63231956       2.83708258       1.01636863      -0.01119111      -0.01194710      -0.00729578
H        3.77685324       2.63052461       2.55373466      -0.00821184      -0.01824439      -0.00805742
O        4.31890847       8.66964626       3.59262907       0.00202177      -0.00106564       0.00770043
H        3.61084830       8.81863827       4.26309956       0.00245947      -0.00270633       0.00840448
H        4.93463371       9.40903420       3.63748409       0.00229260      -0.00109075       0.00909534
O        4.29364671       4.24875921       4.10828217       0.00813362       0.00892732      -0.01752126
H        3.37152089       4.50535407       3.97008551       0.01113296       0.01255248      -0.03194869
H        4.48709496       4.52351595       5.01992380      -0.00464651       0.00795597      -0.01456413
O        8.62239205       9.79364634       9.27587464      -0.00081790      -0.00170975      -0.00046287
H        7.76263052       9.34535265       9.44458644      -0.00128126      -0.00159748      -0.00429563
H        8.84560847       9.70632128       8.32362967       0.00267536      -0.00162977       0.00032577
O        0.25789760      11.82398320       3.05585771       0.00209929      -0.00226772      -0.00155190
H        0.94181706      12.23712507       3.66883929      -0.00069062      -0.00230174       0.00094905
H        0.44308729      10.86786984       3.06322296       0.00257966      -0.00150807      -0.00259963
O        9.82497540      10.55137749       1.61593740      -0.00358006       0.00342607       0.00799052
H        9.97998697       9.57936734       1.63629582      -0.00469018       0.00281283       0.00093812
H        8.95015078      10.69129091       2.01076607      -0.00464211       0.00303235       0.00565947
O       10.25871396       7.62461855       9.92860619       0.00489160       0.00213265       0.00047994
H        9.66742819       8.37738226       9.72745262       0.00303483       0.00050148      -0.00013308
H        9.97801706       7.35816409      10.82427447       0.00382021       0.00132447       0.00013062
O        1.11336074       6.16350759       4.92965836      -0.01285695       0.00483943       0.00674246
H        1.49043143       7.04715231       4.77478653      -0.00600597       0.00276907       0.01105987
H        1.34503533       5.60889133       4.16458326      -0.00345939       0.00230789       0.01163225
O        0.35661581       5.22679068      11.35880629      -0.00039121       0.00147316       0.00416140
H       -0.22622765       5.18483642      10.57253850       0.00063714       0.00363704       0.00318183
H        0.86079355       6.04297434      11.25483416       0.00826382      -0.00435189       0.00100340
O        4.61913794       5.83547042       6.48863104      -0.00734842       0.00440663      -0.00465680
H        4.43141353       6.65934070       6.02656943      -0.01018146       0.00782704       0.00257085
H        5.05553241       6.11770307       7.32785658      -0.00436989      -0.00145249      -0.00427723
O       11.01228905       3.15070264       7.16318335       0.00350210      -0.00087482       0.00685789
H       11.25897295       2.22974457       7.32162211       0.00902233       0.00089862       0.00838917
H       10.02260594       3.15725213       7.19026130       0.00360832      -0.00498379       0.00571645
O        4.27439785       6.04800620      12.37994838       0.01097901      -0.01328951       0.01527271
H        3.78723410       6.30422038      13.20552474       0.01048001      -0.01006876       0.01413469
H        5.12172623       6.53097254      12.45893599       0.00985284      -0.01035465       0.01217972
O        0.39324840       0.47935352       6.97412316      -0.01510496       0.01680726       0.00070013
H        0.01833539      -0.28867522       6.50101621      -0.01393433       0.01621053       0.00221425
H        0.93560667       0.03156386       7.66234987      -0.00810027       0.01442418      -0.00528845
O        8.61123881       5.12991023       5.02945843      -0.00311047       0.00107202       0.00162317
H        8.52460614       4.48745213       4.29421197      -0.00463910       0.00228226       0.00050351
H        9.51834424       5.49428317       4.98822994      -0.00498052       0.00521590      -0.00413318
O        3.92272025       3.19137413       9.76226950      -0.00988746      -0.01025494      -0.01009090
H        4.68279339       2.93065595       9.20727159      -0.00651751      -0.00762567      -0.00664314
H        3.43849916       3.82699341       9.20063289      -0.00700357      -0.00813634      -0.01049677
O        1.72884918       2.85635920       6.45374367       0.00236861       0.00104213       0.00063333
H        1.06463060       2.18932860       6.69299472       0.00004762       0.00139405      -0.00396240
H        2.56475080       2.35017217       6.47352665       0.00162108       0.00004574       0.00187524
O        6.55052942       7.28104512       0.60229512       0.00472797       0.00586468       0.00025570
H        6.35625663       6.95515746       1.51023915       0.00744799       0.00767403       0.00176796
H        6.41527913       8.24397788       0.60862452       0.00279168       0.00563128      -0.00172946
O       11.04459563       6.44580514       4.92168131      -0.00847175       0.00723235      -0.03374580
H       12.01574091       6.32005409       5.02818059      -0.01011703       0.00882126      -0.01439060
H       10.91046233       7.39804903       4.84014904      -0.00919289       0.00764810      -0.03368848
O        3.03744655       6.79028060       1.94395945       0.00603890      -0.00055724       0.00707921
H        3.48664521       7.55799340       2.33764551       0.00522022      -0.00005182       0.00734049
H        2.15710404       7.13996961       1.73330278       0.00744294      -0.00077325       0.00190161
O       10.16300887       7.86944563       2.08555208      -0.00217277       0.00981595      -0.01303592
H       11.02586663       8.05692391       2.49451864       0.00285599      -0.00447242      -0.01707165
H        9.48231907       7.82347401       2.81170062       0.00210813       0.00387264      -0.00930662
O       11.90580666       8.58677629       7.93845076       0.00978319       0.00569017       0.00506173
H       11.57986338       8.36999569       8.83053895       0.00719346       0.00909508       0.00496704
H       12.74252699       8.09077020       7.83736776       0.01143576       0.00738348       0.01082410
O        4.75160536       3.41362874      -0.27422380      -0.01296637      -0.01333449      -0.00781696
H        4.45914978       3.29362362      -1.20271071      -0.01408236      -0.01048736      -0.00787769
H        4.69512474       4.39368807      -0.16896693      -0.00599895      -0.01293733      -0.00386393
O       10.69652196       9.62527777       4.52092528       0.00766689      -0.00957884       0.00126730
H       10.37154949      10.33185893       3.94936397       0.00559960      -0.01746673      -0.00804378
H       10.04692083       9.53516439       5.25767063       0.00670459      -0.00382459       0.00091825
O        7.58539986       7.07241433       6.84979270       0.00266030      -0.00007087      -0.00005068
H        7.69851887       6.52860899       7.65774024       0.00279719       0.00005916       0.00002825
H        7.74096452       6.46573107       6.10302802       0.00088307      -0.00114313       0.00017869
O        8.73912448      13.14421660       1.18596246      -0.00371486       0.00263003       0.00479764
H        7.96592816      13.49894998       0.70722441      -0.00052804       0.00160760      -0.00026530
H        8.52501956      13.25612842       2.12297457      -0.00775769       0.00662537       0.00359257
O        2.06096549      12.81914310       4.60726498      -0.00273721      -0.00292508       0.00428432
H        2.55353573      12.08582297       5.02253411      -0.00503329      -0.00239676       0.00812895
H        1.57296355      13.19092810       5.36260582      -0.00464710       0.00168405       0.00040244
O        2.75662975       6.61656354      10.22469933       0.01251283      -0.01641725       0.01444574
H        3.26255318       6.37437035      11.03634522       0.01167290      -0.01948556       0.01407523
H        2.50424145       5.79128127       9.78709388       0.00905430      -0.01428403       0.01256772
O       11.58713871      11.68391880       9.41507140       0.00886466       0.00671800       0.01023957
H       12.48018868      11.32663765       9.27897292       0.01620752       0.02223697       0.01634494
H       11.41182303      12.17975679       8.60656287       0.00749493       0.00579077       0.01023814
O       12.78801944      10.48094034       6.02202974       0.00468761       0.00214419       0.00270748
H       12.53219585      10.02441478       6.84501317       0.00152630       0.00262848       0.00217929
H       12.04944843      10.24858224       5.41022945       0.00768472      -0.00029625       0.00025529
O        8.23365959      11.73838034      11.04004726      -0.01414891      -0.00331390       0.00019075
H        7.78844720      11.23778699      11.74518196      -0.01598484      -0.00491528      -0.00141465
H        8.52045486      11.05309721      10.38276332      -0.00973367      -0.00213820       0.00140679
O        7.69143094       5.31849469       9.01997497       0.00539328      -0.00085609      -0.00012235
H        8.19380683       5.06133753       9.84883205       0.00457705      -0.00162123       0.00040235
H        6.74733522       5.33870532       9.24214286       0.00494825      -0.00265895      -0.00124449
O        9.44862547       9.03510529       6.80211855       0.00616192      -0.00166514       0.00286219
H        8.85011410       8.25416008       6.74111954       0.00668088      -0.00184068       0.00108946
H       10.30970915       8.70755605       7.14005389       0.00652573      -0.00154184       0.00159692
O        2.21582030       8.71457666       5.28245656       0.00250907      -0.00340809       0.00975080
H        2.23638704       8.33421295       6.18889207       0.00320086      -0.00172316       0.01069780
H        1.55194360       9.43007554       5.37194829       0.00339911      -0.00226969       0.00908364
O        6.42540020       8.66795604      10.28343435      -0.00668417      -0.00023723      -0.00436527
H        6.53241723       8.92327209      11.20893254      -0.00778583      -0.00001706      -0.00428487
H        5.54908089       9.03861093       9.97783552      -0.00916285      -0.00738484      -0.00281342
O        6.87883764      11.58014608       6.77285829      -0.00394329       0.00103417      -0.00111118
H        7.84443466      11.72104226       6.65336174      -0.00421700       0.00288042       0.00101756
H        6.49938249      12.13531206       6.06981370      -0.00375306       0.00094905      -0.00142689
O        6.51290674      10.10375648       0.20627634      -0.00076872       0.00676402      -0.00274190
H        5.69168326      10.63780911       0.16764335      -0.00094385       0.00702040      -0.00161053
H        6.81103056      10.23650151       1.12947604      -0.00082423       0.00538294      -0.00233144
O        6.17837245       1.35462829       0.63917470      -0.00055408       0.00223434      -0.00440869
H        5.81425828       2.20447688       0.28415243      -0.01025173      -0.00287706      -0.00734299
H        6.12375716       1.42976314       1.60453542       0.00158788       0.00650902      -0.00470242
O        5.25532271       6.47639300       9.02225308       0.00238495      -0.01048158      -0.00074443
H        5.80115277       7.16510934       9.44581126       0.00114216      -0.00741726      -0.00429913
H        4.36085099       6.61724540       9.39924090       0.00420828      -0.01547978       0.00612520
O        5.96311629       2.35727116       8.01205913       0.00171056      -0.00246406      -0.00066275
H        6.77318183       2.75843702       7.62321352       0.00320105      -0.00343841       0.00130850
H        6.27056432       1.58073581       8.53053229      -0.00132564      -0.00321385      -0.00012278
O        3.45948167      11.21623114       6.40978979       0.00333858      -0.00100406      -0.00053401
H        4.12381702      10.51761335       6.33256126       0.00169310      -0.00241829      -0.00154720
H        3.90960889      12.06121724       6.60724308       0.00538772      -0.00155374      -0.00245034
O       11.44424110       5.09223130       2.21326560       0.00535233      -0.00005797      -0.00444601
H       11.07294152       5.90455890       1.84574626       0.01420375      -0.00996365      -0.03382216
H       11.28336168       5.16655873       3.16837853      -0.00561204       0.03203771      -0.00838786
O        4.20432353       9.38662571       9.13749586      -0.01778522      -0.01700822      -0.00799635
H        4.03887627      10.31373868       9.40508599      -0.01753373      -0.01783735      -0.00562090
H        4.63480749       9.39948162       8.25951251      -0.01044749      -0.01310638      -0.00453078
