199
Lattice="13.703018542788273 0.0 0.0 0.0 13.703018542788273 0.0 0.0 0.0 13.703018542788273" Properties=species:S:1:pos:R:3:forces:R:3 energy=-351737.90625 stress="-0.00286944885738194 -0.00031522898643743247 -0.00016654233331792057 -0.00031522898643743247 -0.0028639945667237043 0.0009415668610017747 -0.00016654233331792057 0.0009415668610017747 -0.0039232573471963406" pbc="T T T"
La      11.65535228      13.86794609       2.34143126       0.00429680      -0.00236584      -0.00258131
O        7.53233006      11.46906429       5.92581724       0.01632953      -0.01015866      -0.01588535
O        8.86546553       9.68787027       6.33857468       0.03447443      -0.03243160       0.00784692
C        9.60142161      11.80760130       7.00040861       0.02031851      -0.00169992      -0.00513065
C       10.94098631      11.65526513       6.64993986       0.02218983       0.00278035      -0.00007814
C        9.25774374      12.80144966       7.91568901       0.01629171       0.00058579      -0.01060382
C       11.90607238      12.52538661       7.13695553       0.01751228       0.00520383       0.00009206
C       10.23217462      13.62343138       8.46851392       0.01088129       0.00612995      -0.01009522
C       11.55720152      13.50797719       8.06020197       0.01480533       0.00794066      -0.00462651
C        8.55476668      10.90163446       6.36226709       0.03308272       0.01329279       0.00467408
H       11.20667302      10.85911215       5.96757985       0.02701960       0.00040706       0.00213258
H        8.21800561      12.92809468       8.18594101       0.01437175      -0.00039852      -0.01276340
H       12.93691725      12.41441175       6.81970530       0.02095920       0.00641524       0.00443257
H        9.95010282      14.37593563       9.19595995       0.00764559       0.00846105      -0.01374408
H       12.31344602      14.16663681       8.47126685       0.00972389       0.00973415      -0.00412734
O        8.78539337       8.22069667      12.05864534       0.00045276       0.00926405       0.00070846
O        6.65129523       7.67183459      12.52239497       0.00250053       0.00585365      -0.00160450
C        7.24673346       9.97102452      12.39637598       0.00762570       0.00190580      -0.00074621
C        5.98646314      10.42765937      12.35689897      -0.01147372       0.00917453      -0.00540541
C        8.41561512      10.88880978      12.57227221      -0.00648325       0.00774920       0.00253183
C        5.70462568      11.84477516      12.33913999      -0.01122479       0.00021237      -0.00262942
C        8.11093155      12.42204430      12.63819045      -0.01028869       0.00763607       0.00522912
C        6.67513447      12.76817211      12.42790275      -0.00250641       0.00610667       0.00547450
C        7.58350255       8.48498468      12.31355992      -0.00231531       0.00602555      -0.00091278
H        5.18025988       9.71398727      12.26039480      -0.00174172       0.00201544      -0.00869931
H        9.14369241      10.64846823      11.80015526      -0.00534439       0.01124348       0.00010943
H        4.67521962      12.16598758      12.21478617      -0.00368325       0.00044510      -0.00406073
H        8.72044393      12.95730888      11.90316168      -0.00880164       0.00954974       0.00610441
H        6.43093912      13.82477918      12.37556912      -0.01069937       0.00431912       0.00853272
O        9.91086207      13.28509524       3.63749131       0.01488441      -0.01447302       0.00111514
O       11.65097007      11.90646100       3.60541161       0.01096135      -0.01689765      -0.02059010
C        9.48062603      11.00433617       3.22621275       0.00515756      -0.01026273      -0.00546375
C        9.93990813       9.70314002       3.15511640      -0.00491816      -0.01529445      -0.00374823
C        8.14395851      11.33518634       2.68877932       0.00454349      -0.00169668       0.00256974
C        9.06828144       8.66708767       2.87617820      -0.01470670      -0.00748378       0.00412191
C        7.21229947      10.19147484       2.82054177      -0.00408536       0.00750694       0.00416827
C        7.68568237       8.91795573       2.80664950      -0.01219088      -0.00104290       0.00551303
C       10.35882077      12.05581430       3.56904252       0.01225987      -0.01472725      -0.00920132
H       10.98573689       9.52317271       3.34432709      -0.00627831      -0.02299334      -0.00590601
H        7.73413663      12.23329416       3.15117845       0.01292068      -0.00037801       0.00827226
H        9.43606144       7.65888605       2.75768570      -0.02332526      -0.01264432       0.00945970
H        6.14705079      10.38135717       2.79458844      -0.00024769       0.01286410       0.00465642
H        7.00203014       8.08377555       2.75159098      -0.01911011       0.00800908       0.00946018
C       10.82776183       2.88420036       1.54858818      -0.00194693      -0.00304000      -0.00512026
C       12.21691413       2.91932870       1.72086046      -0.00199828       0.00144568      -0.00982367
C        9.99680020       2.63683297       2.64256200       0.00269382      -0.00752643      -0.00284706
C       12.76851761       2.71694419       2.99189624       0.00321296       0.00372524      -0.01186588
C       10.54414730       2.43921127       3.91552790       0.00763164      -0.00602311      -0.00504676
C       11.92714069       2.48084864       4.08908090       0.00795338       0.00056311      -0.00938517
H       10.39707572       3.07253741       0.57650704      -0.00557906      -0.00407305      -0.00355281
H       12.85544507       3.15627076       0.87970846      -0.00583512       0.00326791      -0.01205572
H        8.92384802       2.62333508       2.50742951       0.00248635      -0.01159516       0.00064753
H       13.83526096       2.79855783       3.15028223       0.00313798       0.00879655      -0.01554126
H        9.89700057       2.24247058       4.76038286       0.01141836      -0.00865998      -0.00315579
H       12.34999185       2.33942831       5.07421024       0.01196100       0.00287230      -0.01108509
C        8.57567054      12.88257688       0.40584692      -0.00651029       0.00380749       0.00499555
C       10.04079550      13.24075531       0.43600114      -0.00709777       0.00721174       0.00335391
C        8.20114231      11.55845345       1.11400550      -0.00233114       0.00332641       0.00378257
C       10.92187985      12.12296964       0.20483509      -0.00659662       0.01088783      -0.00315845
C        9.02625409      10.56418787       0.28383909      -0.00310677       0.00587338      -0.00056696
C       10.48584941      10.84278048       0.24328406      -0.00429654       0.00789583      -0.00450664
H        7.96082433      13.72218884       0.73368568      -0.00839439       0.00290409       0.00855350
H       10.27449662      14.14315930      -0.14621497      -0.01087367       0.00979301       0.00558507
H        7.16272241      11.39359952       0.81450895      -0.00291455       0.00203824       0.00571728
H       11.98915176      12.29165090       0.03443231      -0.00856438       0.01221169      -0.00727687
H        8.84248548       9.52465233       0.52715233      -0.00047405       0.00568396      -0.00095119
H       11.16885332      10.01454718       0.10268338      -0.00353694       0.01117907      -0.01084663
C        6.40096195       5.31512591       4.04490902      -0.00132450      -0.00299983       0.01176205
C        7.51217150       4.87069353       4.75028976       0.00706536       0.00033526       0.00363971
C        5.84429951       6.55590163       4.34050840      -0.00249225      -0.00560989       0.01884689
C        8.08547987       5.68318350       5.72243693       0.00984691      -0.00019461      -0.00049543
C        6.41476625       7.36404334       5.31605280       0.00126944      -0.00532877       0.01372732
C        7.54604443       6.93293379       5.99781561       0.00891899      -0.00180072       0.00586298
H        5.97052800       4.69289499       3.26818278      -0.00374638      -0.00324401       0.01486675
H        7.92483317       3.89004475       4.54900712       0.00874648       0.00248589      -0.00246675
H        4.98347935       6.90972641       3.78488299      -0.00926928      -0.00860140       0.02604870
H        8.95782130       5.34471514       6.26688585       0.01502344       0.00203474      -0.00615115
H        6.01717789       8.35084073       5.51791447       0.00005185      -0.00689594       0.01863590
H        8.01417015       7.60595677       6.70236819       0.01172148      -0.00173050       0.00196259
C       12.37336252       5.06370950       8.37423440       0.00652707       0.00485686       0.01667370
C       13.05154174       6.10622584       7.75463411       0.00509003       0.00988972       0.02225866
C       11.08156353       5.26325708       8.84743911       0.00145014      -0.00036946       0.00766933
C       12.42804741       7.33656312       7.59536831       0.00170776       0.00564282       0.01981781
C       10.46159343       6.49613509       8.68206551      -0.00195667      -0.00474703       0.00555577
C       11.12710840       7.53360789       8.04177705      -0.00300074       0.00059932       0.01172639
H       12.85234405       4.09927153       8.49700844       0.00954067       0.00810269       0.01905745
H       14.05934585       5.95692552       7.38829318       0.00851233       0.01367811       0.02893040
H       10.56333369       4.46319491       9.35780181       0.00214688      -0.00430489       0.00256488
H       12.95825200       8.14402222       7.10883992      -0.00008936       0.00953221       0.02414420
H        9.46458090       6.65678869       9.07214156      -0.00570779      -0.00910446      -0.00152531
H       10.62649732       8.48157008       7.87533183      -0.00534566      -0.00254682       0.00952297
C        3.67456225       9.32815897       0.75863172      -0.00634982       0.00430140      -0.00841231
C        2.33841421       9.10334876       0.45564678      -0.00731623       0.00170079      -0.00958113
C        4.53502409       8.25328375       0.95127190      -0.00847393       0.00125128      -0.00259691
C        1.85828067       7.80186408       0.35879529      -0.00701541       0.00574327      -0.00777945
C        4.04677158       6.95532442       0.89083843      -0.00964393       0.00510783       0.00200903
C        2.70628664       6.72758361       0.60144138      -0.00911144       0.00264299      -0.00185505
H        4.05536800      10.34035558       0.82323081      -0.00601960       0.00237857      -0.01375096
H        1.66965673       9.93829433       0.28756635      -0.00503430       0.00279652      -0.01652799
H        5.58990001       8.42386377       1.10284597      -0.00880978       0.00234758      -0.00093571
H        0.82372022       7.63686970       0.08811312      -0.00597422       0.00376817      -0.01176541
H        4.72742126       6.12204588       1.01267609      -0.01207943       0.00299959       0.01001872
H        2.33960754       5.71130637       0.51888363      -0.00977275       0.00496610       0.00115343
C        4.85138641      10.57362340       9.33559821      -0.00667402      -0.00418051      -0.01197551
C        6.11214556      11.13455551       9.19031761      -0.00384465      -0.00073892      -0.01531720
C        4.70682878       9.19348995       9.41649390      -0.00802319       0.00323340      -0.00678384
C        7.23041641      10.31520210       9.15473823      -0.00594163      -0.00960064      -0.01321482
C        5.82672665       8.37348327       9.35881754      -0.01023980      -0.00549838      -0.00319588
C        7.08802025       8.93797000       9.23390496      -0.00749375      -0.00187243      -0.00721300
H        3.98208248      11.21453056       9.40808629      -0.00416292       0.00122172      -0.01535153
H        6.21976077      12.21051835       9.13444738      -0.00238807      -0.00566907      -0.02041076
H        3.72246743       8.75643458       9.53590299      -0.00870648       0.00196603      -0.00479844
H        8.21985303      10.74104804       9.07237949      -0.00541118      -0.00815906      -0.01730661
H        5.71914524       7.29983773       9.43717580      -0.01143879      -0.00043899       0.00100503
H        7.96916689       8.31276669       9.22665677      -0.01008926      -0.00743130      -0.00519921
C        3.91157755      10.76722399       4.68484724      -0.00187472       0.00067973       0.00043239
C        3.53807052       9.47434364       4.33852663      -0.00078267      -0.00039263       0.00185944
C        3.52846638      11.29563354       5.90939150      -0.01152429       0.00467381      -0.00456091
C        2.79563685       8.70082152       5.22369966      -0.00908551       0.00457999      -0.00190633
C        2.76325327      10.53251583       6.78004382      -0.01930763       0.00951970      -0.00839433
C        2.40532596       9.23176684       6.44690053      -0.01882774       0.00858585      -0.00690007
H        4.51531779      11.36284933       4.01331103       0.00352966      -0.00256974       0.00333872
H        3.83272370       9.06336760       3.38209936       0.00592928      -0.00315550       0.00525992
H        3.84729085      12.29025129       6.19284312      -0.01321837       0.00567321      -0.00590020
H        2.52857684       7.68317177       4.96578303      -0.00946831       0.00439768      -0.00104667
H        2.47172329      10.94919111       7.73404324      -0.02746521       0.01295494      -0.01264162
H        1.83777424       8.62690208       7.14435013      -0.02621145       0.01300502      -0.01003190
C       10.35282205       5.73134865      13.21423503       0.00653869      -0.00162879      -0.01541467
C       11.41247393       4.99338155      12.70099104       0.00390578      -0.00663780      -0.00639475
C        9.04539038       5.28462145      13.04946820       0.00221615      -0.00106895      -0.02125516
C       11.17225863       3.80966125      12.00754164       0.00978269      -0.00807015      -0.00140977
C        8.80807579       4.08935983      12.38098476       0.00799045      -0.00233366      -0.01655222
C        9.86686771       3.35400592      11.85199665       0.00547341      -0.00793202      -0.00680525
H       10.53122319       6.67325138      13.71630597       0.00242765      -0.00067295      -0.01887760
H       12.42855849       5.34943902      12.82476556       0.00592725      -0.00713951      -0.00255370
H        8.21889611       5.89851226      13.38543182       0.00454140       0.00309689      -0.02869491
H       11.99854060       3.25747769      11.57479796       0.00846650      -0.01235829       0.00592229
H        7.79105329       3.74437602      12.24499753       0.00605780      -0.00158019      -0.02164590
H        9.66792786       2.44111533      11.30278578       0.00983546      -0.00953676      -0.00258154
C       13.50005859       7.75548757       3.07062449       0.00817834      -0.00294608       0.00444748
C       12.99097806       6.65659519       2.38476960       0.00197229       0.00394420      -0.00068602
C       12.84741341       8.22105366       4.20478282       0.01372304      -0.00507687       0.00769824
C       11.85008061       6.01600660       2.84888032      -0.00113291       0.00712356      -0.00206897
C       11.69157144       7.59161449       4.65411942       0.01097722      -0.00183516       0.00652215
C       11.20936214       6.47195757       3.99227370       0.00442360       0.00511212       0.00101351
H       14.39328925       8.25369365       2.71604094       0.01053675      -0.00588010       0.00515536
H       13.48667553       6.29371444       1.49311540      -0.00150520       0.00587239      -0.00290051
H       13.22087611       9.10140709       4.71422295       0.01952852      -0.01043516       0.01198766
H       11.43792040       5.18350790       2.30053923      -0.00536142       0.01152299      -0.00535688
H       11.12836100       7.99991656       5.48054811       0.01571629      -0.00385021       0.01030040
H       10.30355587       5.99074222       4.33822469       0.00261603       0.00769019       0.00071856
C        7.64911964       1.85577711       7.19571348      -0.00823434      -0.00162306      -0.01440112
C        6.26629020       1.86100638       7.34796007      -0.00618564      -0.00033805      -0.01295994
C        8.41177721       2.86490898       7.77271064      -0.00498560      -0.00604785      -0.00979315
C        5.64835422       2.89342190       8.04335008      -0.00526160      -0.00430387      -0.00449929
C        7.79004760       3.89741109       8.46537766      -0.00382460      -0.01015961      -0.00126117
C        6.40834574       3.92249821       8.58254212      -0.00164234      -0.00981446       0.00207222
H        8.12197194       1.05174279       6.64698003      -0.00905778       0.00108483      -0.01973600
H        5.68166554       1.05460129       6.92168650      -0.00905968       0.00404145      -0.01765757
H        9.49152288       2.85436224       7.67381910      -0.00628932      -0.00609231      -0.01212068
H        4.57457628       2.91004571       8.17014469      -0.00403464      -0.00374400      -0.00374353
H        8.37589006       4.69599286       8.89837416      -0.00099854      -0.01425758       0.00308928
H        5.92190504       4.73803593       9.09840502      -0.00050718      -0.01361780       0.00999968
C        4.04242839       5.89906484      11.43065629      -0.00518827      -0.00621423       0.00283716
C        5.09816651       5.02596073      11.66582217      -0.00653611      -0.00257527       0.01074210
C        2.79372095       5.40205321      11.07486046      -0.00295076      -0.00485252      -0.00204753
C        4.89823222       3.65549676      11.53875493      -0.00558475      -0.00571628       0.01334144
C        2.59662280       4.03204062      10.94451137      -0.00187196      -0.00798974       0.00049020
C        3.65192844       3.15679030      11.17588213      -0.00340748      -0.00425836       0.00834482
H        4.21251353       6.96117449      11.55073626      -0.00616308      -0.00447756       0.00088759
H        6.05780027       5.45133257      11.93865032      -0.00827599      -0.00361109       0.01466811
H        1.96576549       6.08038545      10.91608707      -0.00225206      -0.00769578      -0.00879089
H        5.72019275       2.96716589      11.69449049      -0.00681062      -0.00336441       0.02067513
H        1.62241197       3.65045055      10.66305208      -0.00024559      -0.00703930      -0.00327994
H        3.50759012       2.08903708      11.06507669      -0.00267371      -0.00587870       0.01071259
C        1.21011726       3.34508069       6.12612151      -0.00319139       0.00300324       0.00387102
C        0.79291362       4.32019479       5.22622504      -0.00221391       0.00782160       0.00734753
C        2.54972672       2.97448927       6.18026799      -0.00746170      -0.00866972      -0.00680848
C        1.71262845       4.89782830       4.35923077      -0.00217746      -0.00019941       0.00196950
C        3.47533479       3.57346992       5.33283234      -0.00729959      -0.01720426      -0.01271939
C        3.04782988       4.52253003       4.41239526      -0.00644819      -0.01157611      -0.00871214
H        0.49669203       2.88575777       6.80045760      -0.00291560       0.00936536       0.00827534
H       -0.24208040       4.63826783       5.19724118       0.00083581       0.01594781       0.01489945
H        2.87279025       2.22732903       6.89438745      -0.00823897      -0.01232041      -0.00978381
H        1.38578917       5.64757664       3.65129724      -0.00122388       0.00355384       0.00498141
H        4.52563493       3.31981976       5.40081287      -0.00997300      -0.02671935      -0.02094198
H        3.75842597       4.98714629       3.74534994      -0.00673456      -0.01775143      -0.01325364
C       14.05827542       8.39887962      10.19029603       0.01360974       0.01060005       0.02654822
C       14.00888245       9.66703409       9.62983183       0.01251608       0.01657217       0.02948256
C       12.98270318       7.92183661      10.92891656       0.00689880       0.00874664       0.01591108
C       12.88178265      10.45899035       9.80614861       0.00957249       0.00689735       0.01986616
C       11.84765977       8.70577692      11.10347475       0.00500837       0.00009257       0.00754881
C       11.80548513       9.97631355      10.53815388       0.00264066       0.00418580       0.00803963
H       14.92040618       7.76961954      10.01075532       0.01743593       0.01862288       0.03610485
H       14.83343739      10.02469068       9.02830985       0.01959817       0.01891482       0.04116916
H       13.00559566       6.91397637      11.32279707       0.00882882       0.00629778       0.01447365
H       12.82489875      11.43694983       9.34967567       0.00915246       0.01032051       0.02268969
H       10.97564335       8.33025555      11.62761568       0.00096810      -0.00106935       0.00028597
H       10.91699874      10.58542672      10.64417043       0.00142881      -0.00118325       0.00380936
