197
Lattice="13.99415298419691 0.0 0.0 0.0 13.99415298419691 0.0 0.0 0.0 13.99415298419691" Properties=species:S:1:pos:R:3:forces:R:3 energy=-120098.625 stress="-0.0025141527876257896 -0.0003215591568732634 -5.1299683036631905e-05 -0.0003215591568732634 -0.0011010977905243635 -0.00036394954076968133 -5.1299683036631905e-05 -0.00036394954076968133 -0.003445378504693508" pbc="T T T"
Li      13.57343365      15.09777215       2.42048426      -0.02970905      -0.00382812       0.02850305
Cl      13.62312287      12.74118070       1.78718838      -0.00466046       0.00126767       0.00302744
O       13.29802177      11.84072411       2.89569334      -0.00935864      -0.01846868      -0.01582396
O       14.79685035      13.61482776       2.20132239      -0.01426876       0.00287938       0.02833110
O       12.50424807      13.75612549       1.64864871      -0.01031899      -0.00311917       0.00688267
C        9.61955784      10.08414776      -0.06887793       0.00423338      -0.00038505      -0.00161948
C       10.99095913      10.23541917      -0.24371396       0.00461436      -0.00146480       0.00058711
C        8.77384092      11.17449366      -0.22332947       0.00548422       0.00034950      -0.00163131
C       11.51258286      11.47909240      -0.57747673       0.00600219      -0.00135899       0.00244540
C        9.29801376      12.42048907      -0.54459309       0.00714871       0.00012898      -0.00011827
C       10.66693373      12.57280993      -0.72300383       0.00720564      -0.00133027       0.00204755
H        9.21587741       9.11512769       0.19981221       0.00329623      -0.00010468      -0.00337448
H       11.64834202       9.38373514      -0.11686368       0.00351185      -0.00175327       0.00062040
H        7.70689159      11.05674280      -0.09197238       0.00535223       0.00124232      -0.00337898
H       12.57642166      11.59348912      -0.73950081       0.00621341      -0.00222435       0.00480543
H        8.63391225      13.26935719      -0.65388436       0.00832604       0.00061589      -0.00044578
H       11.08054640      13.54379012      -0.96235187       0.00824066      -0.00109407       0.00329036
C        3.67625047      10.72226789       3.99859548      -0.00342220       0.01085413      -0.00388058
C        4.53605230       9.63271316       4.01733378      -0.01039836       0.00417891       0.00205646
C        2.32528340      10.53872917       3.73217361      -0.00432061       0.01567286      -0.00547889
C        4.05407528       8.35767474       3.75244465      -0.01719961       0.00811906       0.00787435
C        1.84196225       9.26204908       3.47750243      -0.01102588       0.02013740      -0.00018869
C        2.70758327       8.17433483       3.47257629      -0.01828776       0.01342726       0.00643581
H        4.05802234      11.71471085       4.20581201       0.00146612       0.00820546      -0.00790191
H        5.58552063       9.78540435       4.22480737      -0.00952695      -0.00002475       0.00348082
H        1.64693683      11.38108634       3.71478038       0.00126839       0.02105403      -0.00985945
H        4.73002074       7.51068499       3.73169183      -0.02306725       0.00281779       0.01358717
H        0.78895914       9.12955455       3.26391656      -0.01180637       0.02468553      -0.00186778
H        2.34675463       7.18717042       3.21942805      -0.02379843       0.01518503       0.01180221
C       11.79757689       3.24356276       4.21001193       0.00544778      -0.00693591      -0.00316516
C       13.13049687       2.84193757       4.12640096       0.00910642       0.00433208       0.01381680
C       10.85489447       2.38816897       4.76715852       0.00671488      -0.00997247      -0.00675676
C       13.51236691       1.58593890       4.60255656       0.01518802       0.01124001       0.02736253
C       11.22705627       1.11904772       5.19705816       0.01249416      -0.00400024       0.00531621
C       12.55117728       0.70938954       5.10565298       0.01655092       0.00718088       0.02226111
H       11.51210641       4.23452425       3.87700790       0.00039697      -0.01236944      -0.01407460
H       13.87688383       3.53046759       3.74691221       0.00661220       0.00682264       0.01472179
H        9.82824771       2.71141646       4.88027898       0.00380535      -0.01795191      -0.01921728
H       14.55331888       1.28029993       4.56775368       0.01738477       0.01982034       0.03914682
H       10.48003780       0.44587216       5.59906277       0.01320799      -0.00723314       0.00064799
H       12.83663500      -0.28956220       5.40902479       0.02022920       0.01150496       0.03201482
C        7.95542628      10.89063417       2.97882878       0.00279965       0.00854933       0.00209135
C        9.25581389      11.29295083       3.25864371       0.00333180       0.00745426      -0.00203262
C        6.97620917      11.83833077       2.70524952       0.00271198       0.00927268       0.00481983
C        9.58296468      12.64213484       3.25381253       0.00493123       0.00697195      -0.00334768
C        7.29834286      13.19128431       2.71750169       0.00415364       0.00893995       0.00350516
C        8.60144884      13.59191188       2.99025287       0.00489710       0.00724933      -0.00076114
H        7.70579606       9.83526353       2.95937797       0.00175212       0.00901595       0.00317559
H       10.02565506      10.55982281       3.46277084       0.00378723       0.00710655      -0.00437524
H        5.96585650      11.52247009       2.47917537       0.00198135       0.01020173       0.00805066
H       10.60667412      12.94602035       3.42590721       0.00541787       0.00544761      -0.00708076
H        6.53602194      13.93173495       2.50631910       0.00434145       0.00954854       0.00580294
H        8.85476634      14.64522395       2.98779385       0.00599314       0.00726318      -0.00219727
C        8.06126071       4.46926465       3.56553299      -0.00649022      -0.00788240      -0.00160837
C        8.41948825       3.60153957       2.53939496      -0.01029953      -0.00868722      -0.00213464
C        6.76712808       4.97259544       3.62846904      -0.00587295      -0.00538189      -0.00022024
C        7.48385423       3.23435565       1.57993112      -0.01198109      -0.00787287       0.00024834
C        5.83483417       4.61752197       2.65967323      -0.00734791      -0.00406197       0.00165373
C        6.19193258       3.74704455       1.63529283      -0.01118846      -0.00560737       0.00181423
H        8.79397292       4.77140476       4.30420159      -0.00557756      -0.00952839      -0.00278807
H        9.43193765       3.22274424       2.48026296      -0.01091364      -0.01052040      -0.00357050
H        6.48866659       5.64494398       4.43105529      -0.00321196      -0.00481816      -0.00023568
H        7.76791889       2.55534484       0.78466286      -0.01507368      -0.00914676       0.00046091
H        4.83279642       5.02514424       2.70005875      -0.00636123      -0.00197433       0.00272703
H        5.46633685       3.47669517       0.87675308      -0.01264719      -0.00496794       0.00368381
C       12.61171339       5.71647882       6.85888623      -0.01315884      -0.00367292       0.00115644
C       12.80674941       7.01746633       6.41068305       0.00940159      -0.02171660       0.00788712
C       11.32928980       5.18711376       6.91369422       0.01570757      -0.00922687       0.00265267
C       11.72083533       7.78870399       6.01640159      -0.00687861      -0.01318137      -0.00354794
C       10.24539604       5.95191088       6.50725507      -0.00232895      -0.00113635      -0.00741682
C       10.44174216       7.25146643       6.05374173       0.02109370      -0.01798700      -0.00085519
H       13.45082410       5.10442722       7.15688164       0.00513484      -0.01452424       0.01134263
H       13.80407224       7.43897646       6.37047341       0.00491777      -0.01287205       0.00665767
H       11.17601524       4.17614878       7.26522291      -0.00192361      -0.01041694       0.00246274
H       11.86807925       8.81143326       5.69262948       0.00990500      -0.01268527      -0.00501209
H        9.24404763       5.54295924       6.56845265       0.00366473      -0.00917707      -0.00613411
H        9.59468835       7.85170284       5.75203821       0.00300449      -0.00752845      -0.01067314
C        3.53027300       6.86392954      -0.00149163      -0.00059126       0.00018463       0.00167929
C        4.85160998       7.17516690       0.30514639      -0.00213943       0.00241286       0.00380231
C        2.56418007       7.86420080      -0.00232005      -0.00240263      -0.00215148      -0.00052040
C        5.20272191       8.48345440       0.61278759      -0.00511779       0.00321678       0.00391950
C        2.91818709       9.17336639       0.30722566      -0.00543526      -0.00117569      -0.00030963
C        4.23685069       9.48183883       0.61221707      -0.00682992       0.00099477       0.00177177
H        3.26046601       5.84622217      -0.25664269       0.00167710      -0.00044024       0.00152703
H        5.60377499       6.39507232       0.30205929      -0.00071568       0.00402820       0.00568229
H        1.53549340       7.62363130      -0.24347638      -0.00125100      -0.00391494      -0.00239982
H        6.23362115       8.72871683       0.84205917      -0.00625755       0.00512138       0.00587097
H        2.16662980       9.95327727       0.31380850      -0.00678544      -0.00300753      -0.00187504
H        4.51224320      10.50297821       0.83955651      -0.00911411       0.00151949       0.00237269
C        7.26685138       9.89797675      11.11114253      -0.00440983       0.00717624      -0.00242949
C        6.10232816       9.20741031      11.40930914      -0.00229823       0.00860377      -0.00198790
C        7.23510628      11.27821068      10.94187363      -0.00247136       0.00756639      -0.00287203
C        4.90298401       9.89378778      11.54976234      -0.00371838       0.00812056      -0.00132637
C        6.04079028      11.96783228      11.10726718      -0.00379002       0.00720409      -0.00263870
C        4.87424875      11.27459321      11.41581647      -0.00175431       0.00853343      -0.00270406
H        8.20191925       9.36247946      11.01753896      -0.00362934       0.00739554      -0.00338825
H        6.12351195       8.13123784      11.53431861      -0.00362010       0.00813994      -0.00123395
H        8.14508036      11.81327845      10.70300105      -0.00338972       0.00693438      -0.00284231
H        3.99492632       9.34935535      11.76811100      -0.00260212       0.00899091      -0.00069484
H        6.01743505      13.04441977      10.99025768      -0.00258841       0.00752194      -0.00328683
H        3.93885323      11.80697645      11.53369832      -0.00267300       0.00834961      -0.00265932
C        4.49950449       8.73104774       8.40793021      -0.00324850       0.00507086      -0.00535250
C        3.34440419       8.23053879       7.82707082      -0.00163927       0.00511880      -0.00098114
C        4.79305780      10.08522801       8.32852861      -0.00141673       0.00557215      -0.00594266
C        2.47148727       9.09008730       7.17107822      -0.00536078       0.00401452      -0.00138696
C        3.91272766      10.94671467       7.69074779      -0.00490648       0.00417024      -0.00692088
C        2.75060487      10.44946483       7.11436988      -0.00310880       0.00391914      -0.00271591
H        5.18995076       8.06709188       8.90865278      -0.00074723       0.00623902      -0.00530718
H        3.14196713       7.16853113       7.86888559      -0.00308045       0.00495589      -0.00014104
H        5.70602811      10.46191374       8.76731148      -0.00254151       0.00599132      -0.00834553
H        1.58387775       8.70220310       6.68732271      -0.00516383       0.00369937       0.00220823
H        4.13647611      12.00518329       7.63813258      -0.00364975       0.00427236      -0.00810486
H        2.07577197      11.11942884       6.59812966      -0.00503721       0.00287344      -0.00377134
C       11.05747398       6.01272975      11.74141742      -0.00587156      -0.00099513      -0.00269688
C       10.92425653       4.63476149      11.86849550      -0.00628661      -0.00067941      -0.00013902
C        9.99380050       6.84648189      12.06707994      -0.00504516      -0.00024456      -0.00215462
C        9.72770012       4.09047916      12.32275254      -0.00549254       0.00068927       0.00276295
C        8.79546917       6.30268485      12.51566165      -0.00402910       0.00085191       0.00106919
C        8.66237777       4.92450238      12.64511029      -0.00418712       0.00158955       0.00347906
H       11.99546897       6.43519359      11.40255090      -0.00684424      -0.00216319      -0.00529102
H       11.75609566       3.98626850      11.62027334      -0.00717693      -0.00117739      -0.00071510
H       10.10205113       7.92181287      11.99865695      -0.00484762      -0.00063337      -0.00487051
H        9.62335211       3.01638499      12.41811125      -0.00564967       0.00097321       0.00463510
H        7.97119549       6.95565348      12.77867853      -0.00332926       0.00155649       0.00138870
H        7.73237771       4.50320819      13.00511429      -0.00366028       0.00242031       0.00620965
C       11.13982614       5.79729529       1.27992404       0.00608786      -0.00568116       0.00762900
C       10.16371715       6.61515452       1.83704558       0.00907640      -0.00235829       0.00561141
C       12.48036645       6.14544557       1.39004957       0.00597123      -0.00760054      -0.00115293
C       10.52868897       7.77504742       2.50779079       0.01374162       0.00274877      -0.00382536
C       12.84400767       7.31364255       2.05222529       0.01060271      -0.00287095      -0.01020017
C       11.86829446       8.13154308       2.61060032       0.01361610       0.00092958      -0.01232851
H       10.85093502       4.90221541       0.74536006       0.00243639      -0.00959766       0.01426740
H        9.11982335       6.34523134       1.74300876       0.00876160      -0.00128119       0.01250854
H       13.24214717       5.51566278       0.94543684       0.00360207      -0.01089567       0.00023082
H        9.76362845       8.40301421       2.94655507       0.01614278       0.00665969      -0.00599028
H       13.88885148       7.58844245       2.12184280       0.01082720      -0.00363177      -0.01700715
H       12.15034234       9.04857601       3.11362826       0.01661661       0.00498052      -0.02033014
C        9.17782526       3.15275081       8.96410699      -0.00794638      -0.01012734      -0.00132814
C        9.17066586       2.18388590       7.96819378      -0.00522970      -0.00760535      -0.00380248
C        8.07572156       3.98144631       9.13937859      -0.00761120      -0.00948762      -0.00404526
C        8.06603051       2.05328919       7.13397637      -0.00138649      -0.00400814      -0.00842923
C        6.96608788       3.84403437       8.31302806      -0.00403681      -0.00601564      -0.00858006
C        6.96620414       2.88710765       7.30373258      -0.00104861      -0.00326463      -0.01109385
H       10.04503892       3.27321955       9.59978150      -0.01069260      -0.01291987       0.00236783
H       10.03281816       1.54224172       7.83526345      -0.00563722      -0.00853232      -0.00159386
H        8.09044112       4.73088045       9.92106081      -0.00973463      -0.01130571      -0.00223596
H        8.05837064       1.30431497       6.35083796       0.00084856      -0.00216230      -0.01018560
H        6.09857100       4.47664327       8.45918011      -0.00397404      -0.00552788      -0.01064317
H        6.11070529       2.79599166       6.64775596       0.00198328      -0.00035646      -0.01486577
C        3.57146220       3.13958928      11.68709121       0.00109505       0.00192094      -0.00186336
C        2.46455697       3.87972934      11.28305106       0.00044012       0.00079485      -0.00205495
C        4.84163840       3.70404632      11.63466322       0.00029246       0.00325002      -0.00271074
C        2.62854419       5.18400064      10.82906012      -0.00088942       0.00009951      -0.00276056
C        5.00352492       5.01007646      11.18427933      -0.00110613       0.00263498      -0.00346072
C        3.89774660       5.75065627      10.78265612      -0.00169385       0.00137316      -0.00361465
H        3.44414257       2.12263960      12.03738412       0.00214805       0.00234121      -0.00127583
H        1.47569274       3.43937496      11.32140332       0.00099677      -0.00023960      -0.00137047
H        5.70612288       3.12296643      11.93293410       0.00086062       0.00421183      -0.00246173
H        1.76744538       5.76465271      10.52098378      -0.00151153      -0.00087170      -0.00294014
H        5.99359677       5.44947466      11.14957617      -0.00162983       0.00363410      -0.00396631
H        4.01857717       6.77310974      10.44807911      -0.00267917       0.00097565      -0.00440732
C        3.09283412       3.36616920       4.74495262       0.00838959      -0.00936797       0.00024442
C        2.34021721       4.42276684       4.24260770       0.00844577      -0.00953342       0.00351125
C        3.25718698       3.22308607       6.11873008       0.00921664      -0.01443893      -0.00079859
C        1.74726228       5.32939572       5.11279720       0.00768188      -0.01178990       0.00689358
C        2.69175413       4.14855567       6.98901613       0.00797759      -0.01696846       0.00261953
C        1.93817592       5.19925065       6.48185353       0.00818942      -0.01706836       0.00574628
H        3.55541290       2.65958179       4.06702032       0.00940889      -0.00760998      -0.00175538
H        2.21282378       4.53835222       3.17137694       0.00664181      -0.00649052       0.00420809
H        3.82594431       2.39147852       6.51399992       0.00954363      -0.01463276      -0.00357780
H        1.13321927       6.13419238       4.73030420       0.00719752      -0.01180510       0.00945515
H        2.83437450       4.05113032       8.05873663       0.00832786      -0.02120694       0.00185043
H        1.49121791       5.91865956       7.15553894       0.00713363      -0.01914783       0.00851091
C       11.87797073       9.41295810       9.95765993       0.00492506       0.01057987       0.00137410
C       12.92634103       9.34912644       9.05057729       0.00275657       0.01281177       0.00085387
C       11.27038050      10.63114254      10.23982070      -0.00069231       0.00807613       0.00030059
C       13.36468715      10.50598141       8.41886629      -0.00170615       0.01384626      -0.00241002
C       11.71310533      11.78934184       9.61282973      -0.00554177       0.00843920      -0.00315011
C       12.76094771      11.72525062       8.70097767      -0.00767036       0.01160108      -0.00253815
H       11.52696175       8.50775613      10.43417575       0.00970230       0.01015481       0.00517549
H       13.39248421       8.39787197       8.82843568       0.00705822       0.01500212       0.00136618
H       10.46379992      10.68204283      10.96019464       0.00048153       0.00599052       0.00071870
H       14.18363700      10.45524017       7.71693921      -0.00307830       0.01600039      -0.00225852
H       11.24766939      12.73941654       9.84471890      -0.01003189       0.00705960      -0.00388505
H       13.11406878      12.62630474       8.21417253      -0.01096463       0.01228125      -0.00468265
C        6.97511208       8.33301419       6.21021241       0.00316203      -0.00064873      -0.00275427
C        7.52854379       9.60797961       6.22400446       0.00552087      -0.00388564      -0.00088996
C        7.26040491       7.43765031       7.23285805       0.00329785      -0.00341082      -0.00100001
C        8.38805976       9.97867416       7.25031723       0.00593287      -0.00372380      -0.00369436
C        8.10704065       7.81374763       8.26727601       0.00384440      -0.00319246      -0.00395422
C        8.67792579       9.07980181       8.26727079       0.00592840      -0.00614367      -0.00197059
H        6.29558483       8.04373468       5.42015634       0.00259791      -0.00062651      -0.00119327
H        7.29505209      10.31877393       5.44308116       0.00556716      -0.00236981      -0.00177729
H        6.82045601       6.44793666       7.22397652       0.00171125      -0.00152557      -0.00218750
H        8.83208839      10.96664353       7.25922423       0.00773747      -0.00550011      -0.00258618
H        8.34226384       7.11530059       9.06199253       0.00380085      -0.00482488      -0.00325914
H        9.36486869       9.36720320       9.04909416       0.00638979      -0.00610299      -0.00345120
