190
Lattice="12.982712286141513 0.0 0.0 0.0 12.982712286141513 0.0 0.0 0.0 12.982712286141513" Properties=species:S:1:pos:R:3:forces:R:3 energy=-95045.0234375 stress="-0.0009153738501481712 -0.0005506996822077781 0.0003850603534374386 -0.0005506996822077781 -0.0005947836325503886 0.00039549131179228425 0.0003850603534374386 0.00039549131179228425 -0.0007911064894869924" pbc="T T T"
Li       9.68781756      12.85016863       1.82747384       0.00016220      -0.01290783      -0.00218178
O       10.62865158      10.07642497       2.63755638      -0.00964177       0.00159907      -0.00025964
O       11.29653948      12.18389628       2.25529653       0.01127714      -0.00329053       0.00484195
C       12.94505017      10.47840875       2.26120073       0.00147283       0.01005442      -0.00140128
C       11.49879245      10.92659413       2.40017635       0.01778483       0.04520752      -0.00653851
H       13.38035404      10.86431983       1.33871289       0.00125827       0.01484666      -0.00238456
H       13.01989242       9.39350346       2.28335365       0.00292121       0.01164988      -0.00441619
H       13.53131142      10.89396433       3.08147582       0.00490714       0.01136829      -0.00172889
O        6.79889365      10.77925502      10.33940562      -0.00242728      -0.00472914       0.00168144
C        4.48857487      10.75528258       9.83357029      -0.00194991       0.00056525      -0.00061929
C        4.87628162      12.14416884      10.34132566       0.00093967      -0.00032419      -0.00075006
C        5.65231041       9.91755577      10.34646704      -0.00441587      -0.00198674       0.00048836
C        6.37830861      12.13289688      10.09904201       0.00086296      -0.00400710       0.00025336
H        3.52482277      10.40330411      10.19944142      -0.00304976       0.00296335      -0.00120896
H        4.46481104      10.74567827       8.74018730      -0.00121979       0.00031093      -0.00050697
H        4.37032285      12.95863853       9.82441845       0.00329566       0.00071062      -0.00129655
H        4.65655864      12.23254052      11.40932633       0.00048884       0.00057781      -0.00094157
H        5.46533467       9.57866973      11.37404744      -0.00618807      -0.00163927       0.00018984
H        5.86941013       9.04021121       9.73285070      -0.00585561      -0.00251389       0.00057235
H        6.61737121      12.40847781       9.06594779       0.00195463      -0.00529391       0.00013620
H        6.93742134      12.79351052      10.76511312       0.00207429      -0.00479001       0.00008741
O        2.68874652       5.20058848      10.16763514      -0.00702843      -0.00022396      -0.00163496
C        1.87588904       2.98526455      10.30617041      -0.00419958      -0.00071162       0.00278397
C        0.75115486       3.94887210      10.68484127      -0.00556499      -0.00159407       0.00075480
C        3.10233355       3.86625487      10.49584055      -0.00560236       0.00120747       0.00176919
C        1.25493653       5.25061139      10.07971517      -0.00709224      -0.00186256      -0.00090338
H        1.90928076       2.08463484      10.91933167      -0.00326722       0.00031856       0.00420304
H        1.77321143       2.68591915       9.25896479      -0.00345108      -0.00250446       0.00329551
H       -0.22346312       3.65745807      10.29476847      -0.00481761      -0.00343857       0.00059263
H        0.68640785       4.03718712      11.77297723      -0.00618736      -0.00004862       0.00056398
H        3.44959993       3.84332462      11.53524841      -0.00665019       0.00393809       0.00221038
H        3.94353213       3.59197351       9.85362027      -0.00471416       0.00094254       0.00327078
H        0.95826720       5.32891432       9.02588499      -0.00760166      -0.00338262      -0.00090915
H        0.90417251       6.14442902      10.59920779      -0.00795323      -0.00173312      -0.00187033
O        9.75159096       9.80147131       6.36442356      -0.00277933      -0.00019334       0.00410396
C       11.01064915      11.07932267       7.94325331      -0.00023997       0.00027889       0.00178236
C       11.86533219       9.96517550       7.33433731      -0.00127566       0.00007993       0.00063950
C        9.60385990      10.79787513       7.38393290      -0.00078326       0.00233717       0.00223956
C       11.13521499       9.71455445       6.02565454      -0.00357082      -0.00092995       0.00217265
H       11.03000566      11.08629380       9.03101241       0.00011524      -0.00129197       0.00184801
H       11.37119773      12.05069051       7.60470746       0.00051888       0.00020915       0.00303876
H       12.90529891      10.26073393       7.19816758      -0.00176726       0.00017855      -0.00121002
H       11.84220625       9.06066426       7.94376339      -0.00008725       0.00028220       0.00092606
H        8.91883298      10.39977124       8.13677212      -0.00199467       0.00548923       0.00238007
H        9.14745545      11.70045897       6.95890248       0.00182843       0.00256690      -0.00014120
H       11.38875982      10.47065953       5.26915615      -0.00444796      -0.00175601       0.00079918
H       11.30700505       8.72577392       5.59983306      -0.00448797      -0.00152439       0.00320807
O       10.85635271       6.52669118       7.82382889       0.00118786       0.00345718       0.00388805
C        8.75163226       6.46417559       6.80837396       0.00070971       0.00406483       0.00523669
C        8.52279171       6.69329658       8.30402968       0.00145954       0.00356936       0.00534606
C       10.11789047       5.80451928       6.84222723       0.00066960       0.00403498       0.00393233
C        9.93227499       7.02501247       8.80864795       0.00194967       0.00153120       0.00542019
H        7.99088843       5.83720136       6.34095840       0.00041667       0.00448532       0.00544009
H        8.80472697       7.41905479       6.28151100       0.00044797       0.00437245       0.00571336
H        7.81337227       7.49376416       8.51383609       0.00262304       0.00424702       0.00593029
H        8.15121240       5.77928259       8.77294121       0.00041814       0.00379175       0.00498886
H       10.03049137       4.74940904       7.14048013       0.00096407       0.00386041       0.00302526
H       10.66687795       5.86203041       5.90183327       0.00012982       0.00476321       0.00362623
H       10.08465494       8.10449558       8.88836097       0.00275459       0.00116503       0.00801592
H       10.15906525       6.57767660       9.77953100       0.00199364      -0.00083318       0.00427055
O        3.63412166      10.87415035       4.61958245      -0.00516587      -0.00420117       0.00162540
C        1.87835495       9.39070618       5.26121417      -0.00528246      -0.00267065       0.00362104
C        2.62455894       8.83090787       4.05233039      -0.00885993      -0.00271481       0.00152087
C        2.39836848      10.82982902       5.34955140      -0.00461835      -0.00304732       0.00260111
C        3.94974990       9.55353003       4.15621885      -0.00832108      -0.00344244      -0.00219864
H        0.79603408       9.35166452       5.14884391      -0.00565529      -0.00190706       0.00615825
H        2.15004260       8.82379337       6.15367481      -0.00357841      -0.00292517       0.00282279
H        2.73480320       7.74943569       4.08837085      -0.00907343      -0.00278169       0.00078119
H        2.12407211       9.10829438       3.12406631      -0.01129772      -0.00236103       0.00318840
H        1.71090486      11.54668252       4.88716156      -0.00460175      -0.00304690       0.00311673
H        2.57508600      11.14918049       6.38241012      -0.00332788      -0.00267826       0.00225919
H        4.61721091       9.05322183       4.86798987      -0.00554502      -0.00512651      -0.00605533
H        4.45943865       9.65318226       3.20109863      -0.01253346      -0.00211453      -0.00430471
O        6.60976534       1.22777095       7.03209094      -0.00799668       0.00848413       0.00425264
C        5.81911654       1.82838093       4.92479665      -0.00048345      -0.00022119      -0.00022316
C        4.67806586       1.08206486       5.62278543      -0.00302607       0.00189716      -0.00181323
C        7.02470813       1.28722371       5.67268901      -0.00266032       0.00359893       0.00592771
C        5.21864345       0.87106499       7.04822070      -0.00520900      -0.00086199      -0.00115797
H        5.85975290       1.64998502       3.84982286       0.00333995      -0.00399728       0.00064655
H        5.74344911       2.90619466       5.09165433      -0.00154814       0.00020275      -0.00435507
H        3.74050051       1.63879398       5.61530047      -0.00115502       0.00484096      -0.00253069
H        4.49908943       0.11935319       5.14155075      -0.00567207       0.00295708      -0.00268114
H        7.29243936       0.28239723       5.31176773      -0.00071936       0.00236613       0.01059718
H        7.90572974       1.92789263       5.62000489      -0.00299561       0.00393155       0.00694961
H        4.73414477       1.51004691       7.79072579      -0.01121046      -0.00794613       0.00070986
H        5.10632545      -0.17160606       7.36460420       0.00111892      -0.00323421      -0.00662768
O       13.06237934       5.65316422       2.60458812       0.00486752       0.00237083       0.00255995
C       11.01484780       6.56546715       3.26001986       0.00506473       0.00172962       0.00178580
C       11.20389155       6.90877155       1.77598050       0.00716722       0.00634804       0.00337592
C       12.44780442       6.31226554       3.70872461       0.00447583       0.00056896       0.00297730
C       12.58325963       6.32009298       1.42722539       0.00591344       0.00267799       0.00246671
H       10.53290828       7.37735309       3.80423052       0.00388847      -0.00013807       0.00383452
H       10.41834852       5.65765886       3.38618014       0.00523742       0.00153303      -0.00201714
H       10.41836118       6.49240621       1.14767771       0.00655766       0.01121971       0.00128007
H       11.18440169       7.98780758       1.64043349       0.01119473       0.00651807       0.00671673
H       12.95847674       7.26405554       3.91579412       0.00448748       0.00016415       0.00483780
H       12.55111893       5.66517441       4.58123871       0.00311351      -0.00061890       0.00183186
H       12.55423756       5.58164675       0.62474013       0.00274261       0.00222641       0.00323001
H       13.28853912       7.10802108       1.13791925       0.00733805       0.00044307       0.00136714
O        8.98045990       1.66105566       1.47899805       0.01732839      -0.00954294      -0.01426174
C       10.64952041       3.36883736       1.63340447       0.00365901       0.00139076      -0.00666167
C       11.06526149       2.25547143       0.66593334       0.00791699       0.01524393      -0.01978269
C        9.33315843       2.84886204       2.23479254       0.01062030      -0.01337636      -0.00667696
C        9.70813916       1.73767892       0.23419267       0.01295123       0.00116294      -0.01520704
H       11.40590345       3.58491241       2.38566835       0.00508910      -0.00220006      -0.00764638
H       10.46977921       4.29134080       1.08064723      -0.00461335       0.00592914       0.00501552
H       11.67888367       2.60680408      -0.16185382      -0.00556979       0.03001189      -0.02240680
H       11.60553753       1.46260081       1.19096545       0.02293476       0.01901048      -0.03213760
H        9.42493350       2.54529519       3.27867551       0.01647735      -0.02053808      -0.00930378
H        8.51524548       3.56986872       2.14332755       0.00451905      -0.01926380       0.00006829
H        9.20100580       2.43116561      -0.44639710       0.00184830      -0.00364655      -0.01174295
H        9.70467509       0.74038976      -0.21546019       0.02398517       0.00248682      -0.01712330
O        4.11703644       6.79221498       5.97944207       0.00110042      -0.00226907       0.00082655
C        5.00280304       5.65517144       7.84791526       0.00020349      -0.00362879       0.00048348
C        4.01057328       4.73626062       7.13778183      -0.00202185      -0.00181901       0.00139356
C        4.56746615       7.01314548       7.32609159       0.00300096      -0.00291890       0.00018777
C        3.92591875       5.38771327       5.76554376      -0.00210870      -0.00189507       0.00142732
H        4.94685820       5.59438402       8.93264613       0.00039807      -0.00306776       0.00053221
H        6.02211133       5.42799126       7.52888689      -0.00040558      -0.00611876       0.00051610
H        4.33947854       3.69860041       7.08791129      -0.00382771      -0.00232501       0.00129525
H        3.04607574       4.77440361       7.64832770      -0.00143513       0.00000591       0.00224833
H        3.73556797       7.40491756       7.92510738       0.00470266      -0.00052322       0.00081116
H        5.36587492       7.75857113       7.30086420       0.00489265      -0.00495052      -0.00096413
H        4.72455265       5.02056733       5.10634368      -0.00374222      -0.00366871       0.00055996
H        2.96801101       5.23639821       5.26067368      -0.00296831       0.00001701       0.00259793
O        8.16453181      11.80354049       1.40586934      -0.00527694      -0.01177326       0.00696898
C        6.51213819      11.16305292       2.91813417      -0.01136911      -0.00483626       0.00230315
C        5.82383417      11.98348037       1.82643202      -0.00573075      -0.00196514       0.00114949
C        7.92936302      11.65866462       2.82852362      -0.00859341      -0.01004443       0.00605856
C        6.90651769      12.09532004       0.74972124      -0.00330192      -0.00323885       0.00446236
H        6.07010907      11.29917323       3.90321078      -0.01370251      -0.00444331       0.00081211
H        6.49499256      10.09880400       2.67443354      -0.01393768      -0.00423825       0.00100936
H        4.90976711      11.52693042       1.44888376      -0.00556597       0.00033347      -0.00158416
H        5.55353601      12.97121341       2.20354132      -0.00471399      -0.00168285       0.00054337
H        8.01247493      12.64991758       3.30898799      -0.00552826      -0.01065123       0.00620596
H        8.70693981      10.99283573       3.20373756      -0.01389933      -0.01255417       0.00885740
H        6.79025797      11.35854521      -0.04814786      -0.00306442      -0.00078133       0.00220525
H        6.95221749      13.09431713       0.30881949       0.00395101      -0.00244927       0.00822109
O        2.96764880       1.20406386       1.33231285       0.01952021      -0.00153291       0.00322610
C        2.75601024       3.04634323       2.81289872       0.00016892      -0.00165004      -0.00294095
C        1.71775561       1.98608619       3.17382679      -0.00115055      -0.00204694      -0.00737143
C        3.13967105       2.62648921       1.39819862      -0.00122791       0.00042245      -0.00320750
C        2.30397915       0.74460705       2.51932599      -0.00034159      -0.00235707      -0.00701284
H        2.36492192       4.06255229       2.85512706       0.00187643      -0.00117075       0.00015070
H        3.61755157       2.97294979       3.48183578       0.00061202      -0.00534608      -0.00408289
H        1.57528403       1.86382809       4.24829174      -0.00426244      -0.00343817      -0.00801107
H        0.75292605       2.23689521       2.72553730       0.00058925      -0.00026118      -0.00943196
H        2.47765316       3.10135457       0.66274217      -0.01192567      -0.00940201      -0.00015435
H        4.17316276       2.86761518       1.13656256      -0.00614339       0.01163343      -0.01029555
H        3.03503586       0.25789626       3.17774295      -0.01006281      -0.00989565      -0.00225455
H        1.54979852       0.01000148       2.23447169      -0.00160304       0.00452125      -0.01846185
O        6.33958219       5.23774383       1.02256726       0.00613301      -0.00789887       0.00633776
C        5.50944703       6.86842733       2.53922737       0.00840679      -0.00146246       0.00121710
C        7.03728199       6.90733766       2.51723953       0.00825849      -0.00166926      -0.00291181
C        5.22802546       5.51633688       1.89102362       0.00581466      -0.00266674       0.00421968
C        7.30926468       6.28047563       1.16109782       0.00471452      -0.00634441      -0.00132594
H        5.08091749       6.95442343       3.53700643       0.01099280       0.00004386       0.00213686
H        5.10627907       7.67589366       1.92182272       0.00692894      -0.00247326       0.00118735
H        7.46371148       7.90464897       2.62259034       0.00814622      -0.00083026      -0.00782090
H        7.44164656       6.27860194       3.31647238       0.01075595       0.00155750      -0.00197223
H        5.17498931       4.72068734       2.64329420       0.00268557      -0.00089538       0.00551370
H        4.30229722       5.50076634       1.30880192       0.00641200      -0.00106718       0.00332940
H        7.18194975       7.02353439       0.36139955       0.00112070      -0.00957662      -0.00366762
H        8.30100255       5.83603980       1.06094949       0.00499943      -0.00560188      -0.00279354
O       11.46624688       2.55493846       7.84509101       0.00445683       0.00376783       0.00012600
C       11.60338665       2.66393536       5.48429628      -0.00010003       0.00206801      -0.00020272
C       10.86975470       1.38775725       5.89278015       0.00089706       0.00216109       0.00218955
C       12.31242234       3.02503894       6.78560089       0.00204641       0.00324846      -0.00195175
C       10.40621668       1.76618728       7.29080913       0.00376946       0.00313091       0.00256932
H       12.29144762       2.53122945       4.65158264      -0.00172886       0.00144672      -0.00133793
H       10.88411343       3.44288834       5.21421770      -0.00082448       0.00161359       0.00041063
H       10.05261489       1.10839924       5.22809659      -0.00027153       0.00169852       0.00400215
H       11.57012183       0.54886849       5.92749707       0.00113833       0.00249423       0.00129359
H       13.28063135       2.51073886       6.85282037       0.00251114       0.00403559      -0.00327572
H       12.47774341       4.09721158       6.91672533       0.00178016       0.00355017      -0.00297984
H        9.48718598       2.36646721       7.24565170       0.00334778       0.00271785       0.00417389
H       10.21995728       0.91972996       7.95272067       0.00534196       0.00345752       0.00366804
O       11.09237479       8.19089253      11.88086734      -0.00287355       0.00037602       0.00165341
C        9.77437786      10.09436352      11.45815924      -0.00005382       0.00285178       0.00437543
C       11.17520328      10.56229659      11.84490977       0.00236032      -0.00017810      -0.00147974
C        9.76379474       8.70123363      12.06109214      -0.00075763       0.00318700       0.00470895
C       11.99299462       9.28673548      11.66260526      -0.00113843      -0.00174218      -0.00431216
H        8.97300672      10.72035163      11.84259897       0.00278749       0.00447108       0.00734407
H        9.66123561      10.03900205      10.37334778      -0.00463540       0.00256720       0.00484842
H       11.55196948      11.38651154      11.23849254       0.00169506       0.00013159      -0.00241198
H       11.18020265      10.88138569      12.88793945       0.00752295      -0.00006691      -0.00161031
H        9.52808085       8.74989656      13.13178415       0.00241770       0.00418515       0.00593770
H        9.06958525       8.01315723      11.57257733      -0.00384420       0.00458261       0.00758669
H       12.39157413       9.21032857      10.64319782      -0.00644800      -0.00403158      -0.00592089
H       12.82779458       9.20753843      12.36415693       0.00173968      -0.00305397      -0.00810969
