200
Lattice="13.974885160967428 0.0 0.0 0.0 13.974885160967428 0.0 0.0 0.0 13.974885160967428" Properties=species:S:1:pos:R:3:forces:R:3 energy=-115044.1796875 stress="-0.0016136729391291738 0.00019359546422492713 0.0006700780359096825 0.00019359546422492713 -0.003325012279674411 -0.0006093856645748019 0.0006700780359096825 -0.0006093856645748019 -0.005229421425610781" pbc="T T T"
Li      11.78425426      12.96667418      -0.71879459      -0.01412518      -0.02233310       0.01302212
Cl      11.33366891      11.55865211       1.79383304      -0.02238178      -0.00310707       0.03295541
O       11.86475689      12.80585284       1.08267627      -0.04622602      -0.00233388       0.01735985
O       12.49839089      10.71146931       2.09205408      -0.01126742       0.00290596       0.00577316
O       10.72649294      12.03203784       3.04959771       0.00661725      -0.00371695       0.04642689
C        3.38843653       3.44073085       1.96686152      -0.00283970       0.00560062      -0.00043067
C        3.11746128       2.17903365       1.43784722       0.00066711       0.00695711       0.00341749
C        4.69042728       3.72366471       2.38412327      -0.00097905       0.00747284       0.00364314
C        2.30699111       4.46742321       2.10857602      -0.00088027       0.00751972      -0.00455450
C        4.12087641       1.22484507       1.32413970      -0.00292835       0.00458770       0.00711174
C        5.69012741       2.76537157       2.28801083      -0.00443832       0.00529164       0.00759171
C        5.41014329       1.51299612       1.75342887      -0.00070642       0.00634736       0.01143448
H        2.11129161       1.94839505       1.10471964      -0.00016230       0.00583622       0.00061969
H        4.91586772       4.70511432       2.78695149      -0.00314550       0.00718036       0.00106929
H        2.68616310       5.47203145       1.92288088      -0.00019664       0.00669345      -0.00413431
H        1.47597992       4.26884177       1.43281675       0.00131494       0.00695179      -0.00736707
H        1.91305802       4.46213382       3.12809486      -0.00477587       0.00851712      -0.00639406
H        3.89177459       0.25210201       0.90693285      -0.00052571       0.00502677       0.00983914
H        6.69435403       2.99718613       2.62222221      -0.00373247       0.00633566       0.01094289
H        6.18996059       0.76401819       1.68753152      -0.00320914       0.00476603       0.01456704
C        2.94755741      12.89334417       4.66317894      -0.00282349       0.00764780       0.00710353
C        1.91385890      13.14793910       3.76226881       0.00267247       0.01332514      -0.00755909
C        2.78865160      11.84738393       5.56915548      -0.01037085       0.00999971      -0.00427619
C        4.21813357      13.68891995       4.64971725      -0.00739199       0.01551458       0.01902920
C        0.76208589      12.36773910       3.75729436       0.00585213       0.00643948      -0.01449975
C        1.64469977      11.06425116       5.56830805      -0.00730900       0.00283950      -0.01162307
C        0.62716127      11.31815901       4.65772590      -0.00193867       0.00935343      -0.02603448
H        2.02303031      13.95423797       3.04543512       0.00866439       0.01343884       0.00027207
H        3.59977689      11.61476280       6.24527484      -0.01592693       0.00702170       0.00672842
H        5.08150056      13.04262040       4.81735785      -0.00626259       0.01645748       0.02025970
H        4.35371917      14.19512436       3.69819502      -0.00218958       0.02403629       0.02552445
H        4.22530938      14.45393363       5.43027906      -0.01613614       0.00740075       0.02694459
H       -0.02562893      12.55409650       3.03923867       0.00972188       0.01131141      -0.02323286
H        1.55800835      10.24130742       6.26716876      -0.01342800       0.00421606      -0.01846589
H       -0.26673089      10.70894896       4.64253873       0.00008290       0.00535132      -0.03208250
C       11.29628115      12.00370240      11.11104149       0.01200489      -0.00273902      -0.00231370
C       12.58362091      12.54921171      11.10661030       0.00901753       0.00254145       0.00399733
C       11.03113714      10.94810925      11.99603689       0.01158528      -0.00133134      -0.00016098
C       10.24853126      12.47874838      10.15851724       0.01478800      -0.00873080      -0.00777492
C       13.59252647      12.01080899      11.90878908       0.00610407       0.01216565       0.01285139
C       12.04097585      10.39274924      12.77512190       0.00824755       0.00943628       0.01080213
C       13.33192136      10.91450575      12.72644557       0.00562605       0.01568986       0.01842238
H       12.80035901      13.37394752      10.43986668       0.00957605       0.00073916       0.00192261
H       10.02352930      10.55636890      12.06166734       0.01382105      -0.00703743      -0.00708849
H        9.28023322      12.56916598      10.64623130       0.01350014      -0.00670982      -0.01106031
H       10.50320703      13.44488387       9.72835264       0.01583080      -0.01096478      -0.01170947
H       10.15630814      11.76547538       9.33818497       0.01760888      -0.01251701      -0.00452191
H       14.58771030      12.43727548      11.87330884       0.00405455       0.01630883       0.01713153
H       11.82076926       9.56895080      13.44176629       0.00779982       0.01173966       0.01386730
H       14.10783963      10.49106550      13.34911076       0.00296189       0.02433401       0.02651086
C        6.28491110       3.64776911      12.26767049      -0.00895776       0.00100766      -0.01125712
C        7.30555255       3.39950589      13.18876369      -0.00572905      -0.00460555       0.00276622
C        6.54716604       4.52259373      11.21853175      -0.00235313      -0.00876486      -0.00008762
C        4.95086843       2.98240865      12.40101929      -0.00723138      -0.00107428      -0.00367615
C        8.54874021       3.99640865      13.06028865      -0.01059140       0.00060859      -0.00576901
C        7.78971548       5.13222261      11.09694211      -0.00698629      -0.00313362      -0.01016247
C        8.79600071       4.87371415      12.01205182      -0.00224793      -0.00860574       0.00627310
H        7.12308356       2.70773056      14.00003274      -0.01128183       0.00081843      -0.00247753
H        5.76915436       4.73214343      10.49277328      -0.00292944      -0.00606088      -0.00900710
H        4.33327377       3.15539042      11.52010777      -0.00730102       0.00127678      -0.00477293
H        5.06041005       1.90556406      12.54167624      -0.00983592      -0.00031278      -0.00533572
H        4.41284090       3.35316767      13.27503287      -0.00643815       0.00026274      -0.00484174
H        9.33669347       3.76081300      13.76407623      -0.00911856      -0.00207157       0.00366691
H        7.97387533       5.80939597      10.27939084      -0.00096567      -0.00948736      -0.00333870
H        9.76617517       5.34396328      11.90499265      -0.00615299      -0.00512011       0.00024111
C       12.97178093       9.87485804       8.70945502       0.00904373       0.00202717      -0.00342849
C       11.89617011      10.12469805       7.85654072       0.00655991      -0.00319164      -0.00353809
C       13.97019391      10.84426618       8.80676917       0.00540687       0.00201052      -0.00611137
C       13.06368115       8.61179888       9.51600904       0.01059455       0.00255537      -0.00266005
C       11.80338201      11.31702564       7.14465572       0.00655325      -0.00393260      -0.00692055
C       13.87787087      12.03916916       8.10820142       0.00522597       0.00134907      -0.00968154
C       12.78780585      12.28627378       7.28211811       0.00325333      -0.00485025      -0.01079107
H       11.11663540       9.37837946       7.75151165       0.00817575      -0.00309167       0.00023207
H       14.81565468      10.66382067       9.46200011       0.00702445       0.00590518      -0.00652269
H       13.42331529       8.82196514      10.52404969       0.01299966       0.00358065      -0.00377703
H       12.09607112       8.11885884       9.60136680       0.01158248       0.00195195      -0.00030131
H       13.75867247       7.89662818       9.06784739       0.01020053       0.00321290      -0.00388405
H       10.96407210      11.48919821       6.48113296       0.00503188      -0.00792799      -0.00706051
H       14.66520912      12.77781649       8.19784596       0.00337183       0.00104807      -0.01300158
H       12.72332942      13.21166027       6.72433009       0.00332156      -0.00577699      -0.01370458
C        5.29799621       9.15463625       4.27851669      -0.01503100      -0.00639483      -0.00307146
C        3.98458849       9.38225658       3.87082549      -0.01203513      -0.00859585       0.00496539
C        5.62351416       7.89176732       4.76781441      -0.00547218      -0.00795448      -0.00639988
C        6.32319539      10.24490609       4.19815843      -0.01562762      -0.00503907      -0.00335401
C        3.02484884       8.38369094       3.94947146      -0.01502600      -0.01050083       0.00699883
C        4.66726552       6.88831407       4.85761542      -0.00867429      -0.00923439      -0.00501220
C        3.36204715       7.13125027       4.44909953      -0.00500953      -0.01091982       0.00470454
H        3.71294415      10.35543226       3.48559225      -0.01843872      -0.00868410       0.00749526
H        6.63838510       7.70138302       5.08521116      -0.00660017      -0.00664569      -0.01347232
H        7.33483946       9.83845592       4.15323978      -0.01541297      -0.00197642      -0.00884280
H        6.16484694      10.87108802       3.32063959      -0.02154991      -0.00265121      -0.00070003
H        6.26281383      10.88883917       5.07856969      -0.01417974      -0.00798699      -0.00133276
H        2.01202612       8.59432145       3.62822768      -0.01353860      -0.01191678       0.01336316
H        4.94092775       5.91931394       5.25862121      -0.00171087      -0.00994967      -0.00812295
H        2.61106937       6.35608245       4.52758718      -0.00674268      -0.01182822       0.00677513
C        9.96802692       1.89364320      10.90874992       0.00865550      -0.00949950       0.00513710
C        8.76826304       1.23012243      11.15794018       0.00778446      -0.00982604       0.00275660
C       10.95662815       1.86954021      11.89425334       0.00725959      -0.00938322       0.00293964
C       10.18507089       2.63277857       9.62758201       0.00727489      -0.00910696       0.00475949
C        8.57151671       0.52287104      12.33608574       0.00885084      -0.01009733       0.00498382
C       10.75711657       1.18863184      13.09049085       0.00790985      -0.00985205       0.00486105
C        9.56780832       0.48885012      13.30544499       0.00668593      -0.00834748       0.00271429
H        7.98198889       1.26571964      10.41188348       0.00901679      -0.01037448       0.00411457
H       11.88324983       2.40851562      11.72714783       0.00799797      -0.01084234       0.00389705
H       11.16511299       2.41705148       9.19769089       0.00707954      -0.00920953       0.00458794
H        9.42457709       2.37755935       8.89181646       0.00731504      -0.00859474       0.00536311
H       10.13221680       3.71284829       9.77956552       0.00784509      -0.00929567       0.00522467
H        7.63516654       0.00235623      12.50246768       0.00866061      -0.01025324       0.00350920
H       11.50376261       1.23427983      13.87959571       0.00776219      -0.01035214       0.00285688
H        9.41778057      -0.04830986      14.23304608       0.00738664      -0.00795281       0.00419003
C       10.43759623       1.84213948       2.78908016      -0.00040421      -0.00036093      -0.00251010
C       11.60458146       1.22804129       3.24506322       0.00012298       0.00253630      -0.01269230
C       10.49182920       3.18732861       2.42156910      -0.00592762       0.00594991       0.00543588
C        9.13610845       1.09719248       2.76351977       0.00025675      -0.00072494      -0.00520597
C       12.78620153       1.95030196       3.35883592       0.00105793      -0.00048207      -0.01255881
C       11.66969992       3.91486364       2.53466096      -0.00540667       0.00355515       0.00699248
C       12.81991091       3.29705409       3.01372046      -0.00429264       0.00579953      -0.00513035
H       11.57805263       0.17964447       3.51278156       0.00375102      -0.00106034      -0.01771894
H        9.59222543       3.67782234       2.06586829      -0.00719532       0.00477609       0.01334046
H        8.53075407       1.39944880       1.90761579      -0.00124940       0.00114507      -0.00278379
H        9.29835453       0.02058490       2.73280035       0.00313970      -0.00043267      -0.00970050
H        8.55145779       1.31353029       3.66351871       0.00128363      -0.00719345      -0.00341100
H       13.67770839       1.45934152       3.73238463       0.00241153       0.00042978      -0.02155578
H       11.68451236       4.96456425       2.26747159      -0.00958100       0.00770250       0.01433952
H       13.73280863       3.86500689       3.12395769      -0.00352730       0.00378410      -0.00526763
C        9.39050998       7.25223012       2.14697775       0.01929080       0.01873250      -0.00215012
C        8.79727085       6.53360229       3.18143203      -0.00432059      -0.01231565      -0.00143612
C       10.14525680       8.38049354       2.46858449      -0.00074530      -0.01767218      -0.00778194
C        9.23542467       6.81385552       0.72521141       0.00379250      -0.00066337      -0.00002879
C        8.95949801       6.92826038       4.50234542       0.02010263       0.02209479       0.00662264
C       10.29519403       8.79286443       3.78475546       0.02311079       0.01564363       0.00264460
C        9.69788224       8.06412825       4.80571706      -0.00365913      -0.01977800      -0.00201386
H        8.20275340       5.65658091       2.94845091       0.00661647       0.00873053       0.00236217
H       10.62989214       8.93617114       1.67595585       0.01230534      -0.00086703      -0.00265390
H       10.20076572       6.57371565       0.27207373       0.00476637      -0.01762368       0.00664717
H        8.60609524       5.93154066       0.65387198      -0.01078130       0.01564138      -0.00370374
H        8.77761546       7.58753431       0.10447307       0.02634537       0.01268250      -0.00292275
H        8.51283812       6.34700958       5.29699514       0.00501788       0.00112900       0.00332673
H       10.87371913       9.67977773       4.00446366       0.01042345      -0.00860855      -0.00149130
H        9.81393423       8.37241595       5.83637535       0.01272493       0.00382796       0.00216582
C       10.22623320       4.20804046       6.65176526       0.00244337      -0.00902230       0.00339501
C       11.35157102       5.02912912       6.74169952       0.00159308      -0.01335611       0.00408046
C        9.03807423       4.64543779       7.23023092      -0.00004795      -0.00921881      -0.00266334
C       10.30715399       2.88931759       5.95808524       0.00239031      -0.01228997       0.00729579
C       11.30166565       6.23697671       7.42151574       0.00160955      -0.00766718       0.00291795
C        8.98066931       5.85767081       7.90048584       0.00066026      -0.00361154      -0.00390325
C       10.11425585       6.65102424       8.01457246      -0.00091544      -0.00876358      -0.00375018
H       12.27101316       4.71714379       6.25935440       0.00324238      -0.01318745       0.00962209
H        8.14731103       4.03224699       7.14847991       0.00072611      -0.00602704      -0.00320613
H        9.33061032       2.56930822       5.59587064       0.00371957      -0.01190896       0.00490753
H       10.98847745       2.93702902       5.11436529       0.00570203      -0.01631046       0.00974435
H       10.68019154       2.11147167       6.63028377      -0.00144837      -0.01019427       0.01139486
H       12.18130854       6.86582143       7.47008344       0.00121324      -0.01134932       0.00343777
H        8.03980150       6.18690406       8.31918293      -0.00110333      -0.00380342      -0.00872824
H       10.06535223       7.59436175       8.54404568      -0.00050288      -0.00531426      -0.00515910
C        5.48071093       9.16165228       0.90220927       0.00449056       0.00591718      -0.00187700
C        6.73801044       9.76047885       0.81571186      -0.00133014       0.00447796      -0.00223776
C        4.35764548       9.98101973       0.81532793      -0.00091448       0.00430940       0.00284763
C        5.34679727       7.68019918       1.08867413       0.00227366       0.00524703      -0.00586122
C        6.86979942      11.12823829       0.62110934       0.00232334       0.00749744       0.00184734
C        4.48074099      11.35199046       0.63655771       0.00347957       0.00701222       0.00615114
C        5.73859170      11.93012604       0.52514217      -0.00317510       0.00515035       0.00667902
H        7.62451616       9.14756241       0.91867485       0.00147549       0.00566852      -0.00658221
H        3.37277162       9.53353747       0.88421391       0.00269838       0.00501743       0.00276344
H        4.31589401       7.35858925       0.94091230       0.00325277       0.00499177      -0.00603557
H        5.98196911       7.13379189       0.38854472       0.00263351       0.00804379      -0.00783752
H        5.64093951       7.38809012       2.09967343       0.00359828       0.00273541      -0.00709543
H        7.85920291      11.56605327       0.55060162      -0.00125988       0.00671840       0.00160861
H        3.58682818      11.96077906       0.56933398       0.00005579       0.00540796       0.00953584
H        5.83849825      12.99351732       0.34911206      -0.00056827       0.00709774       0.01003697
C        7.17356268       9.16880747      11.13109277      -0.00860403       0.00081168      -0.00072878
C        6.13398353       8.33153452      11.53802987       0.00395596       0.00160068      -0.00921880
C        6.89786936      10.51742506      10.93016941       0.00144497       0.00592071       0.00259087
C        8.53920163       8.61159186      10.86085653      -0.00306961       0.00674628      -0.00216602
C        4.85084635       8.82725438      11.70765966      -0.01135715      -0.00080836      -0.00348676
C        5.61602804      11.02016956      11.11225367      -0.01419792       0.00016391       0.00857394
C        4.58580116      10.17337348      11.48876559       0.00292884       0.00251544      -0.00042748
H        6.33417943       7.28046830      11.70970433      -0.00354938       0.00073969      -0.01304483
H        7.69215575      11.17346059      10.59533818      -0.00692929       0.00590236       0.00973620
H        9.20458069       9.36921726      10.44758304      -0.00668458       0.00594512      -0.00629735
H        9.00554627       8.19836267      11.75939570      -0.00142242       0.01250093      -0.00030348
H        8.47966231       7.79813180      10.13894200      -0.00233600       0.00209445       0.00269793
H        4.05434278       8.16146339      12.01805220      -0.00190003      -0.00179069      -0.00953289
H        5.42009461      12.07157531      10.93822977      -0.00570077       0.00355411       0.01169781
H        3.58329825      10.56011519      11.62183250      -0.00712244      -0.00084958       0.00373867
C        6.75424319      10.06422707       7.64589385      -0.00243309       0.00044077      -0.00402424
C        6.83741918       8.67907746       7.77115936       0.00347187       0.00389417      -0.00838479
C        5.50503424      10.66227102       7.77884411       0.00222811       0.00262335      -0.00181299
C        7.99353002      10.86929603       7.38952720      -0.00205490       0.00287789      -0.00600545
C        5.71243775       7.91372119       8.03727934      -0.00303185      -0.00146108      -0.00712092
C        4.37201699       9.89844730       8.03499239      -0.00266778      -0.00367431      -0.00052436
C        4.47101160       8.52203657       8.16873993       0.00408706       0.00195393      -0.00562594
H        7.80452804       8.20625612       7.65327777      -0.00080914       0.00225848      -0.00989812
H        5.42392388      11.74183744       7.70434176      -0.00157059      -0.00018451       0.00119580
H        7.84287483      11.92397748       7.62187144      -0.00345636       0.00254233      -0.00759904
H        8.82285674      10.50375252       7.99775628      -0.00138472       0.00474398      -0.00630002
H        8.30880717      10.79804777       6.34498401      -0.00303432       0.00153260      -0.00593689
H        5.79581294       6.83712928       8.13485910       0.00167638       0.00125857      -0.01094616
H        3.40938775      10.38238235       8.14846706       0.00059198      -0.00155327       0.00111740
H        3.58891470       7.92939552       8.37435990       0.00070383      -0.00206442      -0.00526888
