195
Lattice="13.108489777578997 0.0 0.0 0.0 13.108489777578997 0.0 0.0 0.0 13.108489777578997" Properties=species:S:1:pos:R:3:forces:R:3 energy=-96079.265625 stress="-0.00018358667148277164 0.00014974144141888246 -0.00021044668392278254 0.00014974144141888246 -0.0006645030807703733 0.0005334040324669331 -0.00021044668392278254 0.0005334040324669331 -0.0006974728312343359" pbc="T T T"
Li      11.65320320      13.94148002       1.09776554       0.01379582      -0.00679197       0.00714791
O       11.13123730      12.41981482       2.09634329       0.01086479      -0.00184223       0.01534912
O       13.16719654      12.85480942       1.40303069       0.00067532      -0.02705431       0.00057536
O       12.73452308      10.81518708       2.30166287      -0.00585839      -0.00007498       0.00103831
C       12.46727817      11.94451929       1.93750239       0.01361448      -0.02149302       0.00561445
H       10.58272194      11.76977478       2.55778834       0.00923744       0.00922629       0.02924554
O       10.21628041       1.38698751      13.10299084       0.00533074      -0.00551146       0.02075329
C        9.55208015       2.59164251      12.64083000       0.00611161      -0.00700666       0.01428318
C        9.41894725       2.61759721      11.13771797       0.00626621      -0.01420084       0.01442295
H        8.57551773       2.66044071      13.12640123       0.00648969      -0.00396504       0.01404463
H       10.15332205       3.41992438      13.01427906       0.00679807      -0.00585833       0.01049598
H        8.90112237       3.51990402      10.80549397       0.00758579      -0.01501888       0.01053849
H       10.39996097       2.57918995      10.66080320       0.00627042      -0.01795884       0.01433932
H        8.82811223       1.76816297      10.78490431       0.00511676      -0.01505575       0.01839468
H        9.60680020       0.64724378      13.00021452       0.00218111      -0.00481308       0.03092656
O        9.72473777       4.23103543       5.27785020      -0.01308948       0.00219783      -0.01251826
C       10.44624033       5.33921742       5.80233205      -0.00563738      -0.00328696      -0.01075444
C        9.80996741       5.95885203       7.02857361       0.00479725      -0.00854461      -0.00293440
H       11.44011050       4.95770512       6.04778303      -0.00534484      -0.00801243      -0.02045223
H       10.58075899       6.11300382       5.03157595      -0.00884707       0.00041667      -0.00736427
H       10.44832139       6.75412252       7.41702276       0.01016450      -0.01368910      -0.00142030
H        8.83390633       6.38531832       6.79386158       0.00507405      -0.00317957       0.00585213
H        9.66887058       5.21854902       7.81557220       0.00711304      -0.01293314      -0.00660323
H        8.79141378       4.46484672       5.17219913      -0.01315080       0.00553814      -0.00286819
O        2.07298476       6.82056706       2.58853402       0.00043744       0.00916547      -0.00655270
C        3.48351566       7.07223541       2.41794628      -0.00013491       0.01776323       0.00211033
C        3.73825453       8.30595002       1.59355300      -0.00354082       0.00796288      -0.01331297
H        3.93358418       7.16500156       3.40693485      -0.00742145       0.03443943       0.00364572
H        3.90642152       6.18224691       1.94773749       0.00857016       0.01395521       0.01838571
H        4.80689396       8.52218610       1.57337972      -0.00461160       0.01268282      -0.01383921
H        3.37830942       8.18450842       0.56978145      -0.00044300      -0.00587392      -0.01242803
H        3.23698188       9.17587673       2.02199191      -0.00798012       0.01164989      -0.02589828
H        1.60021293       7.61438854       2.32007276      -0.00076195       0.01560947       0.01468618
O        7.08374262      10.89342041      11.03005207       0.00522444       0.00268294       0.00521243
C        6.03864978      11.76399957      10.54104165       0.00669864       0.00065178      -0.00149423
C        4.69614095      11.06996314      10.46581823       0.00720698       0.00037897      -0.00379251
H        5.98843360      12.64449078      11.18099634       0.00444474       0.00323689      -0.00526205
H        6.37055192      12.09240743       9.55616578       0.01011461      -0.00354242      -0.00167054
H        3.92751911      11.78420233      10.16493892       0.00966865      -0.00206712      -0.01556243
H        4.71290853      10.25913172       9.73803187       0.01180381      -0.00582045       0.00345498
H        4.40006218      10.66139268      11.43374819       0.00076246       0.00925734      -0.00210866
H        6.91504453      10.73984952      11.96642409       0.00124714       0.00414143       0.00480908
O        2.65936191      11.40158071       1.27297105      -0.00428939       0.01889190      -0.02911952
C        3.79140190      12.00766154       1.87003045      -0.01174879       0.01138151      -0.00843503
C        4.79646163      12.43282927       0.81752642       0.00258064       0.00656907       0.00421923
H        3.50756609      12.86823340       2.48366663      -0.01849693       0.01321170      -0.01371861
H        4.26743360      11.27681845       2.53692463      -0.02266276       0.01174384       0.00027704
H        5.69930429      12.84722332       1.26899568      -0.00021027       0.00018559       0.01375237
H        5.08714418      11.56303234       0.22623089       0.00284879       0.00526316       0.00595016
H        4.35104393      13.16663336       0.14212130       0.01330248       0.00933529       0.00051646
H        1.86234451      11.94246499       1.39126775      -0.00964131       0.00525969      -0.01703127
O        4.73921236       1.58888610      10.75419220      -0.00288707       0.00054368      -0.00039075
C        5.52602156       2.32597283      11.68683273      -0.00022166       0.00030747      -0.00172532
C        4.68959910       3.26825294      12.52636784       0.00029492      -0.00240633       0.00186446
H        6.08450478       1.63849886      12.33905080       0.00203934      -0.00017306      -0.00428805
H        6.24901298       2.87987514      11.08457900      -0.00161389       0.00295496      -0.00174084
H        5.29795845       3.75818868      13.28793108       0.00131501      -0.00241196       0.00103219
H        4.23053809       4.03947984      11.90877217      -0.00259550      -0.00244328       0.00386585
H        3.89738104       2.72043667      13.04347892       0.00244334      -0.00445294       0.00292111
H        3.99796113       1.20804730      11.23525580       0.00298296      -0.00618185       0.00160199
O        4.58243870       8.47937751       6.30063346      -0.00346977       0.00593749      -0.01000614
C        5.55115121       8.67079519       7.33856225       0.00094023       0.00131512      -0.01348137
C        6.27237461       9.99666144       7.20115768       0.00191110       0.00089496      -0.01121349
H        5.06429455       8.58839880       8.31647715       0.00542021      -0.00198951      -0.01161954
H        6.25084267       7.83613055       7.26474970      -0.00023353       0.00095725      -0.02006249
H        6.99526185      10.11721999       8.00742220       0.00769813      -0.00505681      -0.01547152
H        6.79910245      10.05018566       6.24671379      -0.00467685       0.00522487      -0.01452754
H        5.56413852      10.82589669       7.25363720       0.00392707       0.00183952      -0.00160842
H        3.93505705       9.20618797       6.37554459      -0.00282139       0.00598590      -0.00481153
O        7.52087899       8.45529016       9.87854088      -0.00248596       0.00569665      -0.00184572
C        8.88966247       8.05925911       9.84761232      -0.00313833       0.00331426      -0.00583443
C        9.63189046       8.46997645      11.10159617       0.00134119       0.00448711      -0.00889349
H        8.88112439       6.97473573       9.72355186      -0.00461678       0.00306362      -0.00353002
H        9.37930634       8.47859048       8.95948963      -0.00559923       0.00110033      -0.00812048
H       10.67403212       8.14216662      11.06717856       0.00121680       0.00495752      -0.01259043
H        9.62530785       9.55581685      11.21913120       0.00098543       0.00448179      -0.00960522
H        9.17065190       8.03106081      11.98578071       0.00480144       0.00505235      -0.00685583
H        7.43154710       9.35612765      10.25511348      -0.00010909       0.00422718       0.00218987
O        7.98188215      11.41606986       1.83653230       0.00197726       0.00270224       0.01312178
C        7.91831934      10.03731308       1.48027428      -0.00002038       0.00412729       0.00772622
C        9.29522429       9.41016790       1.42331685      -0.00089264       0.00383109      -0.00403928
H        7.26452721       9.50090887       2.17490665       0.00415611       0.00145587       0.00907081
H        7.44292219       9.98935192       0.49464292      -0.00625581       0.00900685       0.01088414
H        9.23971447       8.33933933       1.21449682      -0.00371191       0.00477788      -0.00886573
H        9.92075534       9.88717163       0.66732820      -0.00524902       0.00635548      -0.00586608
H        9.79347363       9.53155659       2.38549248       0.00739315      -0.00207191      -0.00747772
H        8.23875277      11.42786537       2.76900231       0.01281588      -0.00071965       0.01093574
O        5.82981989       6.66632745      10.96513641       0.01013270      -0.00509562      -0.00351226
C        6.30041884       6.65999637      12.31107239       0.00013366      -0.00584912       0.00007698
C        7.48322197       5.72978085      12.51060249       0.00085199      -0.00313935       0.00703017
H        6.56746218       7.68205334      12.60959051      -0.00521334      -0.00586379       0.00382952
H        5.46434733       6.35309988      12.94454085      -0.00367731      -0.00953868      -0.00709867
H        7.87104919       5.78864384      13.53074928      -0.01143026      -0.00917741       0.01188298
H        7.19188227       4.70077116      12.30202243       0.00682779      -0.00237887      -0.00386650
H        8.29041149       5.97985705      11.82101704       0.00848548       0.00426821       0.01902896
H        6.37787203       7.33096544      10.49530137       0.00676551       0.00104533       0.00114328
O        7.25752083       4.73460499       9.42730795       0.00336676      -0.02653253       0.02803493
C        6.91376840       4.19890998       8.14520728       0.00555170      -0.00904447       0.02086231
C        7.60418835       2.86115928       8.01355715       0.01103273      -0.00383008       0.00115798
H        5.83261207       4.08776590       8.03574397       0.00610024      -0.01290892       0.02028003
H        7.24666461       4.87072220       7.34646849       0.00109059       0.00361606       0.03002641
H        7.48363215       2.46002450       7.00985842       0.00915051       0.00984724      -0.00381733
H        8.67403623       2.97475309       8.20111163       0.01119088      -0.00247822      -0.00040574
H        7.19145548       2.14935802       8.73149796       0.01603033      -0.01474233      -0.00715813
H        6.57792783       5.34891909       9.74912624       0.01470983      -0.01142170       0.02407940
O        3.46904571       3.99155954       7.81772794       0.00209916      -0.00018010      -0.00252688
C        3.33694717       4.13985900       9.22740624      -0.00156610       0.00409371      -0.00332591
C        2.91134110       5.53225722       9.64863103       0.00011839       0.00629258      -0.00912257
H        2.64705271       3.38550600       9.62918855      -0.00423405       0.00673196      -0.00316930
H        4.32164286       3.90096108       9.62687565      -0.00330788       0.00339899       0.00033185
H        2.91464165       5.61912836      10.73752804      -0.00256001       0.00962459      -0.00948714
H        3.60371303       6.27896311       9.26012669       0.00271668       0.00348009      -0.00989186
H        1.90279923       5.75577356       9.29719807       0.00137091       0.00717371      -0.01217853
H        2.62810430       4.20408545       7.40399750       0.00284241      -0.00119621      -0.00457613
O        9.26639872      12.53493871       7.88526924       0.01216219      -0.00759023      -0.03069680
C        9.63466621      11.55411070       8.85605226       0.00102928       0.00824781      -0.01053507
C       11.13636536      11.38324395       8.98012218      -0.00080210       0.01127242       0.00975392
H        9.18228760      11.77975004       9.82769642      -0.01056118       0.02437349      -0.02045682
H        9.17832140      10.62688676       8.50591649       0.00611030       0.00222656      -0.00046550
H       11.37332822      10.53747616       9.62963160      -0.00746094       0.02603707       0.03003414
H       11.57349137      11.19461311       8.00044777       0.01050921      -0.00944088       0.01965015
H       11.60622000      12.27283519       9.40454822      -0.00626362       0.02020884      -0.00400120
H        9.45656022      13.40662336       8.24408826      -0.00479616      -0.00109038      -0.03790128
O        5.98380730       8.55664282       3.96899884       0.00569147       0.00312471      -0.00481103
C        6.48793110       7.23191638       3.86987404      -0.00028169       0.00071266      -0.00491206
C        7.98144435       7.19567040       4.10029445      -0.00057316      -0.00587755      -0.00392404
H        5.97565284       6.57636284       4.58248738      -0.00336295       0.00238189      -0.00595894
H        6.26452572       6.84491373       2.86722646      -0.00091413       0.00199749      -0.00518173
H        8.36751679       6.18658818       3.95320041      -0.00524776      -0.00734386      -0.00480358
H        8.48741466       7.85258677       3.39462785       0.00308925      -0.00773488      -0.00320570
H        8.21820789       7.53427748       5.10929520       0.00072740      -0.00815797      -0.00342675
H        5.44231067       8.60192825       4.78251559       0.00086302       0.00435102      -0.00810672
O        3.73575739       4.14892775       3.90588093       0.01419070       0.00687578       0.01738876
C        3.30704934       3.54647926       2.69267176       0.00596938       0.00461602       0.01994017
C        2.29340444       2.43187514       2.87898416      -0.00473565       0.01575854       0.02786447
H        2.89915630       4.29829687       2.00556701       0.01047459       0.00666320       0.01765716
H        4.21424518       3.14617017       2.23512106       0.00130388      -0.00528680       0.01840144
H        2.09638173       1.92882500       1.92809971      -0.01910600       0.02092157       0.02903728
H        2.66694696       1.68644398       3.58144361      -0.00770519       0.01096078       0.02326062
H        1.34560231       2.81647292       3.25835724       0.00412318       0.02914677       0.03773340
H        2.99219395       4.60371013       4.34422780       0.01236224       0.00313448       0.01948166
O        2.95271218      10.67642486       6.57323401      -0.00081205       0.00387391       0.00509700
C        3.03494348      11.73328793       5.59933102      -0.00209621       0.00368576       0.00451319
C        1.78906442      11.81096716       4.75168278      -0.00116462      -0.00009823       0.00316468
H        3.22699341      12.68088080       6.11346063      -0.00527900       0.00429627       0.00438416
H        3.91264800      11.49779249       4.99623064      -0.00078669       0.00587755       0.00582099
H        1.84694323      12.63989011       4.04609186      -0.00164303      -0.00205103       0.00100467
H        1.62943967      10.90093282       4.17396603       0.00084986      -0.00216258       0.00549501
H        0.91075138      11.98616825       5.37803328      -0.00220554       0.00000647       0.00161508
H        2.07366866      10.69360249       6.96216469      -0.00354522      -0.00192156      -0.00083806
O        9.42467343      11.13538777       4.42645104       0.00547451       0.03472030      -0.00942418
C       10.09048117      10.12959962       5.21697475      -0.01088679       0.02253456      -0.00903741
C       11.56135437      10.43987149       5.37117520      -0.01049393       0.00889677       0.00421310
H        9.58985031      10.04536675       6.18681433      -0.02076359       0.02291417      -0.01499000
H        9.94369518       9.18678885       4.69152106      -0.01651720       0.02833152      -0.01657581
H       12.03444715       9.73294958       6.05556991      -0.02070790      -0.00280416      -0.00110212
H       12.07211233      10.39119016       4.40915523      -0.00461332       0.01513012       0.00693354
H       11.68775680      11.44524941       5.77895524      -0.00466546       0.00290479       0.01685522
H        9.34275845      11.91091592       4.99286092       0.00421359       0.03089118      -0.00434858
O       12.53377539       6.19827011       8.96538037      -0.00187480       0.00377560       0.00355339
C       11.76266454       5.38425547       9.84946703       0.00337963      -0.00134090       0.00359344
C       12.40220925       5.25092279      11.21374157       0.00859264      -0.00443632       0.00070763
H       10.74623185       5.78402482       9.94170616       0.00258732      -0.00436279       0.00839537
H       11.68196890       4.41611677       9.35353173       0.00452092      -0.00009090       0.00100602
H       11.75290656       4.69685928      11.89406903       0.01416358      -0.01182293      -0.00011002
H       13.36617624       4.74552857      11.15169166       0.01095714       0.00117972      -0.00545141
H       12.56302024       6.23672846      11.65800051       0.00442198      -0.00583704       0.00510839
H       12.72262909       7.02227765       9.42496618      -0.00212336       0.00264475       0.00564066
O        6.76959991       3.88185354       4.61043769      -0.02770495      -0.00207102       0.00825286
C        6.83324885       2.48785290       4.30706559      -0.00927581       0.00144947      -0.00023960
C        5.68973122       1.71087641       4.92869738       0.00522822      -0.01957661      -0.00050333
H        6.84211791       2.34078893       3.21782986      -0.01116915       0.00760533      -0.00109661
H        7.80008755       2.14569579       4.68343010      -0.00305963       0.01238814      -0.00677714
H        5.75583258       0.65236275       4.66818579       0.02178523      -0.01716243      -0.00463466
H        5.69360399       1.80784276       6.01428395       0.00649380      -0.02387410      -0.00013736
H        4.73831065       2.10501013       4.57316441      -0.00214939      -0.03460893       0.00362805
H        5.86125939       4.17330609       4.43900645      -0.03202116      -0.01284033       0.01078274
O       10.54174502       5.64223674       1.87684779       0.00519776      -0.01792806      -0.00606215
C       11.62874887       6.46732301       1.45646199      -0.00056593      -0.00568959       0.00480949
C       12.06853762       7.46985464       2.50163280      -0.01059377      -0.01383570       0.01655596
H       12.48152403       5.84820859       1.14933470       0.00477707       0.00401479       0.00107983
H       11.26152603       6.98426238       0.56704681      -0.00110468       0.00102298       0.00929087
H       12.73402417       8.21872452       2.06537918      -0.01965556      -0.00117293       0.02498361
H       11.21263281       8.01583106       2.89396863      -0.01660681      -0.02859160       0.02444437
H       12.58321361       6.97649861       3.32905415      -0.00495163      -0.01847981       0.01007171
H       10.74424932       5.27745017       2.74542933      -0.00166556      -0.01210600      -0.00221936
O        1.70283181       5.75468716       5.10596793      -0.02696230      -0.02260394      -0.02723604
C        1.69186441       6.44386407       6.35777416      -0.00574180      -0.01687524      -0.03068128
C        0.88560366       7.72471710       6.31180451       0.00036275      -0.01400900      -0.02503318
H        1.22451816       5.76619069       7.07462535       0.00309408      -0.01150051      -0.02062637
H        2.71382494       6.64961546       6.69295381      -0.00110430      -0.02067782      -0.04525121
H        0.81552300       8.15464053       7.31501775       0.02375106      -0.00635352      -0.02736513
H        1.35127817       8.46706798       5.65893954      -0.00902744      -0.02239816      -0.04030982
H       -0.12776141       7.52853780       5.95864876      -0.00706400      -0.01118094      -0.00343151
H        1.80904694       6.37903357       4.36400712      -0.01620983      -0.03025682      -0.03260486
