199
Lattice="13.470247538860713 0.0 0.0 0.0 13.470247538860713 0.0 0.0 0.0 13.470247538860713" Properties=species:S:1:pos:R:3:forces:R:3 energy=-546076.4375 stress="0.00020788049732800573 -1.2571436400321545e-05 -0.00017803306400310248 -1.2571436400321545e-05 -0.0008013641345314682 -0.0007099079084582627 -0.00017803306400310248 -0.0007099079084582627 -0.0010446796659380198" pbc="T T T"
Lu      13.93332857      10.07343190       2.50678893      -0.01299566       0.00406231       0.01382751
Cl       2.65924347      11.83903697       0.59115184      -0.00305323      -0.01909821       0.01298583
O        1.56824936      10.58530258       0.87903879      -0.01314187      -0.00948739       0.00769833
O        3.31392915      12.16431294       1.96971052      -0.00941467      -0.02652645       0.01917994
Cl       5.12619384      12.82679405      12.08239623       0.00117776       0.00921500       0.02660131
O        6.48602885      12.87595759      12.79264608      -0.00451410      -0.00950174       0.03830123
O        3.96190322      13.45760238      12.88768694      -0.00639451      -0.01090962       0.03299880
Cl       6.00740209      13.01167940       6.66421687       0.00259966      -0.00137782      -0.00836766
O        6.31057825      11.70672325       7.40605875       0.00735097       0.00416231      -0.00776845
O        7.34540195      13.94774565       6.44411447       0.00069156       0.00616673      -0.00855392
O        8.52403836       8.09809841      10.22974566       0.00026132       0.00881994      -0.00370222
C        8.12853633       8.90146655      11.32959725      -0.00144514       0.00248110       0.00033671
C        6.85956270       9.68639417      11.05455158       0.00228101       0.00852650       0.00099708
H        7.98677965       8.28034649      12.22622400      -0.00658358      -0.00321874      -0.00449401
H        8.96263404       9.57486481      11.54034355      -0.00013924      -0.00180492       0.00785681
H        6.60910923      10.33686656      11.89656887       0.00092930       0.00394948       0.00421080
H        6.97038868      10.31673329      10.16897661       0.00786645       0.01346548       0.00566456
H        6.02165734       9.00712356      10.86705999       0.00046906       0.01259838      -0.00635261
H        7.71762295       7.71586594       9.83376767       0.00201492       0.00473907      -0.00225332
O        5.07371086       8.27473247       0.27899976      -0.00852881       0.01501381      -0.01979727
C        5.33033959       9.14413991       1.38365956      -0.01101696       0.00874532      -0.00467232
C        6.80324553       9.22376142       1.72602577      -0.00887370       0.00151195      -0.01013491
H        4.93463330      10.14648066       1.18841612      -0.00315477       0.01186252      -0.01003355
H        4.76456179       8.72147506       2.21479397      -0.01109734       0.01574443      -0.00848436
H        6.96763976       9.82237373       2.62454985      -0.00631664       0.00222881      -0.01014499
H        7.21916589       8.22867216       1.89958885      -0.01437956      -0.00045431      -0.00862628
H        7.35241721       9.69147196       0.90519483      -0.00787295      -0.00238408      -0.01006907
H        5.52934563       8.63597625      -0.48774370      -0.01291097      -0.00207061       0.00462366
O       10.96079056      13.30081170       4.15259098      -0.00203201      -0.00477901       0.00945544
C       11.18399394      12.69966398       5.43888688      -0.00404707       0.00441179       0.01405963
C       11.99809064      13.62508530       6.31812077      -0.00081295       0.00840026       0.00633195
H       10.21305998      12.47822292       5.88959406      -0.00383300       0.00977897       0.01565428
H       11.68858474      11.74137146       5.29122268      -0.00573575       0.00213206       0.02061933
H       12.27462919      13.13358052       7.25229267      -0.00407929       0.01600077       0.01117355
H       12.90961745      13.93243478       5.80557430       0.00110152      -0.00029757       0.00503495
H       11.43104299      14.52558058       6.55967828       0.00230406       0.01269621      -0.00275370
H        9.23745278      13.48856702       3.98857885       0.00477979      -0.00353147       0.00209786
O        7.67978806       2.81811761      10.65563888       0.00052321      -0.01484823       0.02274829
C        6.85027281       1.87603478       9.95032898      -0.01051755      -0.00261378       0.00518706
C        7.58468662       0.58069433       9.72477361      -0.01241237      -0.00525725       0.00504432
H        5.92737662       1.70777369      10.51473770      -0.00974223      -0.00215644       0.00736368
H        6.59571127       2.36078118       9.00603630      -0.00575162      -0.00017659       0.01104653
H        6.95175267      -0.15681253       9.23191177      -0.01618202      -0.00023916      -0.00019734
H        8.47126815       0.74270898       9.11238242      -0.01115903      -0.00780404       0.00686322
H        7.87634304       0.15721804      10.68717127      -0.01474734      -0.01076003       0.00200334
H        8.11306179       2.33166374      11.36607314      -0.01716875      -0.00569552       0.00352699
O        6.00684251       4.29075187      12.31984695      -0.00165543       0.00414139       0.01127212
C        6.65160469       5.52997801      12.58556100       0.00299871       0.00392503       0.00036493
C        8.10895389       5.34695217      12.97110523       0.00166619       0.00159870       0.00313552
H        6.58145084       6.19443492      11.71237946       0.00578951      -0.00381246      -0.00552195
H        6.09040378       6.00323432      13.39180050       0.00402045       0.01287369      -0.00416443
H        8.54409456       6.28532568      13.32035702       0.00572313       0.00243799      -0.00490299
H        8.19589836       4.60469549      13.76903272      -0.00200203       0.00850627       0.00983724
H        8.69800077       5.00379756      12.11843778       0.00068554      -0.00894928       0.00683697
H        6.56079409       3.80905947      11.67943905      -0.00451401      -0.00182256       0.01267687
O        6.33535844       6.93936698       8.95673443       0.00359982      -0.00499249       0.00330013
C        6.88109564       6.25984029       7.82304475       0.00407565      -0.00338086       0.00256019
C        8.03298188       5.40517166       8.29382043       0.00563309      -0.00208360       0.00063083
H        6.10439910       5.63550978       7.36178709       0.00452128      -0.00446442       0.00275308
H        7.20969230       6.98785884       7.07203383       0.00207791      -0.00247544       0.00272384
H        8.45894968       4.84682356       7.46003807       0.00694451       0.00095930      -0.00065592
H        8.81706703       6.02507429       8.73029308       0.00413847      -0.00127594       0.00236775
H        7.70526221       4.69670705       9.05455156       0.00720865      -0.00469285      -0.00105469
H        5.50337801       7.36590678       8.67802662       0.00525893      -0.00314192       0.00369389
O        3.00987446       4.90941532       8.37439643       0.00318396       0.00257498      -0.00525069
C        3.81313667       4.65921193       9.56549451      -0.00079229      -0.00535104      -0.00618769
C        3.29187930       5.43323365      10.74717460      -0.00115712      -0.01147178      -0.00186682
H        3.82655496       3.58479051       9.76441428      -0.00017093      -0.00557938      -0.01349181
H        4.82041306       4.97859652       9.30383045      -0.00019911      -0.00409853      -0.00465813
H        3.91362960       5.21605572      11.61537653       0.00058593      -0.01621058      -0.00315765
H        3.33003565       6.50745514      10.55508820      -0.00083972      -0.01096871       0.00310463
H        2.26075661       5.15471086      10.98042773      -0.00212869      -0.01209616      -0.00525023
H        2.10604734       4.65375695       8.58859982      -0.00328869       0.00617284      -0.00082272
O        2.57187586       4.81354057       5.54497858       0.00334662       0.00308990       0.01178646
C        1.18978012       4.51423364       5.75887838      -0.00342594       0.00399530      -0.00654674
C        0.94923811       3.04203595       6.01860197      -0.00016200       0.00355250       0.00111961
H        0.80183369       5.12557588       6.58420936      -0.00340571       0.00405751      -0.00079292
H        0.66791087       4.83123528       4.85398545       0.00183719       0.00155167       0.00154972
H       -0.11536793       2.84828405       6.15598801      -0.00154282       0.00315542      -0.00284769
H        1.30036589       2.44837827       5.17293675       0.00113401       0.00285043      -0.00000700
H        1.47510458       2.70850517       6.91746122      -0.00348976       0.00420073      -0.00008734
H        3.02692340       4.70303932       6.39389018      -0.00845352       0.00760473      -0.00846863
O        8.94525770      10.60208647       7.29733439       0.02402067       0.00608581      -0.01341275
C       10.05606358      10.51074819       8.18232427       0.00090420       0.00616935      -0.00325260
C       10.28919712      11.80581322       8.93633700       0.00318866      -0.00183767       0.00774544
H        9.91787582       9.67824249       8.88202420       0.00233558      -0.00013769      -0.00988060
H       10.90885678      10.27660226       7.54186219       0.01017344       0.00904395      -0.00105315
H       11.26477563      11.79062167       9.43135553      -0.00001745      -0.00550766       0.01129536
H       10.27133885      12.65504186       8.25438728       0.00519917       0.00420579       0.01458944
H        9.51373185      11.96531782       9.68812571      -0.00110719      -0.00769958       0.00582115
H        8.17466718      10.93600826       7.77244494      -0.00137531       0.01095759      -0.00440428
O        6.79863788       9.74964986       5.38394683      -0.00749862      -0.03603375      -0.02074581
C        5.41744899       9.58672092       5.09881456       0.00654495      -0.00056708       0.01140060
C        5.13823756       8.12619629       4.83951329       0.00487876      -0.00482821      -0.00555692
H        4.81674306       9.93746412       5.94717865       0.00295138      -0.01252927       0.00524262
H        5.13345688      10.19209918       4.22416180       0.00272876      -0.00047696       0.00853825
H        4.11413558       7.97333940       4.49347140      -0.00201420      -0.00051184      -0.00416260
H        5.82153749       7.75136014       4.07720644      -0.00337969       0.00116250      -0.00971128
H        5.27606456       7.54771010       5.75153783       0.00180402      -0.01069189      -0.01069164
H        6.87198455      10.44015776       6.05703662       0.00531515       0.01590145       0.01821251
O        2.82459843       4.03813470       2.93552040      -0.00353719       0.01314992      -0.00392824
C        4.11534913       4.16704604       2.31628324      -0.00331953       0.00247166       0.00072107
C        4.77519898       5.47094637       2.69865467       0.00901270      -0.00378162      -0.00435387
H        4.73542945       3.31220734       2.60479727      -0.01031813      -0.00374916      -0.00595252
H        3.95400069       4.09793741       1.24041405      -0.00213256       0.00729840      -0.00220656
H        5.76386056       5.56329924       2.24491668       0.00749400      -0.01715451      -0.00910691
H        4.17616365       6.32174960       2.37095004       0.01441702      -0.00308174      -0.01141498
H        4.88995107       5.53246137       3.78155974       0.01331900       0.00477650      -0.00451419
H        2.92753906       4.21663088       3.89268540      -0.00223060       0.01249362       0.00273649
O        1.88171887      11.10870034       3.76171144      -0.00677326      -0.00234859       0.00729227
C        1.47434050      11.93613016       4.88285845       0.00513569       0.01126350       0.00133421
C        2.66414616      12.56886710       5.55856141       0.01137346       0.00304990      -0.00161254
H        0.77103359      12.68519003       4.51530086       0.01503199       0.01802659      -0.00358737
H        0.93967714      11.27176562       5.56374095      -0.00317613       0.02404177       0.00742245
H        2.32090118      13.15759899       6.41083656       0.01671410       0.01104207      -0.00476472
H        3.35598362      11.80535048       5.91677017       0.00365017      -0.00109801       0.00392202
H        3.19349680      13.23352816       4.87443213       0.01859644      -0.00550762      -0.00423197
H        2.51850626      11.61870732       3.10891422      -0.00438653      -0.00942424      -0.00703609
O       10.14129136       8.70419292       5.44601596       0.04476424      -0.02035093      -0.00390670
C       10.11647684       7.62504369       6.37574396      -0.00247127       0.01129603      -0.00699496
C       11.53787698       7.25623688       6.74190442       0.00068742       0.00069077       0.00200120
H        9.56171327       7.91405256       7.27351801      -0.00219518       0.00020297      -0.01073229
H        9.60302328       6.76058997       5.93279208       0.00572085       0.00583452      -0.01356861
H       11.54925518       6.40180820       7.42271933      -0.00981989      -0.00778562       0.00058279
H       12.11565444       6.99530695       5.85330535       0.00684069       0.00187062       0.01050334
H       12.03339331       8.09875082       7.22696325      -0.00401863      -0.00745414       0.01581502
H        9.35001081       9.23554289       5.60529994      -0.00988589       0.02860695       0.00625747
O       13.12714409       6.10869814      10.68571838       0.01447445       0.01145508      -0.01983899
C       12.02995619       7.02939571      10.76205231      -0.00118621       0.00278443       0.00449945
C       12.47444427       8.45549880      10.52287116      -0.00630961       0.00631952       0.00987638
H       11.24059639       6.74796274      10.05740361       0.00198072       0.00288202      -0.00010186
H       11.61982286       6.91142886      11.76591763       0.00344639      -0.00610814      -0.00115713
H       11.62784849       9.13717295      10.61574189      -0.01176824       0.00055532       0.01427437
H       13.24263084       8.74956050      11.24056269      -0.00900547       0.00642757       0.01210661
H       12.88450736       8.56252645       9.51365393      -0.00816965       0.01499032       0.01135108
H       13.58230988       6.29316393       9.85861966       0.00028265       0.01798372       0.00889260
O        0.93821925       5.68473762       2.15827313       0.00942218       0.01426697      -0.00853693
C        0.90459146       5.75429961       0.72046690       0.00699453       0.00632039      -0.00836901
C        1.95102115       6.69631173       0.17205239       0.00271726       0.00697353      -0.01433900
H        1.02171393       4.74440327       0.31980137       0.00904199       0.00394085      -0.00249998
H       -0.10071411       6.08871999       0.45170022       0.00580940       0.00285564      -0.00813650
H        1.79342199       6.84930614      -0.89455582       0.00468518      -0.00325432      -0.01578680
H        1.89739841       7.67451070       0.65704691      -0.00457442       0.01065347      -0.02260853
H        2.96159040       6.31658377       0.31858054       0.00440760       0.01384930      -0.00982967
H        1.69987144       5.10493584       2.44911695       0.00819324       0.01373827      -0.00448027
O        9.12559879       4.77523191       3.37946532      -0.00173327      -0.01065333      -0.00771791
C        8.84930295       3.95471691       4.51129408       0.00220227      -0.00804182      -0.00286368
C        7.38916530       4.00106776       4.90910029       0.00268465      -0.00756329      -0.00150841
H        9.16806622       2.92190984       4.32461815       0.00196756      -0.00812149      -0.00211844
H        9.48075021       4.34734354       5.31101951       0.00306655      -0.00627430      -0.00528088
H        7.20468103       3.38451005       5.79124052       0.00397669      -0.00766473      -0.00142080
H        7.08488385       5.02739178       5.12118069       0.00317325      -0.00746301      -0.00124925
H        6.75979453       3.61988252       4.10025709       0.00182748      -0.00757030      -0.00071377
H        8.54375093       4.49913072       2.66484133      -0.00080669      -0.01022577      -0.00180817
O       13.71292523       7.91708820       3.01511655      -0.01148257       0.00348198      -0.00519355
C       12.31517676       7.99279096       2.60947715      -0.01407436      -0.01046735       0.00145069
C       11.49067429       6.75863538       2.84930386       0.00201154      -0.01890057       0.00836238
H       11.87927563       8.81998235       3.18412472      -0.01981906      -0.01507190       0.00328335
H       12.27740921       8.25038621       1.53311800      -0.02235838      -0.01325217       0.00209476
H       10.45865077       6.97458021       2.57474189      -0.00158650      -0.02991076       0.01526875
H       11.83815474       5.91000364       2.26502733       0.00659609      -0.01571284       0.00656658
H       11.48790386       6.48783141       3.90173125       0.01198502      -0.01756798       0.00866818
H       14.09785807       6.99203403       2.71106309      -0.00439453       0.00623342      -0.00721323
O        3.83697384       7.60719068       8.00582632       0.00448464      -0.00114495       0.00290628
C        2.89363976       8.65664584       8.20460675       0.00309190       0.00054675       0.00408712
C        1.81573349       8.65709417       7.13877041       0.00449598      -0.00075378       0.00236222
H        2.44385584       8.58296899       9.20310110       0.00108035      -0.00498278       0.00330088
H        3.46924521       9.58357016       8.17458236       0.00011347       0.00006008       0.00794440
H        1.10832760       9.47160429       7.31207061       0.00244091      -0.00254281       0.00307053
H        2.25541190       8.77179227       6.14670157       0.00584140       0.00357155       0.00342828
H        1.25192052       7.72090740       7.14929528       0.00665635      -0.00167502      -0.00128221
H        3.38124258       6.74922303       8.07006740       0.00839213       0.00349671      -0.00123867
O        8.26045588       0.04067574       4.12227392       0.00387406      -0.00014692      -0.00301009
C        7.57202694       0.53579152       2.96043708       0.00860250      -0.00930631      -0.00855938
C        6.09285090       0.58417377       3.25538533       0.00705785      -0.01141312      -0.01719823
H        7.95370896       1.53154446       2.70343411       0.00732976      -0.00975689      -0.01322860
H        7.76484933      -0.12977086       2.11439573       0.01424685      -0.01386505      -0.00376049
H        5.54279702       0.89941549       2.36960954       0.01150790      -0.01887984      -0.02243927
H        5.73043012      -0.40611051       3.53338603       0.00796456      -0.01053101      -0.01289398
H        5.87753420       1.28044262       4.07031285       0.00113094      -0.00748353      -0.02226350
H        7.71597253       0.26597600       5.50210578       0.00104006       0.00562353      -0.00663960
O       10.63765987      11.34323540      12.30194424      -0.00311154       0.00206435       0.00988764
C        9.44077044      12.07453918      12.58655101      -0.00099884       0.00494173       0.00503564
C        9.69121528      13.55347712      12.80050039      -0.00020596       0.00561512      -0.00180481
H        8.69904781      11.92607260      11.79666186      -0.00237319       0.00121544       0.00741303
H        9.02187122      11.62498939      13.48693952      -0.00070699       0.01017572       0.00815305
H        8.74510559      14.04572967      13.03648985       0.00035940       0.00593676       0.00024340
H       10.38976680      13.72117771      13.62158619       0.00240043       0.00890128      -0.00493766
H       10.11113795      14.01136348      11.90008464      -0.00362433       0.00207532      -0.00510468
H       10.98086064      11.67472950      11.46762440      -0.00168915      -0.00092551       0.00515391
O       12.36508068      11.31778310       2.80855545      -0.01353908       0.00402781       0.01376951
C       11.31295785      11.06442696       1.88104846      -0.00260633       0.00801098       0.00059310
C       10.03335741      10.60308424       2.56169011      -0.01030838       0.00557233      -0.01804003
H       11.13392268      11.96211077       1.28422001       0.00325657       0.00957495       0.00129238
H       11.62906811      10.31255043       1.12973650       0.00828628       0.00989142       0.00332576
H        9.34704104      10.17810624       1.83128755      -0.00609225       0.02144010      -0.03060360
H       10.22487847       9.84846827       3.32506569      -0.02105135      -0.00763427      -0.02910890
H        9.53002194      11.43101234       3.05924073      -0.01098669       0.00001542      -0.00968678
H       11.50785222      12.77959877       3.53211987      -0.00467969      -0.01278888       0.01419718
