199
Lattice="13.933771418334649 0.0 0.0 0.0 13.933771418334649 0.0 0.0 0.0 13.933771418334649" Properties=species:S:1:pos:R:3:forces:R:3 energy=-564710.0 stress="-0.00035983853740617633 8.746274397708476e-05 0.00047280934813898057 8.746274397708476e-05 -0.0014018274378031492 -0.0002519614790799096 0.00047280934813898057 -0.0002519614790799096 -0.0002987331827171147" pbc="T T T"
Lu      10.42382403      14.11098809       1.59079883       0.00066517       0.01843444       0.02549003
N       10.35353367      16.08974343       2.74801858       0.08912420       0.03153929      -0.00896889
C       11.17970160      16.31612452       1.94464248       0.05365628       0.02036336      -0.04996675
N        8.30961003      12.92695666       8.05251707      -0.02613536       0.00122732      -0.03014863
C        7.21550832      13.25751056       7.81672123       0.00965576      -0.03239249      -0.03509308
N        7.53250674      13.40194750      13.98282861       0.02021241       0.00300623       0.02976286
C        8.32782050      13.71197219      14.77208175      -0.00562972       0.03290360       0.01936951
O        7.54815442       4.37142378       7.63364453      -0.00499524       0.00067014       0.00272068
O        5.60361991       5.45175777       7.45069341      -0.00759482      -0.00594423       0.00586760
C        7.62237227       6.50391060       6.65964952      -0.01313275       0.00218761       0.00271228
C        6.80809248       5.41753507       7.28004501      -0.00780696      -0.00086713       0.00394332
H        8.39020111       6.82657516       7.36531056      -0.01367915       0.00622306       0.00135203
H        8.11782885       6.11415595       5.76859782      -0.01273288       0.00358351       0.00244617
H        6.99177334       7.34044433       6.38100913      -0.01718010      -0.00083096       0.00276115
H        7.04428822       3.73146888       8.21548468      -0.00583559      -0.00060792       0.00114483
O        7.03173618       5.63946629      10.11205818       0.00363714      -0.00343762       0.01820871
O        6.80211123       6.44057428      12.18039442       0.00909612       0.03912476       0.00229001
C        4.84809286       5.71139096      10.98371285       0.00997180      -0.00948466       0.03602801
C        6.30666758       5.95367163      11.17679285       0.00805444       0.01146647       0.01628822
H        4.42247569       6.65128986      10.62181215      -0.00383244      -0.02318230       0.01810180
H        4.66146442       4.95696359      10.22340688       0.01267698      -0.02851598       0.05533989
H        4.38557545       5.46122795      11.93400191       0.02144141       0.00804291       0.04627717
H        7.96114048       5.95983862      10.23769341      -0.00058994       0.01561439       0.00207752
O        0.99573966       2.36997916       6.40648365      -0.00208414      -0.00097150       0.00277742
O        0.07207235       3.02551497       4.47855830      -0.00106010       0.00944163       0.00599331
C        1.78827381       4.38193110       5.46845009       0.01127368      -0.00528920       0.00414370
C        0.88156108       3.20982689       5.37572007       0.00244457       0.00176103       0.00447908
H        1.37813049       5.07840302       6.20278007       0.01776886      -0.00361273       0.00616482
H        2.77291932       4.11051247       5.84296937       0.00989571      -0.01303809       0.00179383
H        1.85380164       4.88545599       4.51157927       0.01266423      -0.00386354       0.00491852
H        0.19856625       1.81621715       6.42612926      -0.00859970       0.00852802       0.00559327
O       10.57222132      12.13517912       9.03521306       0.00897825       0.03618133      -0.01906139
O       11.54081210      11.38733581       7.16366536      -0.03559171       0.00099862      -0.02782083
C       12.26514638      10.48359378       9.26095602       0.00128275       0.02651459      -0.03260338
C       11.40212048      11.42020658       8.42540583      -0.00934720       0.02124399      -0.02579552
H       12.37302359      10.84466081      10.28112225       0.00415910       0.02481388      -0.03232068
H       11.77183491       9.50835208       9.31386454       0.01018136       0.02203864      -0.03412386
H       13.24417558      10.32806565       8.81094926      -0.00000072       0.03636057      -0.03912839
H        9.28673270      12.63756804       8.35720770       0.00182875       0.01181228      -0.01846385
O        7.89200298       8.36250660       3.68373957       0.00038122       0.00589043       0.00312489
O        7.38704637      10.45505978       3.05530448      -0.00683747       0.00434744       0.00364560
C        7.62607613       9.96322575       5.39838276       0.00513163       0.00667036       0.00283164
C        7.61694443       9.65381093       3.93611441      -0.00090644       0.00575790       0.00316685
H        6.67223806       9.63108372       5.81472083       0.00394902       0.01367223       0.00554490
H        8.42757074       9.43154223       5.90878386       0.00288801       0.00155336       0.00079603
H        7.71570984      11.03195512       5.56334803       0.01194951       0.00612006       0.00240090
H        7.67921654       8.16871349       2.74664744      -0.00325634       0.00462216       0.00426814
O        2.25949346       2.58765126       2.65034948      -0.01661807      -0.00125418      -0.00681806
O        2.77493900       4.75265137       2.45537817      -0.00267276      -0.00472224      -0.00867252
C        4.55684608       3.13710593       2.52097207      -0.01369035      -0.01657942      -0.02320229
C        3.13907653       3.60323464       2.52180112      -0.01034737      -0.00731063      -0.01174564
H        4.75063367       2.57538539       3.43583484      -0.01341316      -0.03171623      -0.03305221
H        4.73788831       2.46767565       1.67801031      -0.02164927      -0.00410780      -0.03472900
H        5.22063730       3.99109378       2.45399720      -0.00863880      -0.01998028      -0.01477424
H        1.37687546       2.97274136       2.79624343      -0.01319343       0.00411630      -0.00072498
O       11.71883653       8.99861468       6.47475113      -0.02791063      -0.01033491      -0.01475251
O       12.73003332       9.66949026       4.59428464       0.00824392      -0.02765822      -0.00074220
C       11.28371451       7.74980935       4.53147669       0.00609094      -0.02543139      -0.01165241
C       11.99529741       8.89581658       5.18309779      -0.00377119      -0.02130204      -0.00882711
H       11.63537344       6.80419291       4.94131181       0.00226760      -0.02270794      -0.00236534
H       10.21803061       7.81516547       4.75397046       0.00322235      -0.02609355      -0.02639436
H       11.45571545       7.75856045       3.45985305       0.02060427      -0.02985549      -0.00918391
H       11.88000711       9.97438839       6.76534574      -0.03003040      -0.01255845      -0.01867538
O       10.61128424       7.49216248      13.31358056      -0.01025373      -0.00241750       0.00490689
O       11.86733023       9.26754046      12.76740962      -0.02236958       0.00383377      -0.00121325
C       12.34003371       7.13206869      11.76036225      -0.00913608       0.00392121       0.00534359
C       11.61624135       8.08890548      12.64922416      -0.01472792       0.00216097       0.00282614
H       12.70307618       6.28031980      12.33816700      -0.00328243       0.00862567       0.00862433
H       11.64388829       6.75206345      11.00988244      -0.00681411      -0.00371634       0.00728823
H       13.16372977       7.64398205      11.27040413      -0.01286271       0.00735679       0.00279317
H       10.22626564       8.15825232      13.89982239      -0.01235804      -0.00397533       0.00503719
O        9.03833714       2.78489863       5.48488274      -0.00825942      -0.01007384      -0.01236026
O        7.52580103       4.03663283       4.40363325      -0.00453813       0.00593817       0.00259757
C        6.78490330       2.09862555       5.62578044      -0.01207381       0.00589222      -0.00243908
C        7.78377971       3.08049353       5.10638704      -0.00746930       0.00105381      -0.00364876
H        6.55873431       1.37957535       4.83515250      -0.00942528      -0.00113676       0.00234781
H        7.15689878       1.54060105       6.48115680      -0.01509649       0.01054266       0.00184034
H        5.85639771       2.60991871       5.87209775      -0.01218301       0.00774343      -0.01006366
H        9.63768551       3.40200848       5.03467146      -0.00483381      -0.01120040      -0.00921595
O        4.27065333       7.63965157       8.31002164      -0.00069827      -0.01642087       0.01567641
O        2.56069974       7.21727855       6.92420974       0.00976619      -0.00201070       0.00041008
C        2.28759317       8.86763313       8.65125684       0.00239477      -0.01062506       0.00940752
C        3.02802583       7.83210343       7.86111301       0.00347813      -0.00946724       0.00863272
H        2.26677431       8.59427289       9.70671616       0.00261890      -0.01061040       0.00934049
H        2.80438271       9.82082697       8.55494064       0.00382318      -0.01127020       0.00933578
H        1.27522490       8.96147218       8.26922617       0.00248241      -0.00825737       0.00979254
H        4.68741135       6.87873710       7.83251392      -0.00129899      -0.01447676       0.01123264
O       11.79829328      13.66074529      11.49415834       0.01068296       0.02064264       0.03639305
O       11.24634588      13.60475851      13.63575623      -0.00480442      -0.00746949       0.03145066
C       10.32502093      11.94344730      12.16145171      -0.00025538       0.01759014       0.00075319
C       11.13945682      13.11802585      12.48177902       0.00168145       0.00919646       0.02371483
H       10.19379923      11.85643096      11.08219358       0.00968501       0.02894530      -0.00102824
H       10.86704673      11.05801215      12.52147312      -0.00950900       0.01146138      -0.00175846
H        9.37406032      11.99967613      12.69545232      -0.00497955       0.01590088      -0.00803080
H       12.30504667      14.42709884      11.81273876       0.01171839       0.01366913       0.05093831
O        4.99413577       8.84242261       3.88175622      -0.00508554      -0.00484717       0.01687437
O        3.31622503       7.79328043       2.84764259       0.00500119      -0.00232804      -0.00220025
C        4.75102070       6.54880492       4.33218264      -0.00091574      -0.00917774      -0.00354993
C        4.25954276       7.74721733       3.60225240       0.00036621      -0.00461203       0.00365782
H        5.82832790       6.43731342       4.21002627       0.00046101      -0.00348064       0.00529546
H        4.54560207       6.67685379       5.39638979      -0.01180550      -0.02073116      -0.00440466
H        4.23099839       5.67347573       3.96516336       0.00623773      -0.00741923      -0.01770295
H        4.59352773       9.60664986       3.43441455      -0.00125068      -0.00219199       0.01777273
O        9.09369120       3.30415820       9.83382621      -0.00794494      -0.01359043      -0.01128048
O        6.96286798       2.65930899       9.51897144      -0.01207447      -0.00239039      -0.00439006
C        8.11449100       1.96993079      11.51101493      -0.00665621      -0.01604635      -0.01255953
C        7.97333013       2.66578694      10.19958058      -0.00870371      -0.00931849      -0.00844973
H        8.67433713       1.04631034      11.34341244      -0.00834477      -0.01584959      -0.01918172
H        8.68687852       2.58241015      12.20770084      -0.00288713      -0.02157883      -0.01077126
H        7.13795387       1.72063851      11.91512386      -0.00547293      -0.01626614      -0.01001086
H        8.95214229       3.71625633       8.96421423      -0.01058677      -0.00732645      -0.00777245
O        4.57615850       9.00862220       0.70772991      -0.00364932       0.00451654       0.00908244
O        2.96581728      10.56236193       0.85609826      -0.01114810       0.00146526      -0.00869268
C        5.22399611      11.25559866       0.36533295      -0.01174414       0.00187826      -0.01649809
C        4.12068759      10.29631579       0.65816095      -0.00983071       0.00176290      -0.00489710
H        5.94102743      11.24581685       1.19060188      -0.01087102       0.01415844      -0.01516072
H        5.77584331      10.95726746      -0.52628079      -0.00681242      -0.00749266      -0.01146756
H        4.82836592      12.25641441       0.23062088      -0.01137070      -0.00594985      -0.03223604
H        3.86831670       8.44185192       1.07671106      -0.00438276       0.00922957       0.01438768
O        2.16205786       4.15582091      13.69550273      -0.00938633       0.00413764      -0.01239327
O       -0.02615655       4.66221222      13.66932498      -0.00825518       0.00530356       0.01403054
C        0.63843308       2.36356561      13.40532644      -0.01245645       0.00813401      -0.01825234
C        0.84300946       3.83454219      13.60508750      -0.00789398       0.00659525      -0.00593492
H        0.73226169       2.15080824      12.33682654      -0.00498803       0.01661846      -0.01951477
H        1.38802955       1.78255151      13.94147188      -0.01671304       0.00299826      -0.01763290
H       -0.36234017       2.11169186      13.75075422      -0.01526324       0.00896328      -0.02530731
H        2.23760017       5.06742112      14.02666993      -0.00692123       0.00106686      -0.00518146
O        8.16072934       8.53843760      11.30181668       0.01177365       0.02369326      -0.00922942
O        9.21749667       7.10036159       9.94551925      -0.01470059       0.01253164      -0.01759042
C        8.75577652       9.31829146       9.16546988       0.01531807       0.02063525      -0.00932193
C        8.76291440       8.21749842      10.16808878       0.00211313       0.01860029      -0.01199992
H        7.76216158       9.31933453       8.70701448       0.01639935       0.03185534      -0.01138984
H        8.89681079      10.29416474       9.62162023       0.02344614       0.01788422      -0.00608449
H        9.49685588       9.13657658       8.39213840       0.01426244       0.01486792      -0.00881325
H        7.95125390       7.71543304      11.81404602      -0.00048846       0.02456546      -0.01126719
O        3.08973639       2.82706572      11.40471690       0.01699424      -0.00622958       0.00573462
O        4.87537366       1.81245104      12.29844956      -0.00481737      -0.02630781       0.02800202
C        3.92764964       0.95498929      10.24987245       0.02791434      -0.00268358       0.00773597
C        4.05501139       1.88647863      11.41484295       0.01141793      -0.01195356       0.01479268
H        3.16168729       0.21427144      10.49445041       0.03882056      -0.01340012       0.00363328
H        3.59082293       1.48671360       9.36281647       0.02913417       0.00333132       0.01051986
H        4.86769564       0.45117617      10.04892449       0.03266770       0.00642650       0.00699781
H        3.14568542       3.32692507      12.23969235       0.00689310      -0.01165919       0.00951523
O        3.74884226      11.33960765       4.37546436       0.01123112       0.00563294       0.00982803
O        3.75231312      10.58095430       6.48203777      -0.00870389       0.01773252       0.01278692
C        1.91447181       9.99502927       5.03680896       0.00898182      -0.00104234      -0.00074263
C        3.20924563      10.63468803       5.40757988       0.00230312       0.00838444       0.00699753
H        1.09658508      10.59300524       5.44605082       0.00113103      -0.00350514      -0.01234505
H        1.78004066       9.93255924       3.96005869       0.01938458      -0.00704544      -0.00163829
H        1.85170524       9.00794820       5.49134039       0.00834584      -0.00001249       0.00276339
H        4.50524125      11.83448793       4.73070291       0.00499469       0.01032773       0.01746431
O        6.85400612       7.53408357       1.15170841      -0.00667372      -0.00003338       0.01175364
O        5.17336662       6.08825842       0.80371693       0.00863314      -0.01215698      -0.00945047
C        7.40477299       5.22410467       1.05092711       0.01336753       0.00599718       0.01024244
C        6.35097821       6.27936486       0.97030438       0.00526786      -0.00292306       0.00298539
H        8.29762108       5.53208927       0.50982527       0.01289816       0.01255539       0.01301482
H        7.67433450       5.05316128       2.09717398       0.01062482       0.01259190       0.01193443
H        7.01366659       4.29662309       0.64094683       0.02189507       0.00212461       0.01095450
H        6.11148414       8.16477298       0.99695215      -0.00858048      -0.00406648       0.00676683
O        2.22068921       3.93223472       8.54892557      -0.01291662      -0.01028514       0.00935075
O        0.47602049       3.07266901       9.67864441      -0.00090903      -0.00589931       0.03090781
C        0.78201720       5.46161372       9.58659742      -0.00181004      -0.00692064       0.01928127
C        1.10554403       4.02731632       9.30004430      -0.00489062      -0.00750089       0.02007800
H        1.47835206       5.84139905      10.33748726       0.00308543      -0.00657322       0.01443809
H        0.91001149       6.06730795       8.68938718      -0.00698647      -0.00851415       0.01759405
H       -0.22942267       5.53712641       9.96942311       0.00077359      -0.00556774       0.02540806
H        2.31520612       3.00160463       8.30142153      -0.01513314      -0.01079583       0.01051635
O       10.39751587      11.16205603       4.56784256       0.00573337      -0.00922847       0.01906037
O       10.97390764      12.70207505       3.06484838      -0.02055478       0.01072446       0.02694388
C       10.53458523      10.47524620       2.31577839       0.00296080       0.00822628       0.01700212
C       10.64328903      11.52096103       3.35519780      -0.00484801       0.00407895       0.02276000
H        9.93750068       9.63338015       2.65175360       0.00628014       0.00343618       0.01155210
H       10.11913659      10.88780744       1.39329239       0.00525171       0.00950100       0.01726514
H       11.54747984      10.10648363       2.10924174       0.00450248       0.01141070       0.01940536
H       10.72336236      11.76056146       5.28479667       0.00032470      -0.02315217       0.03686059
O        2.93958568      13.62639858       2.34616673       0.00808638      -0.00198466      -0.00948691
O        3.66956057      14.27632101       4.36394761       0.01617706       0.00550428      -0.01402456
C        1.38996051      13.54099118       4.11253996       0.01492941       0.00907969      -0.00299117
C        2.78115464      13.85833383       3.65868073       0.01303363       0.00488126      -0.00994352
H        0.75055840      14.40032233       3.90005107       0.01431695       0.00797737      -0.00448459
H        0.99347649      12.68074642       3.57819522       0.01394839       0.00707552       0.00059803
H        1.38757854      13.36451225       5.18448178       0.01932858       0.01228026      -0.00250593
H        3.84380893      13.88790428       2.12011643       0.00833285      -0.00680180      -0.01446868
O       11.67918653       4.38236364       5.27594192      -0.01542649      -0.02101493       0.01010835
O       12.32582261       3.17882448       7.06037960       0.00783241      -0.00291824       0.01337269
C       11.38210999       5.35988114       7.41191517      -0.01876824      -0.01427710       0.00606549
C       11.83813705       4.18428440       6.60892292      -0.00708988      -0.01171774       0.00973338
H       12.14401915       6.14196468       7.35042463      -0.02849258      -0.00552252       0.00201919
H       10.46715475       5.78962904       7.01058050      -0.02256784      -0.02357291       0.00567566
H       11.25462864       5.07398586       8.45125928      -0.01218944      -0.01007234       0.00785096
H       12.20551235       3.69774845       4.81767444      -0.01081154      -0.01776749       0.01076368
O        0.93874716       7.40669494       0.91769164       0.00807607       0.02254839      -0.01795322
O       -1.06344151       8.15460236       1.57199281      -0.01073444      -0.02788520      -0.02123281
C        0.32165398       6.99555787       3.16575498       0.00389396      -0.01644513      -0.02677286
C       -0.02950597       7.58186932       1.84009495      -0.00088090      -0.01003456      -0.02227384
H       -0.30943031       6.12067653       3.33626835      -0.00052869      -0.01260394      -0.02382895
H        1.36679402       6.71496897       3.20406431       0.00268406      -0.02129570      -0.03232010
H        0.08877028       7.72985571       3.93449119       0.01213381      -0.01613936      -0.02387893
H        0.60855106       7.81497570       0.10464183       0.00721651       0.03028782      -0.01359800
