198
Lattice="13.518739176137064 0.0 0.0 0.0 13.518739176137064 0.0 0.0 0.0 13.518739176137064" Properties=species:S:1:pos:R:3:forces:R:3 energy=-1157429.125 stress="4.934629941999447e-06 -0.0003571661654859781 0.00010808005026774481 -0.0003571661654859781 -0.0013436428271234035 2.6398284717288334e-05 0.00010808005026774481 2.6398284717288334e-05 -7.110864771675551e-06" pbc="T T T"
Md      12.14159644      12.15395999       1.19431157       0.00136057      -0.00678250       0.00792185
B        9.29855224      12.76500722       7.22262508       0.00230202       0.01081164      -0.00302669
F       10.29893978      12.01113460       7.84311855       0.00267601       0.00962406      -0.00518382
F        9.89321700      13.68531954       6.32188722       0.00136918       0.00896907      -0.00525242
F        8.45062999      11.90730014       6.50494601      -0.00118721       0.01173252      -0.00005984
F        8.55590808      13.47342002       8.17566342       0.00615150       0.01255608      -0.00140893
B        5.29219213      11.70071834       3.62739398       0.00324178       0.00066476       0.00218023
F        4.60431894      12.56398368       4.49268492       0.00292718       0.00171548       0.00017083
F        4.35248857      11.04296185       2.80276467       0.00511593       0.00206095      -0.00024980
F        6.17412610      12.43052742       2.82270702       0.00691855      -0.00065285       0.00428730
F        5.99994379      10.75820043       4.37537493       0.00034559      -0.00036907       0.00406408
B       10.62333174      12.05600797      12.07798221       0.02379486      -0.00981819      -0.00339025
F       11.04513570      12.45233672      10.86417536       0.04645665      -0.01454602      -0.00002360
F        9.37375722      11.51942064      12.11873401       0.02106261       0.00160512      -0.02146840
F       11.57684571      11.10760027      12.65122662       0.00840589      -0.01432258       0.01040578
F       10.71184509      13.15527511      13.03758433       0.02017391      -0.00734286      -0.00659096
O       12.96197668       8.34901096       2.24106017      -0.00278988      -0.00533288      -0.00094402
C       12.02299017       6.89820926       0.65375584       0.00331994      -0.00671983      -0.00180888
C       11.31454498       8.24514927       0.51868341       0.00229335      -0.00794437      -0.00497669
C       12.56045754       6.98758406       2.07262209      -0.00489162      -0.00427413       0.00078246
C       12.23986249       9.15905462       1.31664141      -0.00186303      -0.00600534      -0.00244239
H       11.35867877       6.04776622       0.49958684       0.00124304      -0.00777142      -0.00178621
H       12.84705008       6.82744273      -0.06019949       0.00382668      -0.00973270       0.00250497
H       11.18858938       8.58490747      -0.50708639       0.00914081      -0.00820311      -0.00876725
H       10.32876941       8.19888664       0.98727314       0.00081384      -0.00671488      -0.01343785
H       11.77650753       6.74219792       2.80189969      -0.00614744      -0.00253525      -0.00217462
H       13.42933183       6.35663819       2.26607297      -0.00419196      -0.00549440       0.00529300
H       12.96405135       9.66257534       0.66692188      -0.00106174      -0.00288863       0.00165847
H       11.66468464       9.90660117       1.89376603      -0.00707220      -0.00828312      -0.00371487
O       12.56283769       0.97533238       1.69529069      -0.00558710      -0.00593362       0.00566517
C       11.11739968       2.58496710       0.68032023      -0.00090471      -0.00256094       0.00412044
C       10.49643281       1.99982040       1.96216991      -0.00545543      -0.00858820       0.00001980
C       12.49201284       1.90023818       0.58375142      -0.00410637      -0.00464455       0.00616431
C       11.70972822       1.51735167       2.72705821      -0.00390285       0.00421833       0.00066188
H       10.50513644       2.37973141      -0.19532845      -0.00272679      -0.00566246       0.00013387
H       11.24209317       3.66577258       0.75907275      -0.00254483      -0.00612414       0.00098191
H        9.91424160       2.72215863       2.52828594      -0.00537440       0.00033472       0.00193670
H        9.85066477       1.15233964       1.72687163      -0.00489408       0.00012010       0.00259739
H       12.62687928       1.32240335      -0.32793977      -0.00240260      -0.00733942       0.00435394
H       13.31782892       2.60994378       0.68024047      -0.00314954      -0.00615257       0.00465970
H       12.24253714       2.34062094       3.21741191      -0.00861499      -0.00684127       0.00422906
H       11.51396912       0.73251262       3.45567234      -0.00947893      -0.00721556       0.00629807
O        5.42736451       3.37695425       7.66156953      -0.00032943      -0.00568511      -0.00219664
C        7.29822053       4.19991639       6.50279721      -0.00059626      -0.00341846      -0.00070655
C        7.67074401       2.83770311       7.09081864       0.00050843      -0.00359577      -0.00178774
C        6.13965092       4.59240388       7.40240547      -0.00098819      -0.00521798      -0.00085011
C        6.30216523       2.25342260       7.41696607       0.00140041      -0.00471102      -0.00037654
H        8.10622412       4.93089259       6.53481638      -0.00176203      -0.00321016      -0.00156666
H        6.95469707       4.09787144       5.46946264      -0.00135550      -0.00405905      -0.00121415
H        8.24604789       2.18611627       6.43539294       0.00086558      -0.00260484      -0.00137953
H        8.25299886       2.96791327       8.00640063       0.00096886      -0.00289173      -0.00152522
H        6.51549416       5.01627035       8.34317919      -0.00088614      -0.00602022      -0.00019962
H        5.44767587       5.31114340       6.95803481      -0.00135693      -0.00498784       0.00033745
H        5.89871680       1.68106678       6.57542764       0.00187716      -0.00646257       0.00016028
H        6.30968103       1.59977212       8.28985007       0.00234455      -0.00343391       0.00015211
O       10.23044400      12.02295317       2.54470353      -0.01014812      -0.00124288       0.00078895
C        8.57728870      10.30117031       2.67959623      -0.02800632       0.02878812       0.02675048
C        9.46867212      10.30732953       3.93066255       0.02515821      -0.00903243      -0.01931661
C        9.14786034      11.40454553       1.78784720       0.01822452      -0.02774072      -0.01293582
C        9.99106243      11.72509583       3.95097255      -0.00947135       0.00847968       0.00071573
H        8.57299537       9.33937180       2.17125982       0.01714486      -0.02593085      -0.00968653
H        7.55645970      10.54572790       2.95534374       0.01782531      -0.02801628      -0.00469252
H        8.91632431      10.09275283       4.84189065      -0.00767438       0.00046634       0.01696134
H       10.30002758       9.60082138       3.83824766      -0.00553161       0.01142676       0.00965610
H        9.57917923      11.03308321       0.85785774      -0.02940334       0.02017482       0.01056528
H        8.40613742      12.16627851       1.55133128      -0.03137359       0.01501891       0.01926047
H        9.24860401      12.42040346       4.33861631      -0.00306100       0.00077361      -0.00424030
H       10.92541470      11.87128484       4.48991367      -0.00244531       0.00730466      -0.00196518
O        4.77839153       2.04672824       2.05396426       0.00020427       0.00242165      -0.00181109
C        3.52718484       3.66479831       3.22508842      -0.00536951      -0.00067997       0.00151700
C        3.99518988       2.60147592       4.21630761       0.00642154       0.00506841       0.00072879
C        3.67342074       2.93343578       1.89993587       0.00227004       0.00501707      -0.00220144
C        5.15429353       1.98998709       3.44821727       0.00084344      -0.00536329      -0.00128031
H        2.51190969       4.02204757       3.39954120       0.00459935       0.00012603       0.00175253
H        4.20983488       4.51351334       3.24996746       0.00305957       0.00387260       0.00055687
H        4.29906626       3.00305249       5.18360309       0.00388981      -0.00030422      -0.00217035
H        3.21447229       1.85859767       4.38992953       0.00186002      -0.00029236       0.00094666
H        2.76775003       2.35289344       1.67467240      -0.00075364       0.00248379       0.00056396
H        3.86510748       3.60081599       1.05423918      -0.00085624       0.00208706       0.00180593
H        6.05484591       2.59634925       3.59315490       0.00353742       0.00201473      -0.00291397
H        5.37324141       0.95685908       3.70112059       0.00127090       0.00458181      -0.00350222
O        6.75401150       5.29878260       3.05353250      -0.00197667       0.00151483       0.00119089
C        8.61993691       6.74209099       3.07610497      -0.00267556      -0.00101089       0.00002304
C        9.10037086       5.31224911       3.30046266      -0.00329286      -0.00052048       0.00367996
C        7.14680169       6.62661462       3.44024369       0.00022531      -0.00149290       0.00870215
C        7.91778138       4.52083327       2.75868416      -0.00232732       0.00388508      -0.00488578
H        9.14534117       7.48448140       3.67421632       0.00063132      -0.00054801       0.00864772
H        8.72547299       7.00588484       2.02006314      -0.00197540       0.00385085       0.00787267
H       10.03428496       5.08108226       2.78635260      -0.00125353       0.00048070      -0.00340466
H        9.23747439       5.12450868       4.36834020      -0.00077659      -0.00420634      -0.00336972
H        6.99417221       6.74618703       4.51891696      -0.00022858      -0.00397111       0.00484568
H        6.51230330       7.34669179       2.92095905      -0.00193268       0.00293666       0.00771737
H        7.99734416       4.38744734       1.67091155      -0.00379314       0.00542446      -0.00168449
H        7.80690472       3.53547057       3.21414846      -0.00286776      -0.00067639      -0.00473371
O       13.65227448       2.67387515       9.26969749       0.00137967       0.00349179       0.00279036
C       11.64514243       1.87482370      10.24667717      -0.00090486       0.00506574      -0.00001609
C       11.80546720       1.25647980       8.85936135       0.00069308       0.00662214      -0.00012994
C       12.63209473       3.03651315      10.20415774       0.00019270       0.00754040       0.00009254
C       13.29640603       1.42649396       8.64440390       0.00259858       0.00367141       0.00231980
H       10.62424639       2.18720633      10.46505522      -0.00297394       0.01128573      -0.00596738
H       11.93607048       1.14138926      10.99897623      -0.00818987       0.00944993      -0.00059055
H       11.47513342       0.22228450       8.80729629      -0.00004822       0.00502235       0.00055884
H       11.23937298       1.81667674       8.11349789       0.00542079       0.00515652      -0.00265318
H       12.15260770       3.96116474       9.85860766       0.00444776       0.00574821       0.00096399
H       13.09888667       3.24895116      11.17293797      -0.00118324       0.00397320       0.00175476
H       13.85810962       0.61294718       9.12127323      -0.00032941       0.00283444       0.00855365
H       13.59386364       1.47839864       7.59534576       0.00504044      -0.00041406       0.00684458
O        6.51399069       5.66893928      10.77912526      -0.00152296      -0.00312221       0.00068153
C        4.53565867       4.76112959      11.67326331       0.00077486       0.00020877       0.00513601
C        5.44273909       3.60981995      11.23862592      -0.00380480      -0.00066423      -0.00179693
C        5.10136191       5.90155962      10.84190141      -0.00147641      -0.00349244      -0.00164029
C        6.79044560       4.31305778      11.16442706      -0.00243941      -0.00216141       0.00451521
H        3.47781195       4.58356129      11.48328549      -0.00321320      -0.00030243       0.00302554
H        4.66657873       4.96717467      12.73874213      -0.00075932       0.00032816       0.00012401
H        5.44945772       2.76741951      11.92910067      -0.00339976      -0.00241482       0.00451545
H        5.14903888       3.25601578      10.24741315      -0.00269201      -0.00168459       0.00483760
H        4.68540080       5.88678633       9.82687058      -0.00067113      -0.00316432       0.00127095
H        4.93649989       6.89212924      11.27046899      -0.00068620      -0.00038391      -0.00060678
H        7.28886990       4.32014165      12.14219345      -0.00293988      -0.00222692       0.00122601
H        7.47264497       3.87235904      10.43343942      -0.00191543      -0.00428890       0.00194737
O       10.36655833       5.92215328       7.19919140      -0.00315416       0.00108910      -0.00975104
C       12.38433714       6.03242824       6.00955497       0.00092575       0.00101052      -0.00384051
C       12.38440849       4.73075910       6.81019243      -0.00090641       0.00171378      -0.00271104
C       11.37832255       6.85486894       6.79582469      -0.00419667       0.00189425      -0.01086417
C       10.90655274       4.59073779       7.15882609      -0.00083113       0.00195478      -0.00238495
H       13.36214908       6.50731450       5.94032044      -0.00178140       0.00108448      -0.00443949
H       12.01513732       5.85489922       4.99555385       0.00140189      -0.00330513      -0.00578454
H       12.76111860       3.87106097       6.25741923       0.00117332       0.00213991       0.00245139
H       12.99280865       4.83030046       7.71115320      -0.00173457       0.00629001       0.00016820
H       11.84256235       7.30575465       7.68219172      -0.00540861       0.00401883      -0.00905627
H       10.89778212       7.65057369       6.22371182      -0.00225860      -0.00134450      -0.01225051
H       10.36939143       4.01838289       6.39392494       0.00106183      -0.00216332      -0.00189620
H       10.73070191       4.10542660       8.12107656      -0.00178455       0.00580008      -0.00176430
O        3.85971364       7.44354841       5.91998131      -0.00144508      -0.00140303       0.00698513
C        3.09072258       6.95183279       3.74764549      -0.00605965       0.00182275       0.00684661
C        2.89456044       8.44158725       4.00576015       0.00145727       0.00339416       0.00668192
C        3.21156010       6.41962599       5.16910570      -0.00255089      -0.00019765       0.00586271
C        3.86640337       8.66935731       5.15137520      -0.00096807      -0.00009127       0.00960493
H        2.27831296       6.49018302       3.18787853      -0.00486289       0.00505323       0.00775819
H        4.01946101       6.78357826       3.19705502      -0.00430158       0.00125421       0.00508304
H        3.12665267       9.07166993       3.15076837      -0.00053216       0.00223936       0.01028606
H        1.86492581       8.63982386       4.31643813      -0.00082183       0.00446093       0.01046482
H        2.21440285       6.22849759       5.59380537      -0.00311285       0.00067377       0.00676256
H        3.79325360       5.49973593       5.25584020      -0.00432694      -0.00018668       0.00394463
H        4.87512645       8.85415528       4.77961798       0.00187308      -0.00283861       0.00691730
H        3.58556733       9.49522376       5.80547910       0.00361931      -0.00163031       0.00832951
O        4.70834998      12.36769181       8.69334256       0.00020081       0.00023329       0.00210427
C        5.85389254      10.48298651       7.94061204       0.00610940       0.00429314      -0.00454143
C        6.48312350      10.88549808       9.28594306       0.00148672       0.00126469      -0.00092316
C        5.21365425      11.78412066       7.48577908      -0.00297177       0.00137413       0.00020994
C        5.72239957      12.17039505       9.67631135       0.00695944       0.00502652      -0.00428110
H        6.58394503      10.12566597       7.21785484       0.00175685       0.00758883      -0.00356519
H        5.08995893       9.71451583       8.07993812       0.00512385      -0.00006309      -0.00199114
H        6.37396035      10.10630008      10.03995040       0.00471721       0.00471476      -0.00440037
H        7.54393684      11.10380252       9.17636527       0.00631976       0.00333358      -0.00383346
H        5.96804247      12.43459700       7.03061288      -0.00523061       0.00446105      -0.00230137
H        4.38350085      11.66970261       6.79261471      -0.00382358      -0.00011655       0.00298724
H        5.22790120      12.10876763      10.64783575       0.00945228       0.00588410       0.00077784
H        6.40894510      13.02375066       9.68570879       0.00399500       0.00364816      -0.00848259
O        0.81359016      11.50412399       1.78666269       0.00318901      -0.00158879       0.00756750
C        2.46865114      13.13614972       1.40982820      -0.00124624       0.00036913      -0.00228944
C        2.00505960      13.22367453       2.88441522       0.00440896       0.00333154      -0.00076029
C        1.95156124      11.78486196       0.93609997       0.00051147      -0.00287917       0.00384532
C        1.22042900      11.93694277       3.10999991       0.00415568       0.00449160       0.00513211
H        2.02824502      13.94269549       0.82090611      -0.00187336      -0.00290954      -0.00344433
H        3.55008916      13.20512148       1.31947646      -0.00005448       0.00038767      -0.00437685
H        2.84621010      13.26742198       3.56936062       0.00382510       0.00761610      -0.00391972
H        1.37417227      14.09972782       3.03573461       0.00158545       0.00416651      -0.00279402
H        1.59977759      11.76058411      -0.09602506      -0.00258899      -0.00598029       0.00460723
H        2.69198356      11.00080178       1.09708780       0.00166237      -0.00065073       0.00384569
H        1.84288010      11.15572009       3.54502282       0.00783309       0.00610748       0.00692132
H        0.31458405      12.04378525       3.70970823       0.00702295       0.00471807       0.00628145
O        1.51200438      10.43558311       6.90569838      -0.00491332       0.00405619      -0.00235820
C        1.39026497      10.57569644       9.25218995       0.00016689       0.00596902      -0.00355589
C        0.69290794       9.28665594       8.81712821      -0.00510681       0.00754416      -0.00053674
C        1.33341571      11.38543914       7.96775135      -0.00673870       0.00498527      -0.00379807
C        1.21197620       9.11864276       7.39263534      -0.00392336       0.00432172      -0.00050682
H        0.88749980      11.07369551      10.08077726      -0.00164166       0.00823525      -0.00179389
H        2.43051083      10.39085790       9.53137124      -0.00266731       0.00877649      -0.00489217
H        0.92990956       8.42705778       9.44430062       0.00066531       0.00598034       0.00117229
H       -0.38938198       9.41953200       8.83350367      -0.00070119       0.00432963       0.00308006
H        0.35379624      11.86890983       7.86053718      -0.00618875       0.00305416      -0.00330242
H        2.12131176      12.13541477       7.89108843      -0.00668818       0.00670233      -0.00586253
H        2.12843129       8.51887297       7.36009953      -0.00807285       0.00372842      -0.00343876
H        0.47697973       8.65887931       6.72498364      -0.00942963       0.00543568       0.00073457
O       11.08138273       8.48523120       9.97291089       0.00406942      -0.00392011       0.00193150
C        8.94763015       8.39081310      10.89831325      -0.00193810      -0.00477979      -0.00895596
C        9.56370786       6.99540653      11.05877899      -0.00037605      -0.00330907      -0.00414178
C        9.74695573       8.95132320       9.73359586       0.00663972       0.00207015      -0.00145811
C       10.99307449       7.16541697      10.50929099      -0.00035194      -0.00689572      -0.00676057
H        7.87805407       8.34668967      10.70361991       0.00302836      -0.00170942      -0.01091321
H        9.11215478       9.00709182      11.78330945      -0.00184952      -0.00385557      -0.00417763
H        9.55048319       6.64970320      12.09343990      -0.00186124      -0.00302784      -0.00711250
H        9.00644813       6.27246293      10.46522431      -0.00260562      -0.00436208      -0.00651413
H        9.37248132       8.55520602       8.77952328       0.00895396       0.00015348      -0.00572681
H        9.78624066      10.03746471       9.67060226       0.00695339      -0.00342274       0.00010763
H       11.76582674       7.07626672      11.27676290      -0.00041941      -0.01424439      -0.00756076
H       11.20218978       6.42667518       9.72689764      -0.00465591      -0.00193799      -0.01088083
