182
Lattice="13.755769128245198 0.0 0.0 0.0 13.755769128245198 0.0 0.0 0.0 13.755769128245198" Properties=species:S:1:pos:R:3:forces:R:3 energy=-1138417.25 stress="-0.0006820680573582649 0.00011786459799623117 -1.8105049093719572e-05 0.00011786459799623117 0.0007331136730499566 0.00022209126473171636 -1.8105049093719572e-05 0.00022209126473171636 0.0009646703256294131" pbc="T T T"
Md      12.35809351      13.27587977       0.50930296      -0.00569955       0.00180718       0.00289740
P       11.44739809      12.70139058       7.90023008      -0.00569677       0.00620630      -0.00323953
O       11.49962717      13.22444344       6.31910163      -0.04103655       0.00216907      -0.00609148
O       10.61840423      13.84716048       8.63998739      -0.00426534       0.00058854       0.00979322
O       10.69500787      11.40735446       7.87679578       0.00488365      -0.00086498       0.01525071
O       12.84108348      12.75906415       8.42602980       0.00137043       0.01141419      -0.02825135
H       10.71861202      12.83998647       5.90621068      -0.04401621      -0.01092795       0.01372769
H        9.62860540      13.74265117       8.68312423      -0.00454581       0.00765742       0.00460747
P        6.86945017      13.01102854       9.18157102      -0.00870386       0.00163335      -0.03053758
O        6.73902703      12.80034009      10.79649216      -0.01637769       0.00687045      -0.02914643
O        7.23355746      11.52069542       8.70483831       0.01428241       0.00581157      -0.02305010
O        5.52810960      13.36964564       8.60656945       0.01412034       0.00022280      -0.04170543
O        8.02791777      13.93266755       9.01619496       0.00347352       0.01369810      -0.01494667
H        5.91889953      12.33983953      10.99712597      -0.01896673       0.00311163      -0.04344387
H        6.70116856      11.28441929       7.91823401       0.01934476      -0.00429954      -0.02664614
P        5.30610821      11.66778675       5.23457197      -0.03360690       0.02521418      -0.02454498
O        6.47703157      12.80549113       5.13908267       0.02379394      -0.00518626       0.00705668
O        5.23947890      11.37835251       6.83528270      -0.00070268      -0.01530874      -0.01843905
O        4.01289961      12.27033742       4.78965447       0.04455757      -0.00985265       0.00606179
O        5.84054000      10.44258539       4.58208938       0.01196384      -0.00990999      -0.01536465
H        6.17521256      13.61595722       5.56450292       0.02089382      -0.01401997       0.03543767
H        5.08148631      12.19043102       7.38529221       0.00945444      -0.01046973      -0.01227595
C        9.74049137      10.06241744      11.57767629      -0.00048625      -0.00256562      -0.00175315
C       10.42096720      11.30703088      11.02478690      -0.00384277      -0.00012207      -0.00022811
C        8.74478708       9.45327940      10.60190899       0.00054313      -0.00299560      -0.00282866
C       11.55641762      11.78717231      11.91756686       0.00034240      -0.00154929      -0.00524592
C        8.00135313       8.26163583      11.18519555       0.00413634      -0.00670615      -0.00555021
C       12.21472342      13.07262951      11.43308425      -0.00296694       0.00036123      -0.00502312
H       10.49813367       9.31052692      11.83978308       0.00162095      -0.00145242      -0.00513065
H        9.21932738      10.31005921      12.51258757       0.00001909      -0.00640920      -0.00048363
H        9.68725534      12.10758329      10.89656804      -0.00505742      -0.00035357       0.00554652
H       10.80652616      11.11655970      10.01858269      -0.00921762       0.00330248      -0.00306195
H        8.03982756      10.22004883      10.28047315      -0.00109270      -0.00390682      -0.00169803
H        9.27564266       9.16548724       9.69015936       0.00181291       0.00016848      -0.00318545
H       11.10722016      11.88292672      12.94081093       0.00614764      -0.00406348      -0.00240097
H       12.30779332      10.99360267      12.01040727       0.00151166      -0.00089025      -0.01034012
H        8.68357415       7.45547201      11.46961293       0.00710548      -0.00440846      -0.00609407
H        7.28244834       7.85090683      10.47414283       0.00685811      -0.00856464      -0.00713809
H        7.44850029       8.54527891      12.08449001       0.00140725      -0.01111730      -0.00583091
H       12.56330184      12.94862931      10.38880917       0.00077204       0.00246751      -0.00315279
H       11.51763117      13.91262490      11.40310776      -0.00584720      -0.00208153      -0.00594152
H       13.12294857      13.35706681      12.00000744      -0.00641829       0.00395987      -0.00142976
C        6.95117805       3.90254671      11.26451678       0.00161611      -0.00566864      -0.00501399
C        6.14423581       2.89084458      10.46068430      -0.00011204      -0.00328797      -0.00631026
C        8.11666594       3.27848143      12.02167069      -0.00111727      -0.00934982      -0.00375805
C        4.94847390       3.51899077       9.75464158       0.00228325      -0.00060028      -0.00800459
C        8.86769674       4.29092006      12.87546527       0.00021866      -0.01214057      -0.00155699
C        4.15181361       2.51919398       8.92880595      -0.00205138      -0.00013849      -0.00431183
H        7.33333563       4.68392128      10.59579472       0.00461191      -0.00629422      -0.00406632
H        6.29581889       4.41862652      11.97768053       0.00218399      -0.00426842      -0.00548723
H        5.79408157       2.09373630      11.12490668      -0.00279230      -0.00251323      -0.00677893
H        6.79195406       2.39024504       9.73507405      -0.00036317      -0.00459325      -0.00559106
H        7.73902148       2.46872618      12.65307138      -0.00432968      -0.00885627      -0.00504938
H        8.79225073       2.80436666      11.30459037      -0.00126895      -0.01060037      -0.00326917
H        4.29557133       3.98812935      10.50127298       0.00453866       0.00476862      -0.00936335
H        5.29903232       4.33458518       9.11147870       0.00549009      -0.00430608      -0.01109144
H        9.28645892       5.09084938      12.26119489       0.00302294      -0.01232761       0.00008799
H        9.69201104       3.83173345      13.42522519      -0.00179349      -0.01475859      -0.00077292
H        8.20381220       4.75862158      13.60704616       0.00006250      -0.01149949      -0.00195706
H        4.77456889       2.04529498       8.17114470      -0.00361946      -0.00865926      -0.00005184
H        3.78527076       1.70000435       9.54750779      -0.00906518       0.00641064       0.00024171
H        3.29696562       2.99363666       8.44301028       0.00164334       0.00207055      -0.00857177
C       11.24615190       7.91195138       7.16127928      -0.00281811       0.00356382       0.00738658
C       11.85685736       7.18372537       8.34884258       0.00021547       0.00135472       0.00451401
C       12.13016468       8.98794521       6.54788412      -0.00288004       0.00145447       0.00396313
C       10.97189231       6.05728690       8.87202519       0.00056410       0.00165379       0.00591968
C       11.41050436       9.69523750       5.41138262      -0.00673369       0.00349343       0.00711572
C       11.54911711       5.35601163      10.09398750       0.00297855       0.00019500       0.00403607
H       10.97721375       7.17738039       6.39112203      -0.00776768       0.00465611       0.00807530
H       10.31132091       8.38368980       7.47477727      -0.00036070       0.00594035       0.01142313
H       12.04677536       7.90577007       9.15047566       0.00359839       0.00000942       0.00497153
H       12.83298509       6.77217666       8.06989588      -0.00116935       0.00067264       0.00079987
H       12.37894695       9.73117714       7.30784261       0.00167230       0.00122926       0.00267786
H       13.06359742       8.53921944       6.18818694      -0.00527215      -0.00101633       0.00082956
H        9.98091543       6.45811349       9.10977248       0.00147736       0.00222096       0.00872162
H       10.81630456       5.32637226       8.07145525      -0.00197873       0.00235459       0.00574237
H       11.16781839       9.00097168       4.60384945      -0.01244877       0.00275877       0.00881277
H       12.01515258      10.50399957       5.00372416      -0.00480613       0.00016281       0.00268198
H       10.49051824      10.13858877       5.79219234      -0.00509149       0.00708131       0.01270390
H       12.54675151       4.96361649       9.88402444       0.00215915      -0.00039002       0.00137334
H       11.64116853       6.04821669      10.93428199       0.00551577      -0.00052688       0.00436832
H       10.92426336       4.52173973      10.41615423       0.00313787       0.00033446       0.00488326
C        2.64655523       9.77745448       2.83637507       0.00196642       0.00394797       0.00154981
C        3.94060175       9.89565743       2.05046553       0.00052616       0.00377786      -0.00016898
C        1.80420863      11.04523752       2.84393302       0.00107805       0.00377029       0.00191870
C        4.74754998       8.60645722       2.08789632       0.00212140       0.00569665       0.00064656
C        0.54784455      10.86437177       3.67926340      -0.00136727       0.00220788      -0.00043711
C        6.10608554       8.74694465       1.42190279       0.00256842       0.00736685       0.00287439
H        2.05035458       8.93581791       2.45611885       0.00013594       0.00388080       0.00416198
H        2.90337382       9.54152628       3.87385029       0.00224647       0.00591278       0.00179312
H        4.53970762      10.69214598       2.49683470      -0.00088742       0.00432953      -0.00170439
H        3.72731403      10.17076528       1.00921962      -0.00227646       0.00393736       0.00078082
H        2.42026097      11.84625387       3.26217412      -0.00039336       0.00431514       0.00461638
H        1.54395466      11.31364356       1.80851284       0.00166623       0.00599696       0.00199348
H        4.89481935       8.33328517       3.13462700      -0.00006605       0.00473068       0.00130343
H        4.17625276       7.79732635       1.61904412       0.00376165       0.00594130      -0.00069764
H       -0.07445155      10.05018374       3.29744903      -0.00059573       0.00220503      -0.00228478
H       -0.06898647      11.76321257       3.72483113      -0.00187773       0.00248064      -0.00150918
H        0.80938194      10.62197767       4.70996089      -0.00394267       0.00220231       0.00027910
H        6.00524790       9.04258610       0.37500918       0.00439034       0.00871307       0.00244959
H        6.68242529       9.51413655       1.93944197      -0.00149148       0.00697061       0.00717622
H        6.67612141       7.81505268       1.45136736       0.00309440       0.00824435       0.00352272
C       11.46468358       6.66919788       1.00678971       0.00063501       0.00061574       0.00187552
C       10.90044050       7.72846433       1.94651481       0.00190777       0.00096559       0.00240499
C       12.14847416       5.51957367       1.73818873       0.00075058       0.00008606       0.00107121
C       10.20043126       8.86599835       1.21356099       0.00276495       0.00158571       0.00246656
C       12.77183799       4.49605384       0.79844830       0.00114565       0.00110984       0.00012517
C        9.69463456       9.97282976       2.12917988       0.00401449       0.00234714       0.00242588
H       10.66225409       6.27323835       0.37454858      -0.00007045       0.00112389       0.00232035
H       12.18272742       7.13919736       0.32408866       0.00037727       0.00042588       0.00142063
H       11.71329571       8.13469925       2.55805237       0.00225264       0.00016755       0.00237487
H       10.20048517       7.26166141       2.64877056       0.00141189       0.00131059       0.00238258
H       12.92012225       5.92411276       2.40049083       0.00061733      -0.00027153       0.00146572
H       11.41919379       5.02731263       2.39060498       0.00076377      -0.00066617       0.00055380
H       10.89377970       9.28750308       0.47847008       0.00320688       0.00108422       0.00238258
H        9.36738632       8.46135554       0.63060269       0.00266999       0.00222738       0.00227931
H       12.01865993       4.04493924       0.14844361       0.00120109       0.00112648       0.00004849
H       13.26943499       3.69662052       1.35212348       0.00195891       0.00102568      -0.00069834
H       13.51948163       4.96056638       0.15251902       0.00062656       0.00214064       0.00016779
H        8.98790199       9.60172160       2.87195387       0.00396983       0.00300083       0.00303316
H       10.51778697      10.43512238       2.67928665       0.00449574       0.00186660       0.00196098
H        9.17777220      10.74791996       1.55828484       0.00437689       0.00252856       0.00248329
C        9.29788726       2.15420367       3.58858947      -0.00215080       0.00049973       0.00517762
C       10.75299283       1.88327676       3.93417339      -0.00225329       0.00193703       0.00637400
C        8.62007704       3.04692310       4.62084580      -0.00456654      -0.00083420       0.00482476
C       11.45318344       0.93643527       2.96297444      -0.00070514       0.00320658       0.00619134
C        7.18424990       3.37977681       4.24831208      -0.00458300      -0.00277130       0.00318596
C       12.90853473       0.73912321       3.35383240      -0.00197414       0.00011944       0.00956130
H        9.22968285       2.62409010       2.59806183      -0.00244095       0.00000545       0.00501958
H        8.74816427       1.20874059       3.52071532      -0.00083941      -0.00025123       0.00452926
H       10.83625411       1.45414954       4.93625156      -0.00361438       0.00018698       0.00577071
H       11.31059037       2.82646148       3.95540642      -0.00283673       0.00223973       0.00794664
H        8.64880453       2.54536567       5.59127696      -0.00556065      -0.00101146       0.00481606
H        9.19709510       3.97091805       4.73541774      -0.00556831      -0.00026304       0.00612275
H       10.91416427      -0.02136757       2.96540975      -0.00217727       0.00400653       0.00420510
H       11.35404078       1.37665119       1.95163127       0.00226709       0.00457557       0.00600828
H        7.14289511       3.93149403       3.30634392      -0.00492794      -0.00252989       0.00322640
H        6.70040416       3.98911717       5.01211246      -0.00621342      -0.00402267       0.00325446
H        6.59580641       2.46966539       4.12123839      -0.00267130      -0.00368160       0.00265135
H       13.44901760       1.68585176       3.32895451      -0.00213088       0.00045180       0.01510629
H       12.95547641       0.34497909       4.37070425      -0.00481291      -0.00519736       0.00783479
H       13.47841884       0.03307416       2.72854204      -0.00054803       0.00451847       0.00560924
C        2.74890396       2.73836310       3.32974015       0.00136453      -0.00249791       0.00263749
C        3.76068331       3.42152433       2.41758704       0.00077957      -0.00280365       0.00176854
C        3.36131319       1.71133884       4.27708194       0.00317866       0.00243697       0.00660869
C        3.15545821       4.50259028       1.52816912      -0.00007051      -0.00665241      -0.00211409
C        2.33854302       1.02649523       5.16875140       0.00400308       0.00377959       0.00888973
C        4.15309683       5.07019968       0.52813666      -0.00005215      -0.00674099      -0.00211772
H        2.21615961       3.50064940       3.91253638      -0.00170475      -0.00193956      -0.00093402
H        1.98901193       2.24814588       2.70737506       0.00330982      -0.00685352       0.00336076
H        4.24539602       2.66561301       1.78924472       0.00347058      -0.00364843       0.00495917
H        4.55762062       3.86250674       3.02512362      -0.00095204       0.00058682       0.00180390
H        3.89171285       0.93811983       3.71492513       0.00594598       0.00155491       0.01084475
H        4.11207156       2.21094777       4.89779188       0.00092086       0.00710630       0.00590342
H        2.29567147       4.08875520       0.99089802       0.00171742      -0.01017453      -0.00239819
H        2.76118330       5.30697729       2.15773183      -0.00295234      -0.00603256      -0.00462642
H        1.77550708       1.74858099       5.76492833       0.00236696       0.00507453       0.00559984
H        2.82544353       0.30263363       5.81829084       0.00571552       0.00780562       0.01232506
H        1.62871336       0.45721325       4.56868017       0.00500442      -0.00033529       0.01114728
H        5.02607534       5.48352894       1.03729114      -0.00166406      -0.00321764      -0.00208195
H        4.50373440       4.29196007      -0.15187884       0.00281474      -0.00749119       0.00017017
H        3.71811057       5.86874910      -0.07485877      -0.00127396      -0.00951785      -0.00476799
C        4.17767986       7.47984943       6.80495759       0.00126606       0.00203645       0.00292575
C        5.67710577       7.67023208       6.98004513       0.00181550       0.00149505       0.00128299
C        3.41752208       7.49153595       8.12446618       0.00258613       0.00310652       0.00403810
C        6.44365250       7.60061868       5.66752512      -0.00033358       0.00119960      -0.00040025
C        1.92193035       7.27117079       7.95542531       0.00204277       0.00458758       0.00539113
C        7.93343055       7.81944751       5.86273621       0.00085050      -0.00325173      -0.00166641
H        3.79691186       8.27389867       6.15560472       0.00064078       0.00226983       0.00378060
H        3.98613383       6.53196445       6.28573597       0.00030006       0.00210434       0.00267091
H        6.06169336       6.91759217       7.68139579       0.00231971       0.00187814       0.00097612
H        5.85616212       8.64928102       7.43545900       0.00242767       0.00165516       0.00065766
H        3.83079369       6.72128205       8.78446723       0.00212143       0.00262845       0.00375459
H        3.59355280       8.44953496       8.62170508       0.00373856       0.00299919       0.00357436
H        6.26178326       6.63167157       5.18697480      -0.00362086       0.00167009      -0.00049552
H        6.06531265       8.39043594       5.01394705       0.00129490       0.00118279       0.00060114
H        1.47387309       8.06002405       7.34993672       0.00285798       0.00487557       0.00580809
H        1.40154642       7.25881723       8.91390343       0.00269224       0.00582173       0.00571647
H        1.72164388       6.31959308       7.45681952      -0.00056109       0.00482193       0.00604583
H        8.11602389       8.81445308       6.26918960       0.00438935      -0.00312096      -0.00328264
H        8.36401830       7.08916344       6.55204030      -0.00042219      -0.00302327      -0.00083843
H        8.47892910       7.75097226       4.91956667      -0.00077555      -0.00621561      -0.00224656
