196
Lattice="19.081733813735102 0.0 0.0 0.0 19.081733813735102 0.0 0.0 0.0 19.081733813735102" Properties=species:S:1:pos:R:3:forces:R:3 energy=-3003021.75 stress="1.0523985110921785e-05 -0.00016247055464191362 -0.00021313105389708653 -0.00016247055464191362 -0.0004288226191420108 3.332929281896213e-05 -0.00021313105389708653 3.332929281896213e-05 -0.0002927007444668561" pbc="T T T"
Md      18.23898851      20.28611923      -1.86476622       0.00822487       0.00693631      -0.01341131
O        5.86479793      17.85456903       3.12591818      -0.01578104      -0.00031137       0.00157857
O        4.47769713      15.63585429       3.20989626      -0.02652621       0.00596309      -0.00222421
O        4.42358144      17.28583503       5.22443680      -0.00939870      -0.00235689       0.00467062
O        6.59194557      15.94151987       4.74055977      -0.01823783      -0.01092362      -0.00924587
Mn       5.35424824      16.67312018       4.05851641      -0.01794760      -0.00178204      -0.00147882
O        8.19437118      15.49376197      12.13053279      -0.00234222       0.00325765      -0.00770494
O       10.47240859      15.76000951      10.87956608       0.00299990      -0.00805748      -0.00577402
O       10.35000175      14.29569883      13.05907459      -0.00147545      -0.00984502       0.00118399
O       10.10873913      16.88088631      13.19772740       0.00594938       0.00004196      -0.00760484
Mn       9.77360368      15.60568602      12.31268369       0.00098713       0.00691614      -0.01421964
O        6.43103473      15.20594491      -0.12947686       0.00056362      -0.00853920      -0.00495148
O        8.61630668      13.83144793       0.28357834       0.00974894       0.01156235       0.00952280
O        6.38071382      13.12236321       1.46128296       0.01255584       0.00067830       0.00803244
O        7.62413061      15.29269424       2.18668868      -0.00803614       0.01615882      -0.00223207
Mn       7.25875733      14.37360391       0.94406809       0.00419924       0.00575697       0.00217406
Cl      -1.56530958       3.90728557      20.72592422      -0.01973758      -0.00658907      -0.00612185
Cl       0.57309943       2.44733976      19.39575554       0.01492029      -0.03299262      -0.00148043
Cl       0.57630237       5.35750501      19.44163397       0.00821380       0.00409207       0.00266902
Cl      -1.36698252       3.93195530      17.82182199       0.00177988       0.01040316       0.00167379
C       -0.44940052       3.94893625      19.39403518      -0.00128480       0.01041077       0.00923744
Cl      12.21246678       9.22236843      12.23754464      -0.00006759       0.00359857       0.00430034
Cl       9.61674222       9.46861849      10.98649391      -0.00712159      -0.00804155       0.01631814
Cl      10.65624532      11.66517873      12.54620174      -0.01100628      -0.00482655       0.01274910
Cl       9.81854528       9.23022523      13.87098177       0.00794303      -0.01043689       0.01501733
C       10.57888719       9.91608994      12.40908320      -0.00274071      -0.00493556       0.01233154
Cl       2.71159220       3.95752931      16.67513916      -0.00392591      -0.00127836       0.02026673
Cl       2.41829119       4.24837591      13.81184226       0.00980113      -0.01169970       0.01846941
Cl       3.88595769       6.23725582      15.32912048       0.00592926      -0.00806832       0.01714936
Cl       1.01228835       6.05087572      15.59659119       0.00419156      -0.00298297       0.00461108
C        2.51780230       5.14206033      15.34601901       0.00432196      -0.00629997       0.01492045
Cl       5.34698670      11.09090705       6.35160963       0.00023883       0.00086904      -0.00547874
Cl       6.16709762      12.84883385       4.19171728      -0.01186067       0.00252469      -0.00789309
Cl       6.53709763      13.65596390       6.96448737       0.00786179      -0.00216365      -0.00898814
Cl       3.88293906      13.53975010       5.80877149       0.00057739       0.00410247       0.00890322
C        5.50129506      12.79808732       5.81120046      -0.00085762       0.00150362      -0.00363465
Cl       8.37137929       8.37467268       0.17618133       0.00376838      -0.00255346      -0.00190551
Cl       6.58803868      10.62753451       0.60240145       0.00648891      -0.00167036       0.00367805
Cl       5.73144674       7.93568954       1.28641473       0.00409335      -0.00207186      -0.00109023
Cl       6.02685481       8.69680902      -1.49908064       0.00313652       0.00322564       0.00041306
C        6.68064431       8.92950894       0.14432893       0.00436162      -0.00077483       0.00042677
Cl      13.61021182      19.61812875       2.44831404      -0.00006005      -0.00511897      -0.01660860
Cl      13.07496021      17.30867262       0.83921898      -0.01770771      -0.02767101       0.02208406
Cl      15.31728758      17.33366510       2.62183887       0.01119399       0.00379765      -0.01513225
Cl      16.38108512      19.38174562      -0.47344761      -0.00954282       0.01567833      -0.02794804
C       13.99143640      18.06494332       1.96514805      -0.00189364      -0.00939949      -0.00345474
Cl       0.83791936      17.49258513       6.40948725       0.00888005      -0.00366518       0.00091445
Cl      -0.67775441      17.63726229       3.95347914       0.00770018      -0.00166813       0.00183192
Cl      -0.77072299      15.22353978       5.56296206       0.01679370      -0.00700971      -0.00529927
Cl       1.66499915      15.91477460       4.13454417       0.01407844       0.00646624      -0.00414205
C        0.28708629      16.54880929       5.01846271       0.01228617      -0.00194307      -0.00177119
Cl       6.92422106       3.44102064       1.69970187       0.00864962       0.00266880      -0.00788027
Cl       9.01285065       3.95352441       3.64314942      -0.00185275      -0.00582421       0.00534686
Cl       8.88487935       1.38737862       2.28592942      -0.00015956      -0.00312531       0.00057518
Cl       6.88909096       2.07763697       4.26193961      -0.01026273      -0.00129151      -0.01070321
C        7.92803361       2.70044175       2.97843778      -0.00111979      -0.00185668      -0.00314755
Cl      15.98735967       6.43514062       9.95195224       0.00068313      -0.01087262       0.00903846
Cl      14.17849217       5.02192401       8.17681423       0.00660178      -0.00213897      -0.00384843
Cl      13.57999515       7.73770259       9.00089161       0.00876038      -0.00302646      -0.00009093
Cl      13.39604232       5.56850865      10.91750826      -0.00593188      -0.00775535      -0.00681114
C       14.28600814       6.19126444       9.50531557       0.00252436      -0.00597378      -0.00015949
Cl       1.56254054      10.56521223       5.11366148       0.00050507       0.00050636      -0.00089252
Cl       0.69440410       9.63602054       2.50645770      -0.00637776       0.00161076       0.00128931
Cl       3.39740389      10.63945729       2.86467213      -0.00383770      -0.00322481      -0.00426030
Cl       1.15199709      12.45941289       2.96712269       0.00010476       0.00099790      -0.00025949
C        1.71856866      10.82605113       3.36159344      -0.00253773      -0.00004994      -0.00109828
Cl       3.69487106       7.77389599       5.50667866       0.00566899       0.00236756      -0.00257084
Cl       5.32829074       5.63080236       4.44692666       0.00723165       0.00657681      -0.00846231
Cl       2.87394173       6.39241039       3.11121009       0.00446543       0.00609345      -0.00397018
Cl       2.77503713       5.04200706       5.68491099       0.00972068       0.00095916      -0.00655767
C        3.67532675       6.20769178       4.70052087       0.00696015       0.00393763      -0.00522977
Cl      17.08467933      15.55799336      -1.10950805      -0.00101639      -0.00666998      -0.01367940
Cl      18.43057650      15.11611888       1.41922748      -0.00722432       0.00442237      -0.00850606
Cl      18.30390193      12.98136280      -0.53812639       0.00361376      -0.00196531      -0.00206947
Cl      15.90424077      13.80241948       0.87037455      -0.00222832      -0.00282090      -0.01206650
C       17.43709529      14.35286764       0.16646972      -0.00143225      -0.00214537      -0.00887604
Cl       2.06545305       9.49160723      14.18668416       0.00860530      -0.00457909       0.00144970
Cl       2.56155722      10.50984025      11.52225919      -0.00124833      -0.01453316      -0.00409350
Cl       2.37145583       7.65083257      11.96532637      -0.00341843      -0.01267451       0.00648135
Cl       4.66179304       9.12572788      12.96055638       0.00267965      -0.01269832      -0.00836866
C        2.91880744       9.19827726      12.65989625       0.00167653      -0.01111493      -0.00112234
Cl       7.56742663      16.91668150       9.70118927      -0.00638900       0.01173598       0.00704741
Cl       9.04669070      17.83184775       7.38162535       0.00214720      -0.00120583       0.00904822
Cl       7.49353485      19.71490210       8.94849727      -0.00830390       0.00693876      -0.01197574
Cl       6.15739407      17.73622495       7.29054104       0.00212324      -0.00591326      -0.00329262
C        7.54848123      18.03132338       8.33276576      -0.00273148       0.00287762       0.00060121
Cl      17.65215557      10.14492440      12.93297421       0.00410481      -0.00505075       0.00649229
Cl      15.24894074       8.66654367      13.58498742       0.00393224      -0.00480640       0.00306811
Cl      17.40607833       8.82737000      15.51211464       0.00167855      -0.00589947       0.00640944
Cl      17.73428492       7.25222030      13.09723390       0.00293167      -0.00623468       0.00723106
C       17.00511838       8.73017876      13.77386065       0.00349841      -0.00517702       0.00565183
Cl      10.64120720      10.48841096       3.51405295      -0.01478189       0.01173392      -0.01435655
Cl      10.40053346       8.23602258       5.32678915       0.00243384       0.01535362      -0.00778608
Cl       8.04602193       9.31037610       4.01852703      -0.00626987      -0.00317688      -0.00651491
Cl       9.37350410      10.83730440       6.09185539      -0.01278456       0.01074699      -0.01328182
C        9.61214818       9.72023529       4.73703397      -0.00789923       0.00866478      -0.01032592
Cl       3.43056922       2.77529545       2.88664358      -0.00137720       0.01009125      -0.01442116
Cl       3.43976393       1.23603568       5.34352344       0.00558060       0.00584155      -0.01683432
Cl       2.50504269       0.04643297       2.87701991       0.00111722       0.00921321      -0.01603022
Cl       0.92417313       2.09786620       4.19346948       0.00308096       0.00654192      -0.00944920
C        2.58714784       1.52827578       3.83044343       0.00223199       0.00827421      -0.01427475
Cl      17.09819145       1.01751809      12.71136175       0.02500462       0.01298278       0.00251711
Cl      16.15879951       1.79768455      15.35806744      -0.00381923      -0.02161188       0.00426745
Cl      15.47554173       3.39784103      13.01758162      -0.00803218      -0.00764209       0.02039471
Cl      18.20124871       3.38402588      13.97774566      -0.01147848       0.01088615       0.03131521
C       16.73538390       2.41399881      13.71004501       0.00011813      -0.00192811       0.01433700
Cl      11.87500789      16.49610948       4.38743736      -0.00141740       0.00517738       0.00020739
Cl      10.98454021      14.52442985       2.44762776      -0.00531748       0.00344226       0.00382394
Cl       9.65017804      14.75816634       4.99525620      -0.00439072       0.01016989       0.00302354
Cl      12.34917487      13.67904541       4.86619735      -0.00632283       0.00529620       0.00468892
C       11.18952452      14.84056290       4.17156098      -0.00404669       0.00616959       0.00330675
Cl       8.27026144       4.53543204      11.93509310      -0.00669092      -0.00135884      -0.00527006
Cl       6.72155788       3.83083317      14.27696191      -0.00344543      -0.00372624      -0.00425833
Cl       5.46875825       5.25190447      12.07692489      -0.00578034       0.00105935       0.00043809
Cl       7.39595897       6.60476441      13.76229550      -0.00164778      -0.00359100      -0.00060734
C        6.96409762       5.05664986      13.00292981      -0.00444705      -0.00189826      -0.00249795
Cl      10.83906386      15.40152493      18.12566949      -0.00145912      -0.00728229       0.00200993
Cl      11.37479887      15.11192511      15.30557998      -0.00699377       0.00325996       0.00115263
Cl      13.58885889      15.30510028      17.16704332      -0.00366676       0.00069992      -0.00337207
Cl      11.94120387      17.63272602      16.61810197      -0.00850852      -0.00039101       0.00839584
C       11.91725734      15.84715666      16.78596659      -0.00526665      -0.00040571       0.00196414
Cl      15.96167206      13.86876554      10.86340567      -0.01905036       0.01034650      -0.00062501
Cl      13.07049272      13.68079000      10.81809306      -0.01952577       0.00595063       0.01351815
Cl      14.56356383      12.47629685      12.98256939      -0.00618938      -0.00025010       0.00011986
Cl      14.69576660      11.31646228      10.33305999      -0.01693913       0.01185524      -0.00640449
C       14.55555629      12.84368880      11.24776461      -0.01574121       0.00703034       0.00171613
Cl      15.91258402       8.42790252       3.00109755       0.01709774      -0.00063934      -0.00411522
Cl      15.16330497       7.07082667       0.54631743       0.00926642       0.00145105      -0.00261521
Cl      16.14391096       9.80035198       0.45996880      -0.01438898       0.00946221      -0.00036961
Cl      13.52897752       9.22564076       1.58877909      -0.00078928      -0.01640101       0.01791117
C       15.18509132       8.63888831       1.40316054       0.00270463      -0.00122903       0.00271168
Cl      12.34013805       5.82562225      14.58117589       0.00886022       0.02849011      -0.00018263
Cl      14.73177227       5.60385179      16.19956135       0.00599778       0.00340129       0.00010171
Cl      12.86518170       3.37786712      16.05531883      -0.00188155       0.01207832      -0.02391757
Cl      12.13215737       5.79856309      17.47319549       0.00556175       0.00027879      -0.00080061
C       13.00648683       5.14958710      16.07590680       0.00477159       0.01072107      -0.00630468
Cl      12.28916718      11.56212873      15.42510561      -0.01014763       0.00598255       0.01839441
Cl      12.63960928      11.83112208      18.27947896       0.01327685      -0.00754273       0.01569331
Cl      14.95744098      11.77865670      16.53204620      -0.00065064      -0.00927557      -0.00268678
Cl      13.40110854       9.36545201      16.94481042      -0.00571023      -0.00465280       0.00083297
C       13.30911205      11.13705854      16.79148198      -0.00077747      -0.00402296       0.00795246
Cl      16.09256078       1.66516938       7.06806975       0.00963970       0.00192256       0.01230487
Cl      14.89612906       1.60635091       9.70733461       0.00727460      -0.00154774       0.01081684
Cl      17.56402199       2.67894027       9.35993117       0.00077555       0.01376414       0.01259147
Cl      17.10513286      -0.16597876       9.07678770       0.01871882       0.01079673       0.01576273
C       16.40224197       1.44246759       8.80020394       0.00930081       0.00629141       0.01300360
Cl      17.94762225       4.85212479       6.73006075       0.01243155      -0.00009376       0.00181544
Cl      18.55871078       6.28790853       4.29386691       0.00687760      -0.00064138       0.00004601
Cl      16.57652662       7.32733275       6.13341134       0.00917529      -0.00162402       0.00345609
Cl      15.99463993       4.94060684       4.58943552       0.00863937      -0.00251704       0.00528568
C       17.27827039       5.85814939       5.43924189       0.00939670      -0.00108451       0.00302091
Cl       1.18167922      13.63561274      15.01348396       0.00894040       0.00113596       0.01515684
Cl       2.57076954      11.91090082      16.88294184       0.00874345      -0.00565788       0.00872993
Cl       3.22906069      14.72450737      16.78077867       0.01868916      -0.00797206       0.00861254
Cl       3.97545413      12.99470736      14.58066538       0.00485611      -0.00884168       0.00502717
C        2.74961430      13.31830721      15.80653009       0.01030406      -0.00462762       0.00947285
Cl       8.21608244      13.11773496      10.11602280      -0.00154966      -0.00317380      -0.00546634
Cl       5.52459335      13.93496371      10.84499529      -0.00235265       0.00452322      -0.01771939
Cl       7.08019221      12.28836376      12.64883373      -0.01336454       0.00705141      -0.00662351
Cl       6.08199159      11.17747858      10.15947529      -0.00396612       0.00027573      -0.00678128
C        6.73252050      12.64051439      10.94047906      -0.00527431       0.00217101      -0.00921355
Cl       1.36612822      -1.81341284      14.15319713       0.01592051      -0.00380492      -0.01455150
Cl       0.57058871      -1.29352387      16.90552238      -0.02123477      -0.00007513      -0.01700893
Cl       1.03102821       0.92052428      15.08535412       0.02265371      -0.00161439      -0.00146323
Cl       3.27854268      -0.68475507      16.00668409      -0.00357902       0.00896316       0.02493636
C        1.60694253      -0.75894463      15.50926861       0.00484687      -0.01267543      -0.00490199
Cl       4.78042717       1.57691530      12.07492698      -0.00422835       0.00309513      -0.00597137
Cl       3.89003528      -0.21964642       9.98571398      -0.00264649      -0.00224924      -0.00246570
Cl       4.26473038       2.58878072       9.40573171      -0.03777711       0.00275874       0.00077328
Cl       2.05562416       1.74614448      11.08507631      -0.01688373      -0.02568923       0.01959465
C        3.76130570       1.41130560      10.63354543      -0.01457378      -0.00539431       0.00240980
Cl      13.88468509      17.07217943       9.80251518       0.00751556       0.00274307      -0.00545609
Cl      12.02643852      15.76752619       8.01534466       0.01357037       0.00053966      -0.00895780
Cl      14.76679455      16.24397583       7.16829162       0.01097578       0.01795211      -0.00864655
Cl      12.91705280      18.45932504       7.44601504      -0.00043580       0.00690609       0.00023152
C       13.38522311      16.87466280       8.11794018       0.00779907       0.00703521      -0.00580488
Cl      10.81474668       2.48595904      10.45869455       0.00907792       0.00376296       0.00441816
Cl      12.55723706       1.21658212      12.40414926       0.00236654      -0.01021455       0.00119522
Cl      10.76992151      -0.39490027      10.79096988      -0.00017019       0.00252533      -0.00835085
Cl       9.69718717       1.30328786      12.86800586       0.00206929      -0.00306883      -0.00253010
C       10.94097091       1.12576047      11.62414975       0.00318682      -0.00181760      -0.00150141
Cl       0.62474128      13.46241894      11.06449690      -0.00107077       0.00128457       0.00942194
Cl       1.89799781      14.12843276       8.54539918       0.01163560       0.00149806       0.01588506
Cl       1.95574992      16.01712907      10.73436906      -0.00963640       0.00442591       0.01469296
Cl      -0.53362672      15.49106433       9.34256906       0.00256729      -0.00679938      -0.00319929
C        0.98882159      14.76374032       9.91352742       0.00110108       0.00037664       0.00900207
Cl      17.07597106      11.54705828       4.92998004       0.00115940       0.00522720      -0.00552106
Cl      14.83870013      10.47629806       6.43300334       0.00084013      -0.00559032      -0.01396939
Cl      16.00313407      13.01463303       7.18503163      -0.02210569       0.00570428      -0.01773629
Cl      17.48482753      10.56234247       7.62583342      -0.00663531       0.01810318      -0.00014824
C       16.35571666      11.40501793       6.53822568      -0.00680020       0.00593248      -0.00910726
Cl       4.71914488       8.28536339       8.95519564      -0.00214183      -0.00571981      -0.00221346
Cl       6.93427048       8.00822259       7.09154903       0.00203064       0.00263637       0.00181222
Cl       5.73760064       5.66040607       8.28240705       0.00613649      -0.00228822      -0.00370621
Cl       7.32598050       7.47194164       9.89746676      -0.00212598      -0.00018628       0.00171214
C        6.18461206       7.35843915       8.55297740       0.00083530      -0.00139384      -0.00073546
