198
Lattice="14.05341060889552 0.0 0.0 0.0 14.05341060889552 0.0 0.0 0.0 14.05341060889552" Properties=species:S:1:pos:R:3:forces:R:3 energy=-230998.09375 stress="-0.0008675911230966449 0.00012158381287008524 5.3781919632456265e-05 0.00012158381287008524 -0.0009946981444954872 -0.00010674246004782617 5.3781919632456265e-05 -0.00010674246004782617 -0.0008003420662134886" pbc="T T T"
Mg      13.24882936      13.24283407       0.23835855      -0.00328760      -0.02310681      -0.04302935
Br       0.73362987      12.53597901       1.87573574       0.00613571      -0.00973079      -0.02229470
Br      12.33822475      12.90024485      12.15035867      -0.01969260       0.01265267      -0.02958445
O        5.65055051       2.68409125      10.54548212      -0.00054878      -0.00035238       0.00314420
C        5.61827676       4.09180239      10.42577024      -0.00309554      -0.00043210       0.00165913
C        6.69238521       2.10750354       9.77317060       0.00050239       0.00177795       0.00216041
C        4.53314403       4.63217727      11.32460759      -0.00436208      -0.00275248       0.00243282
C        6.72523283       0.62797384      10.05876639       0.00169754       0.00120062       0.00164005
H        6.59820359       4.50330219      10.70874491      -0.00435519       0.00180189       0.00081369
H        5.43634656       4.37505689       9.37605874      -0.00484838      -0.00180925       0.00192350
H        6.50599652       2.29677675       8.70423829      -0.00209567       0.00069985       0.00200349
H        7.65114287       2.57492047      10.03768266      -0.00120366       0.00298405       0.00035670
H        4.48328694       5.71917832      11.24685863      -0.00570564      -0.00216822       0.00270060
H        3.56386996       4.21782054      11.04700348      -0.00330706      -0.00353639       0.00233501
H        4.73451692       4.36874597      12.36389020      -0.00354521      -0.00234062       0.00184749
H        7.48768863       0.13959314       9.45070659       0.00308515       0.00293444       0.00093722
H        6.95450289       0.44424951      11.10912299       0.00429364       0.00174689       0.00200552
H        5.75798453       0.18020349       9.83588090       0.00390866      -0.00009311       0.00311188
O       11.18800748      10.61425445       7.95674386       0.00028286      -0.00687408      -0.00472470
C       12.30459448      10.14113233       7.22787767      -0.00326633       0.01082519       0.00840852
C       10.19538625       9.61769387       8.10130656       0.00899410       0.02063328       0.01849148
C       13.29796324      11.26272451       7.06225878       0.00479180       0.00573733       0.00012902
C        9.02734614      10.18963937       8.86591651      -0.00953010      -0.00468802      -0.04449973
H       12.76079204       9.29020268       7.75838279       0.00886077       0.00501078       0.00521129
H       11.97336798       9.77107502       6.24655154       0.00653392       0.00215584      -0.00051710
H        9.87514512       9.26313543       7.11089253      -0.00160140       0.00118155      -0.01170474
H       10.61618123       8.74741511       8.62942420       0.00284596      -0.00014129      -0.00368896
H       14.15758662      10.91947454       6.48566537       0.00437464       0.00993856       0.00531629
H       12.84049305      12.09931158       6.53397584      -0.00221080       0.00799356       0.00026473
H       13.64736042      11.61469824       8.03245898      -0.00137162       0.01119307       0.00778534
H        8.22470223       9.45344539       8.92061149       0.01215850       0.00949118       0.00138279
H        9.31465401      10.45749411       9.88199367       0.01860043       0.01344243       0.01816176
H        8.64425972      11.07752036       8.35943853       0.00808454      -0.00862005       0.00553937
O        4.21551185       9.94669983       4.58493094      -0.00356749       0.00567687      -0.00171741
C        2.91542219       9.39100817       4.69921691      -0.00580845       0.01045811       0.00168345
C        4.18851275      11.35887863       4.62339258      -0.00257349       0.00677592      -0.00376220
C        3.02850023       7.88919872       4.64733380      -0.00558056       0.00845808      -0.00450652
C        5.61009279      11.86836814       4.58704035       0.00055444       0.00299865      -0.00399780
H        2.46793788       9.71958641       5.64889418      -0.00359330       0.00949143      -0.00182486
H        2.28274126       9.76415293       3.88066167      -0.00499782       0.01037391      -0.00103423
H        3.60628309      11.74499519       3.77337161       0.00009722       0.00601996      -0.00478622
H        3.67677921      11.69108331       5.53913871      -0.00124110       0.00908379      -0.00503176
H        2.04327018       7.43010257       4.74885985      -0.00968722       0.01025704       0.00013599
H        3.46794092       7.57262639       3.70462094      -0.01004677       0.00864051       0.00073518
H        3.67528406       7.52103027       5.44362254      -0.00761737       0.00797655      -0.00056806
H        5.63136492      12.95749834       4.63952676       0.00141387       0.00393239      -0.00573344
H        6.17925865      11.47132556       5.42849351      -0.00212061       0.00419707      -0.00304522
H        6.10493588      11.56219543       3.66419221      -0.00076683       0.00116100      -0.00256354
O       12.97355322       3.13977304       2.32706473       0.01365171      -0.00852984       0.00053924
C       13.46297808       3.62272643       3.57454120       0.00944102       0.00148094      -0.00089495
C       12.77196635       1.74620089       2.38326054       0.00076818      -0.00721818       0.01510781
C       13.55866827       5.12442684       3.51237086       0.01457082       0.00135517      -0.01646218
C       12.19693703       1.29584018       1.05626096       0.01542602      -0.01019626       0.01013136
H       12.77306024       3.31004632       4.36990963       0.00572222       0.01175471      -0.00112721
H       14.44485860       3.17127092       3.78069530       0.00838482       0.00200443       0.00765699
H       13.71750651       1.22719926       2.59450985      -0.00603223      -0.01411746       0.02938670
H       12.06270929       1.50619561       3.18328031      -0.01189697       0.00783597       0.00798392
H       13.89480764       5.51480175       4.47453340       0.01343937       0.00813841      -0.01803930
H       14.26129853       5.44397945       2.74289357       0.01680660      -0.00846707      -0.01671262
H       12.58343229       5.55645907       3.28975308       0.01597045       0.00207579      -0.02206765
H       11.71357200       0.30772652       1.15891657       0.03067332      -0.01762998       0.00680074
H       11.38418957       1.94568685       0.73175439       0.00975320      -0.01872560       0.00788738
H       12.92797928       1.34628296       0.23132299       0.02664109       0.00188349       0.02140427
O       10.19945827       2.39636671       4.46491770      -0.00003144      -0.00239848       0.01071095
C        9.87794197       1.56601278       5.56791084      -0.00264353      -0.00190288       0.00951019
C        9.06846175       3.08315476       3.95158808       0.00392149       0.00058684       0.00740600
C       11.13994946       0.89004594       6.04509658      -0.00619832      -0.00534920       0.01089418
C        9.50083293       3.86873228       2.73947993       0.00673093      -0.00355908       0.00715166
H        9.43048391       2.17279222       6.36979721      -0.00282328      -0.00129992       0.00959703
H        9.12617638       0.82330877       5.26310646      -0.00492236      -0.00009665       0.00825024
H        8.28324905       2.35793336       3.68964929       0.00117037       0.00218162       0.00762592
H        8.65964415       3.74873715       4.72512186       0.00423741       0.00319937       0.00579754
H       10.92835801       0.23931861       6.89376481      -0.00670748      -0.00385723       0.00995995
H       11.57411308       0.28236976       5.24984269      -0.00650882      -0.00601680       0.01009329
H       11.87980441       1.63160209       6.35013204      -0.00359643      -0.00601874       0.00999379
H        8.64710134       4.37198762       2.28739903       0.01178762       0.00126674       0.00706675
H       10.24691066       4.61695862       3.00613431       0.01300591      -0.00757620       0.00705095
H        9.94397757       3.20692351       1.99663445       0.00434345      -0.00688189       0.00717413
O        4.13761058       1.95127842       3.37967949      -0.00128564      -0.00270450       0.00348748
C        3.63365035       1.41397208       4.58741790      -0.00348522       0.00013956       0.00374228
C        3.94643821       1.07514396       2.27981428      -0.00038156      -0.00586948       0.00561136
C        3.94720952       2.37214948       5.71006943      -0.00309715       0.00123259       0.00303188
C        4.46336234       1.74333559       1.02944445      -0.00314079      -0.00776491       0.00354481
H        2.54977084       1.24777154       4.49855871      -0.00377965       0.00189905       0.00315548
H        4.09237868       0.43289747       4.77561527      -0.00538552      -0.00042129       0.00630844
H        4.48307666       0.13567871       2.46826615       0.00096691      -0.00446132       0.00720598
H        2.88145431       0.82629964       2.18116538      -0.00052935      -0.00746685       0.00655130
H        3.60053389       1.97006559       6.66276729      -0.00533220       0.00398372       0.00260530
H        5.02339028       2.53903728       5.77493745      -0.00276478      -0.00097332       0.00423374
H        3.46267775       3.33376690       5.54134294      -0.00065751       0.00237203       0.00010248
H        4.35286050       1.08240688       0.16964039      -0.00209549      -0.01022784       0.00573084
H        3.91402521       2.66322712       0.82628001      -0.00483969      -0.00969499       0.00164071
H        5.51978997       1.99208603       1.13588517      -0.00299698      -0.00518633       0.00255733
O        6.11079204       6.83494051       3.94142310      -0.00521117      -0.00222856      -0.00209426
C        7.34611111       7.18982542       4.54231541      -0.00640280      -0.00903064       0.00579867
C        6.13902846       5.51322396       3.44100937      -0.00618619      -0.00284073      -0.00162911
C        7.19768410       8.53451854       5.20340320      -0.00740030      -0.00351268      -0.00038742
C        4.76994614       5.12971220       2.94993784      -0.00589055      -0.00003930      -0.00675537
H        7.63425123       6.43007117       5.27461664      -0.01169153      -0.00566670       0.00320810
H        8.14085244       7.21581129       3.78427541      -0.00237721      -0.00791196       0.00573790
H        6.87238685       5.44288009       2.62502963      -0.00339043      -0.00608359       0.00177968
H        6.47025115       4.82421335       4.23372270      -0.01252730      -0.00429320       0.00050536
H        8.15008258       8.84590877       5.63418613      -0.00656629      -0.00948598       0.00972024
H        6.86408534       9.28384621       4.48820879       0.00220386      -0.00538696       0.00266695
H        6.44851337       8.49180963       5.99384664      -0.01182099      -0.00391595      -0.00143419
H        4.76937065       4.09621098       2.61317341      -0.00858151       0.00198406      -0.00515485
H        4.03847061       5.21437073       3.75368619      -0.00898993       0.00610733      -0.01021194
H        4.46056930       5.77737741       2.13085921       0.00023202       0.00219053      -0.00984600
O        9.59739834       3.26896040      11.62192425       0.00195354      -0.00060120       0.00603649
C       10.95787479       2.97071240      11.33866976       0.00055444      -0.00692435       0.00581431
C        9.26193994       2.93123330      12.95632060       0.00183719       0.00210352       0.00674638
C       11.23947145       3.32850938       9.90229584       0.00148031      -0.00462277       0.00577891
C        7.81575747       3.26961541      13.21785304       0.00249612       0.00949866       0.00478382
H       11.60551751       3.54954169      12.01473167       0.00344765      -0.01050359       0.00643891
H       11.15138105       1.90486028      11.52458708      -0.00401754      -0.00723821       0.00323992
H        9.44397699       1.85673737      13.11595718      -0.00361217       0.00159538       0.00840653
H        9.91822244       3.48519987      13.64488468       0.00391909      -0.00015971       0.00584999
H       12.27693565       3.10692734       9.65034934       0.00148322      -0.00975261       0.00620303
H       10.59266147       2.76031765       9.23167017      -0.00009766      -0.00237392       0.00534882
H       11.06282628       4.39082613       9.73679241       0.00644748      -0.00499916       0.00692078
H        7.55656427       3.00105358      14.24286747       0.00063221       0.01414766       0.00602393
H        7.64000830       4.33935823      13.09108689       0.00817046       0.00975762       0.00121189
H        7.15270870       2.72806553      12.54200710       0.00134514       0.01028463       0.00635929
O        9.74437040       6.28187285       6.38335850       0.00484666      -0.00078655      -0.00397973
C        9.66259891       5.47171797       7.53814646       0.00759912       0.00009511      -0.00312239
C       11.08524611       6.55206232       6.01526967       0.00345499      -0.00118566      -0.00733185
C        8.21235097       5.20277712       7.85343081       0.00858825       0.00156753       0.00236186
C       11.07546465       7.42590346       4.78744958       0.00224189       0.00025284      -0.00616792
H       10.20767228       4.53119587       7.37109793       0.00599115      -0.00118539      -0.00461253
H       10.15091152       5.98299870       8.38114842       0.01139051      -0.00042531      -0.00535753
H       11.60066779       7.05196268       6.84932910       0.00614761      -0.00227439      -0.00797641
H       11.61198365       5.60535597       5.82426243       0.00284860      -0.00121033      -0.00964613
H        8.13167575       4.62797597       8.77657737       0.01120785       0.00299434       0.00292586
H        7.66694031       6.13989371       7.97783438       0.01032396       0.00282615       0.00332814
H        7.73621927       4.63561990       7.05157126       0.00495102       0.00187056       0.00454932
H       12.09268647       7.69514563       4.50316473       0.00105882      -0.00001535      -0.00750913
H       10.60645411       6.91963959       3.94435359       0.00028051       0.00116540      -0.00620672
H       10.51327940       8.34137772       4.97318326       0.00232534       0.00036635      -0.00430440
O        3.82179858       9.70417345       0.74858336      -0.00440395      -0.00010166      -0.00764440
C        3.99943196       8.30497646       0.84075979      -0.00661439       0.00000697      -0.00432417
C        5.05039004      10.39500678       0.84933533      -0.00440998      -0.00068212      -0.00518398
C        2.64082779       7.65017655       0.79471348      -0.00694358       0.00171262      -0.00577850
C        4.78203694      11.87278998       0.71593763      -0.00306799      -0.00104171      -0.00887873
H        4.62734564       7.95541892       0.00423728      -0.00497049      -0.00287101      -0.00186878
H        4.53367123       8.06082073       1.77086340      -0.00905448       0.00125336      -0.00238580
H        5.51852778      10.16433344       1.81749398      -0.00711581       0.00056867      -0.00367135
H        5.73843514      10.04993049       0.06195234      -0.00237563      -0.00248675      -0.00293764
H        2.73253475       6.56423117       0.83769703      -0.00871583       0.00206999      -0.00282492
H        2.03103085       7.98097681       1.63613342      -0.00870503       0.00511816      -0.00817840
H        2.12675674       7.91899902      -0.12793689      -0.00464346       0.00027939      -0.00788753
H        5.70439724      12.44175776       0.84684386      -0.00346094      -0.00102790      -0.00776378
H        4.36576218      12.10272896      -0.26513185      -0.00050242      -0.00275999      -0.01039143
H        4.06163593      12.19174214       1.46872281      -0.00513956       0.00092618      -0.01130924
O        4.07107651       9.65548351       8.34679896      -0.00781590      -0.00201198       0.00271435
C        5.32423002      10.30432713       8.44385999      -0.00767206      -0.00219327       0.00017866
C        4.20292372       8.25004743       8.43944515      -0.00916451      -0.00165296       0.00150669
C        5.11612596      11.79513222       8.38674265      -0.00652115      -0.00273919       0.00107256
C        2.83120209       7.62536185       8.39642641      -0.00898933      -0.00087918       0.00379155
H        5.81212411      10.02495761       9.38966012      -0.00438330      -0.00352302      -0.00254476
H        5.98154057       9.97016049       7.62842769      -0.00992799      -0.00193039      -0.00327507
H        4.83042188       7.88026250       7.61368940      -0.01096573      -0.00196087      -0.00005871
H        4.71549170       7.99033247       9.37779072      -0.00701052      -0.00317379       0.00011736
H        6.07666379      12.30563001       8.45084725      -0.00744548      -0.00265048      -0.00092666
H        4.63492996      12.08200199       7.45258106      -0.01029718      -0.00176382       0.00314742
H        4.49001039      12.12747251       9.21478140      -0.00519784      -0.00312262       0.00398895
H        2.91135303       6.53824901       8.44031507      -0.01034523      -0.00024490       0.00361034
H        2.23067025       7.96582881       9.24010226      -0.00777797      -0.00014817       0.00514919
H        2.31832962       7.89563795       7.47394832      -0.01102965      -0.00002872       0.00464132
O        9.24957659       8.20888064      11.85732069       0.00499362       0.00100660      -0.00057170
C        8.68012080       7.24188695      10.99875458       0.00382298       0.00029017      -0.00003924
C       10.66520341       8.11960928      11.92611415       0.00461784       0.00079772      -0.00256544
C        7.18045087       7.41178138      11.03010923       0.00385529       0.00165389       0.00264507
C       11.16031762       9.18637159      12.86995913       0.00651795       0.00194380      -0.00432459
H        9.06336081       7.38283473       9.97657521       0.00238098      -0.00011608       0.00010043
H        8.97030171       6.22737726      11.31554514       0.00370437       0.00072479       0.00052762
H       10.95288243       7.11548479      12.27329803       0.00525027       0.00163919      -0.00074327
H       11.08966928       8.25472879      10.92016244       0.00373504      -0.00090571      -0.00303459
H        6.70722701       6.76553975      10.29121869       0.00246394       0.00073685       0.00266509
H        6.78102272       7.16321163      12.01436231       0.00501517       0.00162161       0.00259468
H        6.91616978       8.44598540      10.80666996       0.00426781       0.00091434       0.00207821
H       12.25015622       9.18330006      12.91349788       0.00685161      -0.00221878      -0.00492601
H       10.84666566      10.17263672      12.52751381       0.00948613       0.00207081      -0.00634547
H       10.77105790       9.02289492      13.87552783       0.00625385       0.00476120      -0.00450717
O        9.67214187       9.20167231       2.00413166       0.00238881       0.00329953      -0.00613348
C        8.33759974       9.03081379       1.54838496       0.00062405      -0.00187314       0.00030783
C        9.88353421      10.49799364       2.53353945      -0.00102538       0.00421648      -0.00770146
C        8.18548405       7.64999467       0.95948906       0.00428315      -0.00335681       0.00155599
C       11.35860389      10.69185227       2.78856821       0.00007737       0.00820032      -0.01153314
H        7.64050223       9.17639981       2.38491364       0.00382578      -0.00360666       0.00184709
H        8.11196640       9.79767716       0.79335871      -0.00486431      -0.00399444      -0.00067642
H        9.51902749      11.24971735       1.81672084      -0.00428258       0.00360832      -0.00604096
H        9.30140711      10.62150848       3.46017756       0.00250992       0.00314285      -0.00509375
H        7.13523688       7.46440665       0.72663650       0.00306302      -0.00623595       0.00453269
H        8.76505439       7.55367655       0.04269588       0.00147107      -0.00370206       0.00198261
H        8.51462243       6.89471606       1.67296480       0.00613084      -0.00177141       0.00302452
H       11.55060570      11.68512153       3.19929279      -0.00154581       0.00936456      -0.01136010
H       11.73301102       9.95573808       3.49998886       0.00487795       0.00911953      -0.01366512
H       11.92964389      10.58106220       1.86426525      -0.00264658       0.01054087      -0.01378980
