190
Lattice="13.425572849591568 0.0 0.0 0.0 13.425572849591568 0.0 0.0 0.0 13.425572849591568" Properties=species:S:1:pos:R:3:forces:R:3 energy=-202345.59375 stress="-0.0042506796307861805 0.00047696431283839047 0.0002009863528655842 0.00047696431283839047 -0.0008559094276279211 -0.0002568848431110382 0.0002009863528655842 -0.0002568848431110382 -0.0028297165408730507" pbc="T T T"
Mg      12.25770301      13.63626422      -1.68865964      -0.00445127       0.00459459       0.00363907
O        9.10637373      11.78321554       5.29401199       0.01780134       0.00423419       0.02473569
O       10.29825964       9.46523963       4.35297302      -0.00686318       0.00831276      -0.00571376
O       10.76869011      12.05973331       3.28174005      -0.01121235       0.01240611       0.00314319
O        8.48684831      10.83708427       2.92766562      -0.02142596       0.02873784       0.02910805
Cr       9.68167829      11.08264430       3.96419645      -0.00430226       0.01220298       0.01213655
Cr      11.58015541       8.89667380       5.40032210      -0.00298810       0.01635623      -0.00501162
O       12.51715074       7.87555979       4.57660854       0.00206876       0.02120328      -0.00436425
O       12.41326007      10.16963604       5.87305408      -0.00842118       0.01991796      -0.00519842
O       10.95446900       8.14882859       6.68984534       0.00162446       0.01290727      -0.00529051
O        5.19883156       9.53268667       8.71533585      -0.00460207       0.00762765       0.00651301
O        6.54372718       7.84238735       8.70138540       0.00070383       0.01301959       0.00318428
O        7.42664724       9.92907547       8.79955196      -0.00604820       0.01582813       0.00049520
C        4.99216920      10.95808808       8.74201214      -0.00944990       0.00675857       0.00426703
C        3.51438746      11.21816728       8.62091645      -0.00938088       0.00238791      -0.00103604
C        6.49512633       9.17174714       8.73946853      -0.00501037       0.01112759       0.00334651
C        7.87574317       7.28936358       8.78204636       0.00275171       0.01791324      -0.00043352
H        5.40282672      11.34125788       9.68034711      -0.01345149       0.00907575       0.00513691
H        5.55427159      11.40136082       7.91796677      -0.00807491       0.00764631       0.00571838
H        3.33059177      12.29178110       8.69078052      -0.01280342       0.00141372      -0.00046731
H        3.14089391      10.86990861       7.66000980      -0.00447631       0.00216845      -0.00254130
H        2.96500298      10.72679282       9.42426806      -0.01056999      -0.00013302      -0.00381747
H        8.53119204       7.74740320       8.04603037      -0.00025547       0.02219871       0.00000152
H        7.74704661       6.22508676       8.60105132       0.00732790       0.01803264      -0.00280036
H        8.28984440       7.47171472       9.77042148       0.00349103       0.01725245      -0.00083911
O        1.87238501       8.15989712       5.69036682      -0.00094737      -0.00436532       0.00317141
O        2.52719852       8.69949821       3.71359985       0.00007668      -0.00256267       0.00442708
O        1.57649711      10.30634577       5.00025278       0.00356013      -0.00422788       0.00705546
C        1.23129419       8.41620560       6.95629236      -0.00452337      -0.00432707       0.00123709
C        2.08676904       7.87294331       8.07296722      -0.00424802       0.00061956       0.00296873
C        1.94156717       9.17506397       4.83270906       0.00109109      -0.00263226       0.00496086
C        2.73640876       9.66035552       2.67825189       0.00232902      -0.00115449       0.00647292
H        1.04471287       9.48312808       7.04292759      -0.00764780      -0.00490898      -0.00107768
H        0.27255233       7.90511805       6.92051619      -0.00298131      -0.00696993      -0.00035087
H        1.53163970       7.95066299       9.00619191      -0.00334942       0.00366192       0.00299548
H        2.31654688       6.81709215       7.91328905      -0.00297799       0.00057356       0.00677916
H        3.01964329       8.42332887       8.17200796      -0.00491850       0.00209212      -0.00022521
H        2.13356859       9.36227712       1.82344887       0.00796723      -0.00301825       0.00334096
H        3.78938439       9.66392338       2.42098917       0.00346744       0.00303350       0.01180048
H        2.44242811      10.64978931       3.02138474      -0.00321925      -0.00272202       0.00545961
O        1.19725503       3.10099519       1.47053928      -0.01037666      -0.00416335       0.00290477
O        1.71059894       5.18578018       1.27767799      -0.01050662      -0.00473663      -0.00058417
O        3.37416037       3.65158596       1.16962173      -0.01154804      -0.00504223      -0.00446478
C        1.59680411       1.71780412       1.60681899      -0.00990808      -0.00407740       0.00113896
C        0.39196830       0.93699482       2.05361894      -0.00788105      -0.00425732       0.00528911
C        2.20975587       3.95701554       1.29334207      -0.01090324      -0.00468454      -0.00103234
C        2.69233577       6.23514586       1.20798311      -0.01091991      -0.00507388      -0.00576497
H        1.96996495       1.37381405       0.63865405      -0.01327834      -0.00375885      -0.00023401
H        2.40846737       1.66243871       2.33227992      -0.00734460      -0.00417536      -0.00199872
H        0.67150772      -0.10384562       2.21527634      -0.00758777      -0.00441459       0.00250218
H       -0.00562438       1.33011129       2.98775945      -0.00357401      -0.00553441       0.00742292
H       -0.39970061       0.96251844       1.29708503      -0.01100505      -0.00297697       0.00902362
H        3.28908355       6.22755090       2.11709999      -0.01138128      -0.00012001      -0.00566244
H        2.10987569       7.14571463       1.14509766      -0.01094657      -0.00576448      -0.01096063
H        3.32920823       6.09575536       0.33539714      -0.01075429      -0.00969569      -0.00453213
O       10.18703664      10.56716861      11.82753629       0.00082836       0.00397474       0.00443269
O        8.72248837      11.66670786      10.71952491       0.00232312      -0.00059474      -0.00142553
O       10.54671079      12.76140066      11.43049248      -0.00061199       0.00276300      -0.00178754
C       11.49325547      10.42258407      12.44814236       0.00086942       0.00264838       0.00362679
C       11.77886509       8.95298677      12.52164720      -0.00103126       0.00231653       0.00200467
C        9.86464780      11.72550535      11.33808872       0.00108102       0.00200009       0.00024657
C        8.25443973      12.87365284      10.09309531       0.00576937      -0.00340420      -0.00937703
H       12.23106802      10.94157687      11.82332794       0.00075562       0.00263877       0.00407618
H       11.44633117      10.88880702      13.43222641       0.00377538       0.00164105       0.00402427
H       12.76244150       8.79265965      12.95929707      -0.00065733       0.00084907       0.00013697
H       11.03404527       8.45758449      13.13917914      -0.00035818       0.00307313       0.00323078
H       11.75628715       8.51463840      11.53222322      -0.00353014       0.00269668       0.00201941
H        7.99825590      13.61213438      10.84773132       0.01418633       0.00482942      -0.01528507
H        7.38419022      12.56276269       9.52966735       0.00179225      -0.00346231      -0.00248092
H        9.01570633      13.27051447       9.42389502       0.00524756      -0.01417337      -0.01536416
O       12.41625323       9.49603198       8.88869564      -0.00178710       0.00580749       0.00121486
O       12.63028750       7.38977977       9.29082383      -0.00154801       0.00551267      -0.00421018
O       10.58678668       8.32532684       9.54656299      -0.00000715       0.00431941      -0.00272235
C       11.59371082      10.65289392       8.61760948      -0.00287256       0.00540602       0.00219133
C       12.51747837      11.81708647       8.38292669      -0.00459588       0.00739443       0.00741178
C       11.74481006       8.39945722       9.23053414      -0.00207651       0.00517049      -0.00134449
C       12.07784627       6.13827099       9.69805663      -0.00230637       0.00330135      -0.01292265
H       10.98846324      10.43678165       7.74055276       0.00041664       0.00674933      -0.00030845
H       10.92539762      10.79434570       9.46412615      -0.00573799       0.00135857       0.00030980
H       11.92626994      12.70362975       8.14760181      -0.00570773       0.00564855       0.00502677
H       13.13382596      12.03169921       9.26511329      -0.00948074       0.00830873       0.01022869
H       13.16424198      11.61082832       7.53146799      -0.00059406       0.00931644       0.01039451
H       11.54202989       6.25013753      10.64121091      -0.00706375      -0.00170223      -0.01533702
H       12.92775922       5.47206803       9.82108703      -0.00252050       0.00336234      -0.01216641
H       11.39686677       5.76245335       8.93463300       0.00198358       0.00663187      -0.01817521
O        5.80279954       8.34171049       5.52437748       0.00545311      -0.01164597       0.00526726
O        6.43115613      10.34585603       5.03772367       0.00783288      -0.01374498       0.00037144
O        4.30885455      10.03385573       5.73302817       0.00801384      -0.00957984       0.00164130
C        4.75865069       7.40988605       5.90477535       0.00385875      -0.00831878       0.00814945
C        5.36093336       6.05653355       6.15362991       0.00270551      -0.00792170       0.01208340
C        5.40950362       9.61424257       5.45628026       0.00746572      -0.01146922       0.00243436
C        6.10301705      11.70952028       4.75108696       0.00975439      -0.01399194      -0.00128359
H        4.27398386       7.80516105       6.78853416       0.00498298      -0.00488245       0.00709617
H        4.02651810       7.37129132       5.10262726       0.00370872      -0.00954842       0.00853866
H        4.54761990       5.36723403       6.38003966       0.00247085      -0.00728983       0.01282964
H        5.87386108       5.68384451       5.27046082       0.00378362      -0.00983123       0.01371184
H        6.05098642       6.05915905       6.99313941       0.00161117      -0.00609660       0.01277974
H        5.39726172      11.75510892       3.92247053       0.01024282      -0.01464691      -0.00139219
H        7.05103145      12.16082956       4.48487711       0.00913528      -0.01577855      -0.00436044
H        5.66833711      12.19340257       5.62658167       0.01184025      -0.01263330      -0.00135052
O        8.08866968       2.70403995      10.46343569       0.00377064       0.00168665      -0.01163556
O        6.29909200       1.85632856       9.60804639       0.00784777       0.00495845      -0.01535177
O        7.16260461       3.72490055       8.66274350      -0.00092423       0.00171536       0.01430082
C        9.17101671       3.66442265      10.43778919       0.00063577       0.00710168      -0.00135970
C       10.01238599       3.41305901      11.66023326       0.00116998       0.00036301      -0.00364658
C        7.18187987       2.85722819       9.49595117       0.00262688       0.02073944      -0.01919395
C        5.24201965       1.89175921       8.63948214       0.00559769       0.01013914      -0.01371792
H        9.73048696       3.52439054       9.51060589       0.00106001       0.01774926      -0.00280121
H        8.74747716       4.66880221      10.42876805      -0.00488512       0.00488517       0.00670382
H       10.85612758       4.10271531      11.67925094      -0.00457999       0.00637215       0.00453641
H        9.43170432       3.54953563      12.57158610      -0.00098513      -0.01379512      -0.00367478
H       10.41676991       2.39336515      11.65709925       0.00853828       0.00399687      -0.01428042
H        4.73033100       2.85169301       8.67113542       0.00174412       0.00752011      -0.00217775
H        4.56859195       1.08809774       8.92276512       0.00928351       0.00439371      -0.02194583
H        5.63760294       1.72423222       7.63912864       0.00525247       0.02286278      -0.01573697
O       11.19450744       7.57888874       1.97274510       0.00314528      -0.00561547       0.00076300
O       11.95703989       9.57710598       2.03222407      -0.00255945      -0.00307843       0.00252923
O       13.43516947       7.88016226       1.77639053       0.00204468       0.00183076       0.00192297
C       11.36373277       6.15468921       1.94567247       0.01156050      -0.00497565      -0.00121796
C        9.98513666       5.57677047       1.73765896       0.01601142      -0.01384026      -0.00308744
C       12.31650220       8.29943616       1.95136776       0.00039029      -0.00155926       0.00176784
C       13.02615515      10.52080529       2.12752729      -0.00452489      -0.00245652       0.01390742
H       12.05743954       5.88308785       1.14764443       0.01401722      -0.00030662      -0.00047854
H       11.80625155       5.85009668       2.89636471       0.01260453      -0.00385612      -0.00148463
H       10.02330971       4.48730425       1.74800413       0.02386852      -0.01337320      -0.00619683
H        9.30965777       5.90092477       2.52782270       0.01355188      -0.02124519      -0.00251687
H        9.56992496       5.90793527       0.78445294       0.01427936      -0.01428321      -0.00219803
H       13.56505981      10.38148309       3.06278784      -0.00541604      -0.01184608       0.01268685
H       12.52954920      11.48612567       2.14173838      -0.00626001      -0.00372782       0.02384406
H       13.70376805      10.41946892       1.27645584      -0.00302371       0.00736018       0.01423818
O        6.55710244      11.40305802       1.08156035      -0.00912069       0.00020760      -0.01696718
O        5.89257014       9.57710719       2.03581876      -0.00320652      -0.00045802      -0.01614213
O        7.22559235       9.40720378       0.22667282       0.03456426       0.00351274       0.01305199
C        7.48867120      12.08343021       0.21757644      -0.01333769       0.00888056      -0.01383772
C        8.21251672      13.17321469       0.97137301      -0.01900187       0.00804004      -0.00779942
C        6.63578748      10.07164743       1.04164671       0.00982982       0.00145823      -0.00461751
C        5.86029399       8.14539619       2.07961861       0.01213901       0.00023688      -0.00535406
H        8.17584833      11.33436643      -0.16473927      -0.01064658       0.01456350      -0.01923977
H        6.90638946      12.48826321      -0.61456692      -0.01658189       0.01057243      -0.01057646
H        8.81191339      13.75270865       0.26349368      -0.01801630       0.01188380      -0.00336444
H        7.51242028      13.85367239       1.45269406      -0.02311778       0.00429860      -0.00897410
H        8.87496751      12.75066433       1.72591244      -0.02212921       0.00727957      -0.00558472
H        5.26805642       7.75872698       1.24946094       0.03151536      -0.01371855      -0.01187608
H        5.39744464       7.89013256       3.02764943      -0.00198846       0.00222024      -0.01225716
H        6.86839167       7.74335723       2.02342283       0.01731420       0.01251297       0.01641530
O        4.33746078       3.56480496      11.52529972       0.00145410      -0.00443716      -0.00365350
O        4.76375507       5.67022126      11.30586303       0.00186232      -0.00449482       0.00105430
O        2.64489581       4.95271628      10.94176321       0.00085366      -0.00231700       0.00467685
C        3.39324385       2.47766790      11.60545481       0.00177962      -0.00451899      -0.00591689
C        4.11157993       1.31081936      12.23100633       0.00173968      -0.00516137      -0.00775564
C        3.79972663       4.75070086      11.22730547       0.00145972      -0.00366172       0.00117105
C        4.34622664       7.00285380      10.95634356       0.00240628      -0.00385945       0.00370145
H        2.53988215       2.80080062      12.20169785       0.00161278      -0.00580442      -0.00583494
H        3.02944854       2.25548395      10.59910707       0.00259791      -0.00299110      -0.00636798
H        3.44069206       0.45226011      12.28876096       0.00226685      -0.00547395      -0.00989262
H        4.98556998       1.03396393      11.64261777       0.00205667      -0.00370908      -0.00772953
H        4.43119431       1.57106713      13.23911741       0.00089075      -0.00701880      -0.00726262
H        4.15228203       7.06805988       9.88929828       0.00297654      -0.00152577       0.00397095
H        5.17935161       7.64479289      11.22265195       0.00251073      -0.00488175       0.00509300
H        3.44723297       7.27379922      11.50799360       0.00256485      -0.00463616       0.00392196
O        3.95286347       2.80579525       4.18686083      -0.00793636       0.00023404       0.00132388
O        1.89228785       3.32317338       4.58847849      -0.00561661       0.00486556       0.00519046
O        3.34464219       4.98920623       4.11455301      -0.00325352       0.00100541       0.00096612
C        5.29747602       3.17257662       3.78564871      -0.00775406      -0.00235981       0.00088601
C        5.94562691       1.95698797       3.18378095      -0.00958388      -0.00400794       0.00295393
C        3.09086655       3.82266510       4.28297717      -0.00543493       0.00230873       0.00223257
C        0.85164804       4.31899887       4.72240914      -0.00346742       0.00667979       0.00472707
H        5.22926022       3.99083491       3.07128340      -0.00642514      -0.00336167      -0.00011218
H        5.83810879       3.51407632       4.66892473      -0.00751448      -0.00171338       0.00029051
H        6.97084626       2.20654720       2.91279081      -0.00875597      -0.00661283       0.00438464
H        5.98306304       1.13129880       3.89437146      -0.01289787      -0.00355977       0.00336018
H        5.40757588       1.63361797       2.29332070      -0.00892380      -0.00322776       0.00248846
H        1.05326239       4.95673769       5.58053373       0.00285728       0.01295923      -0.00182208
H       -0.06528081       3.75763178       4.87219291      -0.00262383       0.00859490       0.01464511
H        0.79740931       4.93153638       3.82622555      -0.00847879      -0.00019348       0.00072423
O        8.77307737       4.70896353       5.04044477       0.01549345      -0.00924224       0.00069506
O        8.67685968       2.55676270       5.01927359       0.01347782      -0.00775015      -0.00155137
O       10.56988236       3.54459556       5.77840595       0.01132655      -0.01087245       0.00767779
C        9.46797138       5.96081492       5.33769687       0.01358300      -0.00902545       0.00076817
C        8.46996918       7.05442851       5.11798051       0.01145697      -0.01189947      -0.00206551
C        9.45230127       3.60559168       5.32436188       0.01304793      -0.00964331       0.00256971
C        9.26689581       1.26974736       5.28057278       0.00848003      -0.00943647      -0.00011012
H        9.82493790       5.92877306       6.36525519       0.01246476      -0.00758155       0.00112653
H       10.34338672       6.03472153       4.69197257       0.01412082      -0.00795630       0.00157231
H        8.93565681       8.02852427       5.22520829       0.00967795      -0.01056293      -0.00981352
H        8.03483293       7.00700056       4.11905123       0.00900493      -0.02006393      -0.00034551
H        7.66471205       6.97897734       5.83615031       0.01323280      -0.00957929       0.00028352
H       10.11083655       1.08269097       4.62000236       0.00737935      -0.01374707       0.00003290
H        8.49076145       0.53883699       5.09325515       0.00527078      -0.00556424       0.00030930
H        9.59197935       1.20563730       6.31729616       0.00755365      -0.01020888      -0.00009751
