191
Lattice="13.014677578216103 0.0 0.0 0.0 13.014677578216103 0.0 0.0 0.0 13.014677578216103" Properties=species:S:1:pos:R:3:forces:R:3 energy=-162799.453125 stress="-0.003044661832973361 0.0013474790030159056 -0.0005961426068097353 0.0013474790030159056 -0.002498413436114788 5.677145054505672e-05 -0.0005961426068097353 5.677145054505672e-05 -0.0019431400578469038" pbc="T T T"
Mg      13.96730937      12.83558842       3.90202801       0.00387958       0.03401444       0.03083755
S        7.58262629      10.23171463       5.17004867      -0.00010329      -0.00181597       0.00389260
S       11.87889879      11.17227529       5.39910860       0.01961911       0.01877314      -0.01881364
S        8.81500807      11.97923574       4.62752074       0.00157864      -0.00385373      -0.00306818
S       10.16535119      12.21547905       6.08831797       0.01090276       0.00291406      -0.01316932
O        7.79525117      10.02517283       6.58990382       0.00103335       0.00291339       0.00362372
O       12.35382304      11.89281138       4.15292497       0.02253607       0.01900673      -0.01551971
O        8.00786354       9.14524193       4.30397455      -0.00039971      -0.00456661       0.00641567
O        6.26587616      10.76368207       4.81093721       0.00070608      -0.00294888       0.00302857
O       12.88119057      11.38440449       6.44220324       0.01496050       0.01774990      -0.01899496
O       11.48626096       9.82397731       5.10907353       0.02116209       0.01653922      -0.02856725
O       13.21137326       6.70912119       5.56272753       0.00974786       0.00679970       0.00060499
N       12.63792738       7.45403413       7.65488289      -0.00061788      -0.00412753       0.00042590
C       12.43041573       6.14508892       8.22444223       0.00654194      -0.00700953      -0.00288218
C       12.33350304       8.59313997       8.48666739      -0.00715489      -0.00853847       0.00385252
C       13.04722913       7.60617148       6.37206609       0.00006437       0.00183600       0.00164425
H       11.38486351       6.02696329       8.53190823       0.00756484      -0.01270325      -0.00275788
H       13.08584164       6.02140218       9.09152888       0.00733635      -0.00639640      -0.00366679
H       12.66050011       5.38085345       7.48547624       0.00963576      -0.00337952      -0.00510058
H       11.26576836       8.62005008       8.73197101      -0.00654662      -0.01678345       0.00573301
H       12.57752951       9.51523891       7.96163432      -0.01470464      -0.00603858       0.00494178
H       12.90517278       8.55210309       9.41967261      -0.00493160      -0.00588034       0.00216013
H       13.21958182       8.66177058       6.12853646      -0.00905641       0.00445634       0.00428736
O        3.06869075       7.18922846       3.58652370       0.01230121       0.00867867      -0.00554889
N        2.57688820       9.37234209       3.97917107      -0.00846797       0.00218753      -0.00039493
C        1.27188672       9.23287622       3.36469559      -0.00370438      -0.00967875      -0.00822209
C        3.11803919      10.69417103       4.12429770      -0.01741996       0.00561963       0.00144073
C        3.39313020       8.28741851       3.99339179       0.00123650       0.01066530      -0.00333863
H        1.32951455       9.42413007       2.28859957       0.00494803      -0.02396616      -0.00949860
H        0.58109091       9.93266991       3.82276204      -0.00930649      -0.00563373      -0.02512927
H        0.90778786       8.22699084       3.55311954      -0.00128396      -0.00819921       0.00205909
H        3.30241365      11.15227531       3.14677156      -0.02306206       0.00738961       0.00189406
H        4.06005325      10.69082058       4.67498971      -0.01690927       0.01079163       0.00012821
H        2.41163679      11.32769806       4.72465202      -0.02157290      -0.00244695       0.00296941
H        4.39226893       8.51087000       4.40735179      -0.00096136       0.02011688      -0.00382450
O       10.59462055      10.32307533       2.21089864       0.00378144       0.00643396      -0.03317189
N       11.49397433       8.26036118       1.79528542       0.00474176      -0.00633657      -0.00358562
C       10.55747148       7.51214075       2.60905492       0.00776717       0.00745036       0.00914261
C       12.54033060       7.52587356       1.13097121       0.00155202      -0.02168742       0.00100404
C       11.44037740       9.60754174       1.70715845       0.01437026      -0.01762056      -0.03500521
H       11.09794971       6.92878546       3.35739359       0.00809693       0.01994751       0.01665062
H        9.98894576       6.81345956       1.99006797       0.00190100       0.00217378       0.02277052
H        9.88344143       8.20612705       3.10594673       0.01212366       0.02141660      -0.00137939
H       13.19788185       7.02878411       1.84935459       0.00496119      -0.01322781       0.00428617
H       13.12145334       8.22699837       0.54027435      -0.00061531      -0.03410509      -0.01429914
H       12.12432358       6.76402921       0.46714398      -0.00714678      -0.03058012       0.01670231
H       12.26494202      10.01210514       1.08940841       0.00303638      -0.01833379      -0.02478680
O       13.48059553       1.41645200       3.10305896       0.00318176       0.02074558       0.01184192
N       11.52493964       2.49631326       2.65759094       0.00136563       0.00770652      -0.00013531
C       10.88150187       2.21530746       3.93526304       0.00124973       0.01000723      -0.00000370
C       10.71624382       3.20033908       1.67643499       0.00136936      -0.00009668      -0.00459281
C       12.72402423       2.08764811       2.35324801       0.00378650       0.01070923       0.00391120
H       10.02811732       1.56095799       3.74939405       0.00591820       0.00281359       0.00435378
H       10.54154608       3.14944863       4.37855382      -0.00496289       0.01010552      -0.00620863
H       11.58180853       1.73251987       4.60630603       0.00314036       0.01959664       0.00511128
H        9.84473955       2.58393011       1.46033913       0.00396857      -0.00434235      -0.00293482
H       11.30392100       3.34288070       0.77198966       0.00371642      -0.00387983      -0.00339693
H       10.39154793       4.15255099       2.08965555       0.00158009       0.00094506      -0.00756904
H       13.07959434       2.37934603       1.36192345       0.00770775       0.00501760       0.00376902
O        3.05943209       2.93830034       3.75410613       0.00555751      -0.03365498       0.01522887
N        3.14905718       1.80555816       1.77429940      -0.00033533      -0.01181648       0.00344270
C        3.18310716       0.52646353       2.42257620      -0.01204721      -0.01769367      -0.00883171
C        3.26359692       1.83051702       0.32537624       0.00032417      -0.00082367       0.00419182
C        3.09148598       2.92695884       2.53494637       0.00688765      -0.02014643       0.01363564
H        4.12503130      -0.00358876       2.25357212      -0.01479611      -0.02214375      -0.00839937
H        2.38145105      -0.12435199       2.02015260      -0.01673517      -0.00676060      -0.01329907
H        3.09952826       0.70813308       3.50703671      -0.00910060      -0.02487862      -0.00720830
H        4.17365553       1.33055659      -0.00506791      -0.00328970      -0.00536822       0.00159284
H        3.30984966       2.86122052      -0.01719063       0.00784427       0.00116348       0.01220312
H        2.40614121       1.32793205      -0.13263240      -0.00304583       0.00907631       0.00065613
H        3.07942881       3.84275862       1.92087281       0.01317225      -0.01403123       0.02455026
O        8.88309047       4.96833716       3.36412391       0.00177205      -0.00301367       0.00249773
N        6.65410415       4.89171924       3.84876686       0.00196560      -0.00309466       0.00116263
C        6.64526111       3.50006175       4.23957501      -0.00089428      -0.00459425      -0.00581501
C        5.39265680       5.59221025       3.89171785       0.00229865      -0.00352937      -0.00283596
C        7.78312651       5.49980574       3.45350033       0.00227368      -0.00249946       0.00420363
H        6.07836028       2.90350231       3.52027251       0.00387384       0.00041597      -0.01340267
H        6.15899080       3.40200332       5.21087357      -0.00645198      -0.00880490      -0.00925508
H        7.66877913       3.13842825       4.29049739      -0.00155559      -0.00535850      -0.00116443
H        4.63559756       5.06338795       3.31667025       0.00481489       0.00132614      -0.00972438
H        5.52392762       6.58752369       3.47789571       0.00348394      -0.00044140       0.00593198
H        5.01613301       5.67878882       4.91267469      -0.00484722      -0.01288640      -0.00606364
H        7.62176298       6.56537279       3.21290398       0.00293653      -0.00153452       0.00915059
O       12.94823529       2.96498099       7.54006782       0.00432187      -0.01800148      -0.00840724
N       12.17837694       1.71607018       9.29319710       0.00444600      -0.00801864       0.00213082
C       12.48505117       0.45497939       8.66137234       0.00397369      -0.01219121       0.01581510
C       11.72443412       1.68905696      10.65868336      -0.00119031      -0.00071940       0.00443001
C       12.45405182       2.87686373       8.64551362      -0.00465560      -0.00886360       0.01270330
H       11.63533640      -0.22516505       8.73933875       0.00362971      -0.01036911       0.01153477
H       13.35861008      -0.02033370       9.11748242       0.00094947      -0.01067553       0.02114636
H       12.69708875       0.64218791       7.61469579       0.01009149      -0.01660052       0.01395401
H       10.81815638       1.08464310      10.75823274      -0.00312299       0.00047100       0.00461769
H       11.49909006       2.70311890      10.98742481      -0.00024104       0.00000942      -0.00062508
H       12.48663539       1.26547367      11.32290297      -0.00429088      -0.00013539       0.00895612
H       12.17562038       3.75870578       9.25006224       0.00130334      -0.01303780      -0.00843415
O        5.67996019       3.83054526      12.16799564      -0.00528890       0.00881399       0.01287067
N        7.64823547       3.44303821      11.07255038      -0.01258597       0.00621857       0.00230454
C        8.32408923       2.89727618      12.22397503      -0.00844742       0.00411607      -0.00135984
C        8.43263528       3.61481855       9.87437000      -0.01996269      -0.00003432      -0.00294162
C        6.35871310       3.85433813      11.15204535      -0.01048964       0.00703032       0.00793988
H        9.14818828       3.55182486      12.52295073      -0.00398740       0.00033101      -0.00669070
H        8.73476274       1.91023911      12.00463973      -0.01498893       0.00219414      -0.00322690
H        7.62032186       2.79929640      13.04435704      -0.00441641       0.00796069       0.00251767
H        9.25752861       4.31670583      10.04044967      -0.01592651      -0.00370190      -0.00985071
H        7.80286008       4.01002063       9.08255223      -0.02331936       0.00134832       0.00054629
H        8.86925144       2.67168366       9.54044968      -0.02674324      -0.00283667      -0.00321255
H        5.97450338       4.22206567      10.18938188      -0.01693338       0.00548664       0.01070398
O        9.86035849       4.02616983       6.68164113      -0.01264608      -0.01658392      -0.00344472
N        8.61524502       5.94883300       6.53008519      -0.00226662      -0.00819266       0.00063067
C        9.71639500       6.84239672       6.22931468       0.00057323      -0.01312192      -0.00213127
C        7.31069796       6.55313388       6.66562297       0.00108914      -0.00090772       0.00324900
C        8.79563689       4.62565449       6.69577184      -0.01119202      -0.00808358      -0.00075195
H        9.90663859       7.51327512       7.07183527       0.00379414      -0.01233277      -0.00374922
H        9.45120723       7.46995166       5.37912194       0.00280535      -0.01420960      -0.00341901
H       10.60519080       6.25707210       6.01277580      -0.00196880      -0.01707238      -0.00131666
H        7.29059742       7.21753866       7.52977634       0.00767914       0.00202429       0.00099534
H        6.55906779       5.77790642       6.81070799      -0.00207375       0.00352407       0.00847462
H        7.07286030       7.14136020       5.77694282       0.00044692      -0.00252438       0.00254768
H        7.83361797       4.10578868       6.86183089      -0.01199472      -0.00296760       0.00081360
O        2.10163594       9.54959650       0.00862647       0.00442228      -0.00594759      -0.01302636
N        3.55003456       7.80546752       0.33045415       0.00394510      -0.00493328      -0.01145814
C        4.59919158       8.60756336       0.91182895       0.00292003      -0.00668253      -0.00792924
C        3.75197437       6.37215296       0.27542381       0.00666946      -0.00360498      -0.01993633
C        2.41326090       8.36698746      -0.10784006       0.00452459      -0.00295824      -0.01396044
H        5.48347248       8.58722835       0.27145428       0.00254604      -0.00237590      -0.00854084
H        4.87907419       8.22289209       1.89284458       0.00342504      -0.01227699      -0.01046306
H        4.24938360       9.63272021       1.00270417       0.00222738      -0.00769654      -0.00180436
H        4.60866676       6.10114815      -0.34021151       0.00471100       0.00182407      -0.02444856
H        2.87065801       5.90534074      -0.15921522       0.00629762      -0.00355804      -0.01883785
H        3.89711445       5.99407850       1.28935748       0.01284676      -0.00946462      -0.02320191
H        1.76242942       7.63146424      -0.60442907       0.00687137      -0.00413975      -0.01639888
O        5.39096722      13.11752022      11.50021964       0.02561003       0.01005077       0.01326582
N        5.68880090      10.94926770      10.84010292       0.01128593       0.01074070       0.00596201
C        4.27430890      10.64915116      10.73539599       0.00970748       0.02045703       0.00359627
C        6.62193579       9.89360034      10.51903553       0.00465239       0.00774314      -0.00193247
C        6.10948973      12.16860655      11.22205917       0.01889518       0.00665510       0.00963458
H        3.96144137       9.97056269      11.52851233       0.00408864       0.01870134      -0.00027266
H        4.07099190      10.16979224       9.78013277       0.00770204       0.02714209       0.00081122
H        3.70869946      11.57179687      10.82232386       0.01563445       0.02340001       0.00749937
H        6.36197601       8.97874603      11.05542743      -0.00322118       0.00474733      -0.01156625
H        7.62612191      10.20212867      10.80380504       0.00586665      -0.00270727       0.00391102
H        6.61607024       9.66282396       9.45356682       0.00655721       0.01844180      -0.00409791
H        7.20994773      12.22960794      11.26887613       0.01921624      -0.00075709       0.00859849
O        2.78464265       7.18138127       9.36684643      -0.01393402       0.02655333       0.03260219
N        3.77543499       8.66796959       7.94169698      -0.00748414       0.00331312       0.01334563
C        2.55325903       9.37504031       7.65669600      -0.00277310       0.00882259       0.00774892
C        4.98861006       9.20149741       7.37640302      -0.00518636      -0.01119827       0.00530270
C        3.77170623       7.60463596       8.78406556      -0.01255679       0.01450366       0.02637762
H        2.39022527       9.42826202       6.57946148      -0.00519412      -0.00238821       0.00779364
H        2.58068605      10.39355378       8.05646315       0.00603139       0.01259825      -0.00404684
H        1.74136582       8.82770171       8.11707728      -0.00587586       0.02117531       0.01605199
H        4.96443887       9.19459854       6.28735941      -0.00703113      -0.02439459       0.00567722
H        5.84229472       8.61873970       7.70222448      -0.00842004      -0.01191451       0.01202811
H        5.14317932      10.24102991       7.68297400       0.00091422      -0.00886005      -0.00746708
H        4.77270499       7.15945350       8.90034439      -0.01599169       0.00697070       0.02578598
O        6.90750489       6.72011749       9.97294081       0.00217915       0.00660457       0.00481126
N        8.59813120       6.76161596      11.50885221       0.00471155       0.00402126       0.00230825
C        7.74755631       6.50402420      12.65332640       0.00640893       0.00694916       0.00394264
C       10.01477276       6.87853810      11.75216652       0.00545412       0.00013420       0.00050167
C        8.08797523       6.83318626      10.26246359       0.00416934       0.00415180       0.00376731
H        7.83273972       7.31820478      13.37569634       0.00905052       0.00750965       0.00269562
H        8.03539766       5.57238596      13.14428595       0.00545250       0.00709110       0.00440457
H        6.72274277       6.41062327      12.31018904       0.00577503       0.00873361       0.00589569
H       10.21730238       7.68750682      12.45801697       0.00769600      -0.00400937       0.00421512
H       10.53346185       7.08277963      10.81723532       0.00413909       0.00426051       0.00100973
H       10.40614187       5.94857748      12.17656215       0.00445979      -0.00252441      -0.00508484
H        8.86885439       7.01448340       9.50262537       0.00263995       0.00167960       0.00241220
O        8.82163587      13.53021655       1.21231307       0.00379218       0.01254463      -0.00170618
N        7.87074022      11.45693698       1.05175546       0.00024363       0.01529260       0.00466368
C        6.58833363      11.85065569       1.59424096       0.00292496       0.01962941       0.00751359
C        8.05224077      10.04898761       0.78629972      -0.00554602       0.01520379       0.00360274
C        8.88093712      12.33963188       0.92724422       0.00070760       0.01395094      -0.00052662
H        6.37392556      11.28330240       2.50355463       0.00487870       0.02349302       0.01025432
H        5.80197356      11.67192055       0.85467941       0.00094309       0.01714008       0.01065442
H        6.62653735      12.91287259       1.82232776       0.00501332       0.02031225       0.00218213
H        8.03711982       9.47853898       1.71925393      -0.00413985       0.01488085       0.00321013
H        9.01327846       9.89088436       0.30296076      -0.00737333       0.01223892       0.00161228
H        7.26127392       9.69496175       0.12348467      -0.00895655       0.01796148       0.00628492
H        9.79247031      11.87410113       0.52682152      -0.00108701       0.01137862      -0.00317027
O        4.53662034       2.39389211       8.10583352       0.01024628       0.01521552      -0.00431567
N        6.34179649       1.02308534       7.81454414      -0.00657402      -0.00615402      -0.00416961
C        6.11202523       0.81010901       6.40313663      -0.01037494      -0.00569180      -0.00335066
C        7.54348148       0.45623048       8.37587741      -0.00947480      -0.01368033      -0.00615088
C        5.50118554       1.79230079       8.54781073       0.00437582       0.00487095      -0.00452173
H        6.04596648      -0.25703530       6.18500559      -0.01448515      -0.00540793      -0.00224169
H        6.94313603       1.21052944       5.81838770      -0.01031181      -0.00916833      -0.00532910
H        5.18779909       1.31392445       6.12942716      -0.00885239      -0.00255691      -0.00193807
H        7.58247945      -0.62476507       8.21351037      -0.01686824      -0.01364678      -0.00621787
H        7.56901695       0.66439252       9.44485655      -0.00634552      -0.01398323      -0.00649604
H        8.43103960       0.89850172       7.90972684      -0.00782850      -0.01909035      -0.00758708
H        5.77592758       1.80818117       9.61496244       0.00643437       0.00408506      -0.00542355
