191
Lattice="13.760174748172764 0.0 0.0 0.0 13.760174748172764 0.0 0.0 0.0 13.760174748172764" Properties=species:S:1:pos:R:3:forces:R:3 energy=-241014.421875 stress="-0.0005479435785673559 0.0004403755156090483 -2.426365972496569e-05 0.0004403755156090483 -3.673396349768154e-05 4.498488851822913e-05 -2.426365972496569e-05 4.498488851822913e-05 -0.0004460110794752836" pbc="T T T"
Mg      16.88157764      14.44235780       2.92323721       0.01055011       0.01081974      -0.01135117
Br       3.92022258      13.26954220       0.54127588       0.01001088       0.00285249      -0.00928748
O        3.41916648      11.85209858      -0.01800146      -0.00070592       0.00591205      -0.00014051
O        4.51587023      13.17890526       2.10910500       0.01022835       0.00877151      -0.00815314
O        5.01523426      13.96159408      -0.41472959       0.01373395      -0.00884886      -0.01439725
O        2.65514812      14.31353663       0.85765148       0.01825638       0.01621669      -0.01240562
Br       1.72803961      13.18102698       5.01098024       0.02186869      -0.01577915      -0.01386940
O        1.40791387      13.24589863       3.37501969       0.01162598       0.01749406      -0.01580685
O        0.68496861      14.07227899       5.84849253      -0.00475237       0.00836419      -0.00517537
O        1.81183379      11.67557139       5.55093888       0.01516108       0.02488628      -0.02456636
O        3.22250303      13.94388518       4.93809508       0.00903611       0.02325143      -0.01168404
O        9.55318981      10.93079013      11.26649654      -0.00079979      -0.00046611      -0.00013357
C        8.41611940      11.74236245      11.48802481      -0.00071442      -0.00079198       0.00180373
C       10.72602660      11.69093043      11.04933242      -0.00112838      -0.00041607      -0.00130448
C        7.21282960      10.84957445      11.67252857      -0.00017598      -0.00101697       0.00307947
C       11.86459080      10.74960666      10.74230447      -0.00138888      -0.00009310      -0.00205134
H        8.57399912      12.37741361      12.37436585       0.00044971      -0.00121173       0.00196618
H        8.27170027      12.41533695      10.62838648      -0.00202754      -0.00039479       0.00243258
H       10.56549040      12.38945713      10.21233055      -0.00201364      -0.00052461      -0.00135836
H       10.94542526      12.30062260      11.93952571      -0.00045042      -0.00014859      -0.00167066
H        6.31426951      11.44983869      11.82447623       0.00013466      -0.00110815       0.00520234
H        7.07447658      10.21652137      10.79557056      -0.00175512      -0.00036368       0.00282678
H        7.34624700      10.20620407      12.54313343       0.00133295      -0.00179199       0.00231014
H       12.78624001      11.31176629      10.58806864      -0.00144802      -0.00004174      -0.00227108
H       12.01626226      10.05585353      11.56972709      -0.00094561      -0.00042020      -0.00236188
H       11.65931565      10.17379658       9.83931822      -0.00155202       0.00008929      -0.00220272
O        5.25111596       1.68440230      10.42234691      -0.00075322      -0.00139004      -0.00219056
C        4.47770091       0.57709142       9.98280315       0.00071675      -0.00030679      -0.00721101
C        6.58911996       1.30515788      10.68278351       0.00046790      -0.00016138      -0.00676401
C        3.07086933       1.04108703       9.69972858      -0.00016487      -0.00098118      -0.00408379
C        7.37223715       2.52209782      11.10799250      -0.00151595      -0.00109076      -0.00088774
H        4.93746236       0.14808623       9.08040052       0.00082490       0.00481667      -0.00947100
H        4.48202093      -0.20474535      10.75494875       0.00214086      -0.00401703      -0.01111063
H        6.61305362       0.53687153      11.46776067       0.00373554      -0.00466949      -0.01146829
H        7.02623106       0.85692770       9.77635406      -0.00031479       0.00618869      -0.01022875
H        2.47595153       0.22041278       9.29600556       0.00111971       0.00042298      -0.00864675
H        2.59493257       1.39704105      10.61384496      -0.00031655      -0.00698922      -0.00181656
H        3.07588913       1.85571909       8.97473427      -0.00181695       0.00332583       0.00084183
H        8.41456464       2.25918008      11.29714985      -0.00063017      -0.00010845      -0.00403033
H        7.34797768       3.29268310      10.33655893      -0.00423183       0.00336249       0.00365175
H        6.95504647       2.94280966      12.02403119      -0.00093640      -0.00736203       0.00209187
O       12.13736367       9.04854098       7.29442737       0.00188481       0.00459041      -0.00145110
C       12.25039036       9.80353598       6.09912297       0.00407858       0.00509453      -0.00130803
C       12.27299844       7.66253773       7.05991882       0.00128553       0.00479004      -0.00213346
C       12.05434351      11.26148021       6.42795955       0.00800977       0.00549728       0.00009839
C       12.18589431       6.93385221       8.37639257      -0.00049090       0.00430214      -0.00231522
H       13.23817098       9.63343703       5.64739077       0.00278789       0.00267222      -0.00154667
H       11.49428534       9.45791481       5.37643497       0.00236246       0.00777249      -0.00109521
H       11.47901161       7.32398507       6.37371483       0.00179997       0.00545439      -0.00300443
H       13.23432474       7.45911742       6.56379394       0.00166577       0.00442152      -0.00106773
H       12.11963674      11.86710119       5.52361719       0.00904738       0.00588648       0.00020511
H       11.07591074      11.42073392       6.88247657       0.00901982       0.00792252       0.00103760
H       12.82115543      11.60339098       7.12248112       0.00986402       0.00286258      -0.00086167
H       12.28186066       5.85913360       8.21761603       0.00029967       0.00426078      -0.00266373
H       12.98533407       7.25675553       9.04394565      -0.00144182       0.00438222      -0.00128664
H       11.23099683       7.12943708       8.86670549      -0.00103252       0.00366440      -0.00372750
O        3.54863348       8.75575613       6.52676580       0.00680070      -0.00544909       0.00126320
C        3.95149678       9.26196485       5.26137906       0.00507486      -0.00544590      -0.00001155
C        2.71443348       7.62736709       6.39549729       0.00403517      -0.00279287       0.00261587
C        4.82369244      10.47285142       5.48236747       0.00688297      -0.00660235      -0.00117418
C        2.26293731       7.19765533       7.77012062       0.00354329      -0.00079402       0.00321990
H        4.49022991       8.47859892       4.70767828       0.00389537      -0.00656587      -0.00062281
H        3.06794594       9.52651157       4.66762608       0.00489044      -0.00509682       0.00213137
H        1.84702755       7.87491788       5.76141778       0.00417894      -0.00128721       0.00314543
H        3.25865882       6.81363356       5.88793024       0.00145254      -0.00506273       0.00264189
H        5.07255975      10.93367682       4.52556223       0.00284493      -0.00497954      -0.00192310
H        4.29583811      11.20797623       6.08844558       0.00922780      -0.00770597       0.00197197
H        5.74617575      10.20251813       5.99800592       0.00889328      -0.00760449      -0.00606862
H        1.63317619       6.30858268       7.70731489       0.00075684       0.00116709       0.00402788
H        3.12530262       6.96797608       8.39716263       0.00302956      -0.00311358       0.00296459
H        1.69407507       7.99657837       8.24740966       0.00612805       0.00108002       0.00320070
O       10.76512366       1.09613063       1.97207036       0.00165775      -0.00643775       0.00339460
C       11.55046147       1.06419401       0.79650041      -0.00216961      -0.00776236       0.00095366
C        9.41009490       0.77370101       1.72079023       0.00114936      -0.00879239       0.00782746
C       12.96663093       1.42583489       1.16641993      -0.00117493      -0.00412199      -0.00579816
C        8.69481749       0.65257841       3.04359260       0.00442733      -0.00613555       0.00985157
H       11.51051159       0.05943406       0.35009360      -0.00201863      -0.00881517       0.00349583
H       11.14471590       1.76872627       0.05615096      -0.00620010      -0.01038849       0.00062114
H        8.95247461       1.55525821       1.09189083      -0.00121450      -0.01096612       0.00696692
H        9.35074590      -0.17004158       1.15722693       0.00109292      -0.01028889       0.01049505
H       13.63155157       1.34549898       0.30682746      -0.00538354      -0.00425663      -0.00908524
H       13.01172320       2.44819196       1.54700927      -0.00123997      -0.00335732      -0.00808002
H       13.32736059       0.74625275       1.93950049       0.00471847      -0.00190575      -0.00669160
H        7.64193210       0.41801428       2.88765824       0.00481625      -0.00964655       0.01326922
H        9.14382304      -0.14012685       3.64202734       0.00763306      -0.00315171       0.01135937
H        8.77464184       1.58350992       3.60724305       0.00292062      -0.00425881       0.00697844
O       10.59559517       2.78612863       5.96458741      -0.00728196      -0.00406122      -0.00208500
C       11.60868308       3.73422157       5.68907388      -0.01065950      -0.00195757      -0.00611615
C       10.37355407       2.63003047       7.35187781      -0.00374705      -0.00257063      -0.00126028
C       11.79906993       3.80211650       4.19476091      -0.01579792      -0.00222985      -0.00667053
C        9.32492432       1.56599771       7.55786698      -0.00193992      -0.00339863       0.00229007
H       11.31910149       4.71660676       6.09607119      -0.01124245      -0.00265911      -0.00543208
H       12.54232129       3.43447162       6.19063114      -0.00792405       0.00016323      -0.00922117
H       11.31437476       2.35252195       7.85073007      -0.00203508      -0.00099103      -0.00328772
H       10.04695319       3.58962178       7.78568332      -0.00346780      -0.00246015      -0.00168678
H       12.55114253       4.55133184       3.94065230      -0.02295323       0.00377970      -0.01007641
H       12.10102188       2.83075003       3.80452505      -0.00919530       0.00006598      -0.00716814
H       10.86656697       4.07498645       3.70237199      -0.01932313      -0.00989842      -0.00362745
H        9.12666901       1.42953250       8.62170597       0.00107389      -0.00304447       0.00287221
H        8.39237785       1.84632224       7.06626972      -0.00355080      -0.00454589       0.00464405
H        9.66090464       0.61696949       7.13931570      -0.00222488      -0.00322337       0.00179957
O        3.03247593       5.23322509      12.34066188       0.00235206      -0.00224292      -0.00011986
C        4.25702648       5.38335197      11.63968367       0.00073949       0.00057161      -0.00245287
C        2.38342199       4.01357570      12.03271801       0.00283700      -0.00191088      -0.00181457
C        4.80555444       6.75209792      11.95326869      -0.00007460       0.00055057      -0.00150843
C        1.01598268       4.03314489      12.67029639       0.00395244      -0.00473935       0.00052249
H        4.95822697       4.58838599      11.93465770       0.00220633       0.00070766      -0.00551914
H        4.07985014       5.26159561      10.56108900      -0.00162169       0.00231164      -0.00223380
H        2.29933923       3.90387617      10.94191939       0.00100966       0.00056872      -0.00198787
H        2.98267772       3.16312519      12.39218865       0.00400192      -0.00236842      -0.00506100
H        5.73826233       6.93252466      11.42017945      -0.00210108       0.00276929      -0.00431258
H        4.08813308       7.52238990      11.66824899      -0.00198339       0.00009489       0.00229827
H        4.99830238       6.84631970      13.02097638       0.00341770      -0.00111680      -0.00190720
H        0.48206523       3.10576316      12.46089124       0.00400281      -0.00416815      -0.00154258
H        1.09255234       4.14496427      13.75252813       0.00588665      -0.00852479       0.00091210
H        0.43111505       4.86869475      12.28518011       0.00296347      -0.00366485       0.00454582
O        3.71395525       2.67635408       2.74678246      -0.00625597       0.00653909       0.01060219
C        2.55092397       3.52670828       2.91996086       0.00055301       0.01607186       0.01049021
C        4.69837939       3.39101367       1.94206879      -0.00242709      -0.00910836       0.00189382
C        1.51367356       2.76508200       3.68990059      -0.00538447       0.03008106       0.01734535
C        6.03450032       2.70882454       1.94208116      -0.00810602      -0.02042544       0.01452111
H        2.87340812       4.42271494       3.45381994       0.01006628       0.01605809       0.00423557
H        2.19406284       3.81913749       1.92791016       0.00037962       0.01370963       0.00984913
H        4.28691792       3.49546519       0.93284971      -0.00065546      -0.01968629       0.00041810
H        4.78141769       4.38836582       2.38141054       0.00376084      -0.00483608      -0.01011054
H        0.65048397       3.39214405       3.89487821      -0.00372311       0.03689322       0.00114653
H        1.11263538       1.91983218       3.12043030      -0.00478118       0.02253100       0.02941722
H        1.90382140       2.42497541       4.64995486      -0.01218015       0.04120046       0.02340895
H        6.73493520       3.34600692       1.39742901       0.00116911      -0.03265862       0.01240967
H        6.41829979       2.58812632       2.95451479      -0.01993653      -0.01844003       0.01914677
H        6.01311501       1.74245232       1.44229914      -0.01314083      -0.02441533       0.02319448
O        7.55730757       5.84330566       4.75370683      -0.00413898      -0.00096680      -0.00329337
C        8.82818766       6.34873005       4.38958369      -0.00406917      -0.00328130      -0.00588229
C        7.65697335       4.62443149       5.47080886      -0.00504422      -0.00080869      -0.00304778
C        8.64810331       7.66737457       3.68203648      -0.00286070      -0.00271115      -0.00495173
C        6.27186634       4.20182048       5.89519795      -0.00489718       0.00195345       0.00005740
H        9.44618819       6.47176897       5.29186501      -0.00168091      -0.00505224      -0.00727648
H        9.34383498       5.62674859       3.74095964      -0.00696893      -0.00392094      -0.00752980
H        8.13930234       3.85777675       4.84769415      -0.00764582      -0.00203228      -0.00349927
H        8.30590380       4.76455682       6.34865800      -0.00299817      -0.00158417      -0.00436866
H        9.61854630       8.09246051       3.42156032      -0.00247931      -0.00530906      -0.00785035
H        8.07028271       7.53501638       2.76797438      -0.00584394      -0.00095183      -0.00317267
H        8.11991470       8.37648379       4.31996190       0.00098136      -0.00138836      -0.00315371
H        6.31323206       3.27718816       6.47253132      -0.00534039       0.00278987       0.00122636
H        5.80970258       4.97441966       6.51158749      -0.00254089       0.00358613      -0.00041492
H        5.63634650       4.03279604       5.02427176      -0.00687929       0.00165641       0.00143754
O       10.01170506       4.92245300      11.99238860      -0.00278003      -0.00028417       0.00412151
C        9.34090891       4.88891193      13.23867805      -0.00114495      -0.00052372       0.00498212
C       11.06660597       3.98256391      11.92676862      -0.00237468       0.00035815       0.00282305
C        8.17596336       5.84468741      13.17707691      -0.00160486      -0.00105909       0.00663216
C       11.80511904       4.18293768      10.62889434      -0.00393188       0.00079273       0.00194958
H        8.99571223       3.86487104      13.44737464      -0.00045936      -0.00074488       0.00516013
H       10.03928877       5.16463124      14.04304692      -0.00018784      -0.00041287       0.00429481
H       11.73973490       4.11349514      12.78722668      -0.00145924       0.00067723       0.00200114
H       10.65735978       2.96332275      11.98890955      -0.00171512       0.00008991       0.00335198
H        7.65054138       5.87156580      14.13324151      -0.00062612      -0.00227033       0.00718959
H        8.51951363       6.85247102      12.94093626      -0.00208938      -0.00066084       0.00744852
H        7.47283468       5.53462507      12.40424003      -0.00233676      -0.00022555       0.00708675
H       12.58767347       3.43293842      10.50983329      -0.00348081       0.00139853       0.00137517
H       11.11434799       4.10121563       9.79016281      -0.00483297      -0.00005928       0.00265977
H       12.26331884       5.17070408      10.59820936      -0.00488596       0.00109249       0.00127089
O        8.14615648       8.53541824       8.44275647      -0.00287342      -0.00246103      -0.00167227
C        8.48762924       9.43097005       7.40046679      -0.00184855      -0.00102162      -0.00015770
C        8.14111760       7.19513490       7.99479884      -0.00020938      -0.00193590      -0.00317603
C        8.40451218      10.84247412       7.92612544      -0.00443526      -0.00153989       0.00110993
C        7.73876402       6.29688799       9.13785829       0.00057204      -0.00408340      -0.00465703
H        9.50408766       9.20980279       7.04162632      -0.00090766       0.00060917       0.00171891
H        7.79601366       9.28655950       6.55706663       0.00007543      -0.00095894      -0.00155419
H        7.44757368       7.08806526       7.14744345       0.00079781      -0.00226910      -0.00388464
H        9.14417313       6.92383044       7.62665330       0.00068659       0.00031965      -0.00267196
H        8.64778104      11.55458502       7.13590637      -0.00221574      -0.00069597       0.00271732
H        7.39633100      11.05723261       8.28371956      -0.00561561      -0.00248204      -0.00191794
H        9.10037624      10.97470639       8.75517835      -0.00708373      -0.00219439       0.00339431
H        7.71463917       5.25697529       8.80774102       0.00472857      -0.00390324      -0.00555328
H        8.44084653       6.37675446       9.96874467      -0.00107998      -0.00249365      -0.00327580
H        6.74327528       6.56571885       9.49163738      -0.00082968      -0.00789288      -0.00606515
O        3.51365118       9.33765648       1.84677924       0.00351440       0.00285453       0.00427866
C        4.70328788       8.86064983       1.25111365       0.00219464       0.00495157       0.00063963
C        2.36145891       8.84042155       1.18404159       0.00192946       0.00530025       0.00549369
C        5.88942042       9.50169277       1.92685609       0.00302729       0.00602183      -0.00180876
C        1.14067302       9.50919115       1.76607356       0.00340846       0.00160652       0.01232824
H        4.74795571       7.76259421       1.34117529       0.00398020       0.00479156      -0.00054250
H        4.69787487       9.09964887       0.17727632      -0.00092606       0.00581376       0.00085866
H        2.43760842       9.04909542       0.10680043      -0.00142840       0.01007862       0.00627559
H        2.30994280       7.74622784       1.29776540       0.00281325       0.00452513       0.00057690
H        6.81501309       9.18363949       1.44497135       0.00243345       0.00805616      -0.00433745
H        5.81992286      10.58788428       1.86352463       0.00100867       0.00586841      -0.00051747
H        5.93526839       9.22172785       2.97850894       0.00604326       0.00513399      -0.00219214
H        0.23832040       9.13592736       1.27929828       0.00231138       0.00592329       0.01114319
H        1.06541422       9.31487177       2.83667172       0.00492052      -0.00552115       0.01077136
H        1.19626695      10.58773968       1.61727251       0.00402100       0.00281525       0.01936278
