193
Lattice="14.259123550970601 0.0 0.0 0.0 14.259123550970601 0.0 0.0 0.0 14.259123550970601" Properties=species:S:1:pos:R:3:forces:R:3 energy=-378662.4375 stress="-0.0006078328005969524 0.00016198707453440875 -0.00025487501989118755 0.00016198707453440875 -0.0008676097495481372 -4.139227712585125e-05 -0.00025487501989118755 -4.139227712585125e-05 -0.001328745624050498" pbc="T T T"
Nd      16.53329050      14.05297002       2.24893574       0.01169798       0.00060533      -0.00614099
O        1.83076914      14.78188530       6.11096402       0.03119847       0.03662030      -0.01186100
O        2.46815585      15.41027799       4.10317913       0.01727524       0.01816988      -0.02069938
O        1.56886948      13.45402185       4.39218801       0.02304850       0.01880324       0.00283769
N        1.93962456      14.55823147       4.94892889       0.02460901       0.02519259      -0.00955394
O        8.09270244      13.13908216      14.10367450       0.00646698       0.01075697       0.00736207
O        7.90715117      14.74781437      12.65167940      -0.00818565       0.00714242       0.00553012
O        7.10629959      14.99083681      14.65675391       0.00027657       0.00669038       0.00897861
N        7.71044050      14.28592666      13.79966552      -0.00039084       0.00809082       0.00728685
O       12.91170842      14.13340432       2.61544105      -0.00531492      -0.00198448       0.00973225
O       14.69310184      13.66215289       1.37846716       0.00660539       0.00446090       0.00982378
O       12.71104598      12.80722235       0.90179615       0.02163473       0.01816261       0.00275892
N       13.29567900      13.51919462       1.65824793      -0.00239748      -0.02035093      -0.02616094
C       10.32818878       2.50751703       3.00763840       0.00851565       0.00083318      -0.00359328
C       11.38719762       2.94494020       2.21149651       0.00563159       0.00680456      -0.00426582
C       10.38409405       2.76923833       4.37829409       0.01010853      -0.00304150      -0.00304180
C        9.18009932       1.76021746       2.40563924       0.00960711      -0.00008348      -0.00381795
C       12.47241991       3.61456973       2.76401582       0.00402447       0.00933462      -0.00418399
C       11.46797094       3.43539764       4.93655417       0.00847112      -0.00059169      -0.00300927
C       12.51738515       3.86225860       4.13058248       0.00526026       0.00575368      -0.00358799
H       11.35599229       2.74835536       1.14557291       0.00426864       0.00996909      -0.00461355
H        9.56522204       2.44283271       5.01159888       0.01244794      -0.00785087      -0.00284126
H        8.23299251       2.02192598       2.87768831       0.01088819      -0.00900804       0.00328152
H        9.07933548       1.94806863       1.33930101       0.00312555       0.00840625      -0.00159994
H        9.30533262       0.68066740       2.51964493       0.01549175      -0.00038090      -0.01389514
H       13.28779702       3.93745155       2.12765483       0.00144601       0.01438226      -0.00460832
H       11.49756536       3.62182162       6.00331168       0.00958483      -0.00362721      -0.00263436
H       13.36287561       4.37811045       4.56761669       0.00382270       0.00802247      -0.00377478
C        3.57457546       2.49709617      13.80437172      -0.01340961      -0.00353491       0.00482860
C        4.90403830       2.83553195      14.05133443      -0.01246218      -0.00875850       0.00629851
C        2.60090914       3.49662140      13.82513550      -0.00984600      -0.00002963       0.00643799
C        3.20431768       1.08241443      13.46044064      -0.01699778      -0.00151713       0.00013888
C        5.24800986       4.15570395      14.31487003      -0.00783331      -0.01076828       0.00941000
C        2.94744230       4.81273287      14.09033363      -0.00511770      -0.00176077       0.00850321
C        4.27601812       5.14399926      14.33550489      -0.00419072      -0.00727081       0.01045818
H        5.68254234       2.07911533      14.02165225      -0.01455843      -0.01076472       0.00518177
H        1.56973043       3.24556041      13.60074780      -0.01008340       0.00445903       0.00295759
H        2.60066982       1.03525382      12.55334935      -0.02049454       0.00280658       0.00228649
H        4.08811581       0.46181481      13.32623925      -0.01857781      -0.00252359      -0.00599100
H        2.56568783       0.60663585      14.24330325      -0.01549117      -0.00419675      -0.00093599
H        6.28649336       4.41191661      14.48448908      -0.00717640      -0.01520890       0.01128161
H        2.18851802       5.58458759      14.09071748      -0.00213911       0.00105269       0.00839634
H        4.55086753       6.17227883      14.52624253      -0.00069829      -0.00892986       0.01357755
C        6.65087656       5.47554401       3.57729280       0.00036746      -0.00630067      -0.00061059
C        6.10886996       4.27093608       4.03479430      -0.00555420      -0.00561717      -0.00631865
C        5.97860920       6.65691463       3.88279161       0.00562854      -0.00439939       0.00336634
C        7.91779614       5.49077260       2.77562288       0.00181714      -0.00883485       0.00188977
C        4.92499929       4.24597286       4.75764447      -0.00556853      -0.00300460      -0.00645091
C        4.79431945       6.63796180       4.61334879       0.00546909      -0.00187775       0.00289770
C        4.25882987       5.43346342       5.04653356       0.00030379      -0.00107850      -0.00161466
H        6.62312262       3.34321934       3.81198398      -0.01035915      -0.00710849      -0.01101407
H        6.38712654       7.60229274       3.54127330       0.00970368      -0.00499749       0.00695452
H        8.18427943       6.50607115       2.48436063       0.00072976      -0.01012170      -0.00331409
H        8.75220942       5.06750738       3.33882291       0.00134499      -0.00361554       0.00645110
H        7.81615265       4.88789906       1.87105310       0.00519285      -0.01472604       0.00558224
H        4.51903579       3.30168817       5.09980110      -0.01081544      -0.00225621      -0.01095482
H        4.28574575       7.57016920       4.82931295       0.00936124      -0.00066735       0.00647983
H        3.33450026       5.41675977       5.61088686       0.00025651       0.00101180      -0.00201531
C       12.03988148       3.68652719      11.00079392       0.00064035       0.00266802       0.00300243
C       12.58741505       2.53247798      10.43622302      -0.00285518       0.00211902       0.00009792
C       10.76881694       3.60765888      11.56748820       0.00348188       0.00335638       0.00873876
C       12.80651212       4.97774042      10.99419496       0.00142723       0.00309381       0.00077254
C       11.88324635       1.33451808      10.44376858      -0.00380509       0.00271054       0.00337259
C       10.06172157       2.41123669      11.58164162       0.00250462       0.00403668       0.01179397
C       10.61958980       1.26946279      11.02154101      -0.00115426       0.00371601       0.00912906
H       13.57887641       2.57485066       9.99763518      -0.00507791       0.00127481      -0.00459148
H       10.32785390       4.49651527      12.00573115       0.00652331       0.00360438       0.01100790
H       12.29767100       5.74122978      11.58246960       0.00943099       0.01453933       0.00597553
H       13.80910827       4.84130363      11.40349749       0.00124070       0.00192231       0.00124332
H       12.92513161       5.36322627       9.97737983       0.00371057      -0.00195881      -0.00133762
H       12.32621440       0.44599172      10.00803316      -0.00669600       0.00246271       0.00119742
H        9.08260756       2.34354545      12.03720599       0.00431883       0.00494198       0.01555185
H       10.06685385       0.34017252      11.05884647      -0.00198431       0.00440665       0.01122678
C       10.15704111       7.87336048       6.57408444       0.00482661       0.00361224       0.00367152
C       11.07482378       7.41279041       7.51887910       0.00424656       0.00246513       0.00359351
C        9.94344732       9.24926297       6.48209996       0.00499503       0.00368729       0.00526817
C        9.41180649       6.92177742       5.68918583       0.00540307       0.00458604       0.00232351
C       11.74707175       8.29619344       8.35464145       0.00367858       0.00127811       0.00507612
C       10.61514884      10.13744383       7.31225550       0.00438683       0.00250116       0.00692115
C       11.51915653       9.66441423       8.25579254       0.00368351       0.00124197       0.00680937
H       11.26116596       6.34675178       7.59493523       0.00418512       0.00243159       0.00225324
H        9.25563918       9.62517541       5.73440487       0.00556575       0.00469733       0.00532611
H        9.09847562       7.40951527       4.76569103       0.00601874       0.00521688       0.00253019
H       10.02466484       6.05649751       5.43062279       0.00553244       0.00479928       0.00208895
H        8.51295539       6.54639921       6.18754767       0.00518218       0.00411936       0.00148728
H       12.45385289       7.91721862       9.08306297       0.00332234       0.00027443       0.00487958
H       10.43785295      11.20184664       7.21622819       0.00442547       0.00252092       0.00831294
H       12.04345618      10.35650504       8.90315865       0.00309667       0.00040046       0.00812156
C        3.00185048       8.46096288       0.93812505      -0.00262937      -0.00250381      -0.00612743
C        2.83292921       7.48013278       1.91338852      -0.00735494       0.00652601       0.00186355
C        1.86457364       8.95002833       0.29042320       0.00047454      -0.00703053      -0.01484936
C        4.37545177       8.95675045       0.59451017      -0.00108841      -0.00700636      -0.00560492
C        1.57508918       6.98124287       2.22353038      -0.00918073       0.01075783       0.00084628
C        0.60064335       8.45909849       0.59945490      -0.00219284      -0.00208777      -0.01563254
C        0.45356030       7.46279131       1.56075578      -0.00616254       0.00710712      -0.00664153
H        3.70231701       7.08432529       2.42024444      -0.00997365       0.01077772       0.00954324
H        1.96988712       9.73003697      -0.45675159       0.00473375      -0.01413166      -0.02131942
H        4.39158671      10.03250013       0.42024354      -0.00097099      -0.00982025      -0.02182298
H        5.08649136       8.72800372       1.38888106      -0.00527918       0.00534040       0.00148846
H        4.74439845       8.49552612      -0.32518566       0.00444848      -0.02045728       0.00344983
H        1.47893181       6.20318523       2.97156416      -0.01253016       0.01537295       0.00490074
H       -0.27261895       8.85610941       0.09606152      -0.00431138      -0.01821626      -0.03223708
H       -0.52656327       7.06583796       1.78952184      -0.00773850       0.01143558      -0.00603914
C        7.16048555      10.62208687      11.44555630      -0.00342211      -0.00111476       0.00754963
C        7.05228370      12.01281937      11.44356762      -0.00526279      -0.00139853       0.01423639
C        5.99399586       9.86740276      11.56716004      -0.00281780      -0.00332621      -0.00099635
C        8.51152998       9.97650144      11.33826439      -0.00257412       0.00090993       0.00793496
C        5.81737703      12.63258325      11.56823272      -0.00662146      -0.00376737       0.01176236
C        4.75321176      10.48335763      11.68708337      -0.00403860      -0.00559151      -0.00338577
C        4.66151752      11.86910062      11.69364813      -0.00606063      -0.00582844       0.00284513
H        7.94015785      12.62841932      11.39325690      -0.00605915       0.00012204       0.02104323
H        6.05966777       8.78419097      11.57817541      -0.00137265      -0.00314683      -0.00596741
H        8.47457504       8.92089219      11.60640159       0.00057086       0.00314227       0.01677072
H        8.90912883      10.04622032      10.32145581      -0.00689366      -0.00700882       0.00573274
H        9.22445731      10.46871467      12.00125521      -0.00094749       0.00780222       0.00070564
H        5.78102473      13.71521514      11.58230302      -0.00797675      -0.00384414       0.01625436
H        3.85796375       9.87879335      11.77165954      -0.00340699      -0.00730570      -0.01022397
H        3.69282757      12.34973670      11.77525086      -0.00707743      -0.00770758       0.00064357
C        4.31064645      12.35685459       2.42647980       0.00064804      -0.00557005      -0.00637044
C        4.94201710      12.19553533       3.66195223      -0.00703061      -0.00147150      -0.00175554
C        3.09834555      11.65127600       2.20013386       0.00082916      -0.00411192      -0.01025823
C        4.89836754      13.25776646       1.38129748       0.00710967      -0.01001497      -0.00666152
C        4.41989871      11.33587633       4.61800030      -0.01476288       0.00430904      -0.00084783
C        2.57769045      10.78887641       3.16885999      -0.00638989       0.00091729      -0.00990540
C        3.24492402      10.63188734       4.37526241      -0.01388886       0.00470572      -0.00522503
H        5.86839248      12.72516231       3.84983032      -0.00689352      -0.00289514       0.00112919
H        2.63945898      11.66335945       1.20484489       0.00609025      -0.00588762      -0.01229735
H        4.49798985      14.29973817       1.40374960       0.01370551      -0.00750329      -0.00727031
H        5.96716266      13.42283639       1.50882202       0.00787312      -0.01656889      -0.00538310
H        4.74429674      12.87794447       0.36880854       0.00514279      -0.00961107      -0.00639513
H        4.93296020      11.21050814       5.56008477      -0.02136074       0.00813864       0.00323845
H        1.67335769      10.23162898       2.96354886      -0.00530494       0.00074033      -0.01362959
H        2.85790641       9.96206178       5.13060508      -0.01907589       0.00766204      -0.00544034
C        5.31003148       9.64375512       7.47294583       0.00019103       0.00644490       0.00254290
C        4.02424417       9.10799680       7.55172429       0.00135848       0.00351970       0.00027664
C        5.51207161      10.94679528       7.93566573      -0.00378832       0.00712797       0.00187510
C        6.43425868       8.89087233       6.83146183       0.00309715       0.00810838       0.00588548
C        2.96299932       9.86468340       8.04047913      -0.00131302       0.00121608      -0.00235826
C        4.45254368      11.71269066       8.39841042      -0.00629056       0.00471534      -0.00018775
C        3.17001106      11.17638416       8.44561280      -0.00476074       0.00122650      -0.00137664
H        3.85478550       8.09001213       7.21607058       0.00436340       0.00287591       0.00138359
H        6.51221212      11.36609865       7.91057570      -0.00478113       0.00932232       0.00403040
H        7.34829175       8.95006654       7.42233978       0.00134543       0.00926936       0.00837784
H        6.19011208       7.84162561       6.68722446       0.00501674       0.00777459       0.00518500
H        6.65859066       9.31437286       5.84671934       0.00516308       0.00858147       0.00669980
H        1.97011036       9.43275237       8.09112610      -0.00027043      -0.00110484      -0.00346180
H        4.62850586      12.72708612       8.73109924      -0.00887808       0.00495324       0.00037841
H        2.34214465      11.77341766       8.80682643      -0.00681930       0.00005813      -0.00451394
C       10.70526919       9.26907803       2.81193416      -0.00306112       0.00250511      -0.00030125
C        9.99545314       8.62816560       1.79674010      -0.00233246      -0.00107801       0.00163309
C       10.31208666      10.55890496       3.17682034      -0.00254024       0.00435096      -0.00639318
C       11.88340212       8.61163538       3.46850479      -0.00279742       0.00571328       0.00210637
C        8.92965384       9.25722629       1.16018700      -0.00100692      -0.00290106      -0.00221678
C        9.25284599      11.19132105       2.53938986      -0.00068830       0.00256741      -0.01033089
C        8.55533747      10.54333852       1.52567931      -0.00009111      -0.00103040      -0.00838782
H       10.28749540       7.62669295       1.49802695      -0.00238463      -0.00225732       0.00574191
H       10.85342950      11.07035786       3.96556468      -0.00244619       0.00764714      -0.00844844
H       11.93856889       8.85741678       4.52889559      -0.00488020       0.00683366       0.00186065
H       11.83693488       7.52582164       3.37258315      -0.00017073       0.00561750       0.00292075
H       12.81727739       8.94417330       3.00834123      -0.00295147       0.00760858       0.00318240
H        8.39724098       8.74615168       0.36615949      -0.00063398      -0.00582869      -0.00045425
H        8.97634734      12.20120492       2.81614337      -0.00009242       0.00422871      -0.01569904
H        7.76036300      11.06083760       1.00641815       0.00101355      -0.00252759      -0.01139525
C        8.19368901       4.69104571       8.47234638       0.00603668      -0.00473142       0.00058293
C        6.91377032       4.45199595       7.96634281       0.00569710      -0.00030215      -0.00024241
C        8.39982288       5.84019971       9.23263605       0.00859602      -0.00726838       0.00346123
C        9.31477145       3.74434854       8.16784982       0.00382802      -0.00692058      -0.00066873
C        5.87018050       5.32798679       8.21936958       0.00771804       0.00146871       0.00189970
C        7.35777661       6.72857899       9.47581865       0.01077706      -0.00548267       0.00575147
C        6.09025897       6.47169572       8.97706997       0.01027490      -0.00108624       0.00491589
H        6.73498616       3.56341789       7.37104090       0.00362732       0.00191183      -0.00279960
H        9.38815809       6.04971633       9.62395979       0.00892182      -0.01086688       0.00445944
H       10.23390184       4.03379526       8.67536374       0.00448047      -0.00939807      -0.00060935
H        9.07596489       2.72726231       8.48326447       0.00158014      -0.00657818      -0.00160914
H        9.50352783       3.71717493       7.09270650       0.00364346      -0.00645307      -0.00072750
H        4.88003463       5.10894054       7.84163028       0.00751622       0.00496509       0.00068826
H        7.54036112       7.63103043      10.04428884       0.01308631      -0.00779402       0.00853662
H        5.27932797       7.16197158       9.17181990       0.01187918       0.00032556       0.00644500
C        2.83334928       5.26910165      10.48958878      -0.00190739      -0.00483836      -0.00286371
C        4.10645950       5.01306206      10.99398303      -0.00381839      -0.00935072      -0.00056911
C        2.16680191       4.23793965       9.82681130      -0.00369406      -0.00177350      -0.00555360
C        2.21469665       6.62958587      10.63919964       0.00178134      -0.00348914      -0.00183280
C        4.70664596       3.77223364      10.83664921      -0.00726980      -0.01086828      -0.00112094
C        2.75668383       2.98731628       9.67510654      -0.00708689      -0.00314149      -0.00629385
C        4.03121845       2.75257276      10.17896610      -0.00895211      -0.00775108      -0.00413388
H        4.63937607       5.80145150      11.51065731      -0.00277666      -0.01201320       0.00226639
H        1.17575879       4.41761808       9.42466565      -0.00293169       0.00135249      -0.00584710
H        1.12661578       6.57184704      10.68230448       0.00124273       0.00051606      -0.01330279
H        2.56462758       7.12277158      11.54733939      -0.00568802      -0.00959403       0.00414127
H        2.47328190       7.27855911       9.79721507       0.01287411      -0.00006671       0.00432435
H        5.70508875       3.60527200      11.21862138      -0.00903650      -0.01485532       0.00146190
H        2.22279302       2.19926058       9.15732870      -0.00822395      -0.00062707      -0.00858361
H        4.50133399       1.78450995      10.05456806      -0.01199428      -0.00913478      -0.00409175
