196
Lattice="18.9008107281376 0.0 0.0 0.0 18.9008107281376 0.0 0.0 0.0 18.9008107281376" Properties=species:S:1:pos:R:3:forces:R:3 energy=-2730818.75 stress="-0.001908790902234614 -8.683705891598947e-05 0.00012289133155718446 -8.683705891598947e-05 -0.001943923649378121 0.000180123963218648 0.00012289133155718446 0.000180123963218648 -0.0016837577568367124" pbc="T T T"
Nd      21.82319425      17.62839548       2.15995484       0.01121677       0.03311080      -0.00122735
I        4.64003620      15.07201506       4.55541218       0.03617299       0.04145837      -0.03757766
O        4.65153751      15.78163540       6.19569479       0.01166633      -0.03491896      -0.00711012
O        4.06435947      16.61969503       3.54458956       0.03357846       0.07006800      -0.03206309
O        6.33754684      14.90387509       4.03861105       0.05582941      -0.01983135       0.05758235
O        1.72968495      15.60951913       4.74612850      -0.03507575       0.03042749      -0.06470836
I        9.70885119      15.75427723      12.68335089       0.01006645       0.00285033      -0.00483187
O        9.98782897      14.07464076      13.28154389       0.00829889       0.00513566       0.00065470
O       10.46129721      16.91540360      13.81070245       0.02433479       0.00518858      -0.01760399
O       10.46474215      15.86968115      11.05634337      -0.00212556      -0.00881837      -0.01045406
O        7.95737431      16.08369583      12.55094671       0.01118875       0.01093197       0.00816806
I        6.34274099      17.44550914       1.15382680      -0.00357425       0.01655482       0.01047027
O        7.06635459      17.84913404       2.72156792       0.03544337      -0.01335031      -0.00073278
O        4.70803669      18.34472909       1.17492794      -0.01064384       0.01592469       0.02478233
O        7.25102620      18.08892845      -0.22871508       0.00016618       0.01337236       0.01497996
O        5.80361335      15.76409224       0.96213005      -0.00806847       0.02028859      -0.00734198
Cl       0.00338070       4.94456600      20.25301975      -0.01636586      -0.01427440      -0.00141925
Cl       2.45205440       3.65688072      19.36281150      -0.01852387      -0.00495288      -0.00630035
Cl       1.59448186       6.14089361      18.16062541      -0.01254982       0.00140321       0.00230905
Cl       0.08683144       3.68430376      17.68161842      -0.01330009      -0.00154200      -0.00379056
C        1.04586679       4.59801492      18.85254028      -0.01741719       0.00192935      -0.00421638
Cl      12.14699233       9.26461139      11.40337912      -0.01019645      -0.00648277       0.01701036
Cl       9.70022410       9.69852597       9.94005295       0.01324058       0.01494023      -0.01276195
Cl      10.35055982      11.40658970      12.19581594      -0.00676472       0.00236118       0.00057551
Cl       9.60442700       8.64062565      12.63593526      -0.02829114       0.00622687      -0.01774776
C       10.45069060       9.77685468      11.55313421      -0.00861433       0.00438809      -0.00329391
Cl       3.04794613       3.58624570      15.82705852       0.00111473       0.00030273       0.00144610
Cl       2.94883887       4.26269902      13.02059101       0.00565576      -0.01387329      -0.00180095
Cl       3.70554791       6.25960400      14.98363846      -0.00099906      -0.00338143      -0.01161201
Cl       0.97292620       5.35585867      14.79402486       0.00188351      -0.00798176      -0.00961304
C        2.66936846       4.86137485      14.66461793       0.00251841      -0.00559147      -0.00646171
Cl       4.65984002      11.30641598       5.67575155       0.00951977       0.01072754      -0.01521945
Cl       3.88644821      13.11821278       7.78600117       0.03005385       0.00099111       0.00158425
Cl       6.43832040      11.77407153       7.90370348       0.02236426      -0.00979806      -0.02231263
Cl       3.97883176      10.28213700       8.30939010       0.01360014       0.00060266      -0.01761746
C        4.74040785      11.62070154       7.43131535       0.01747492       0.00310498      -0.01492933
Cl       8.13727368       8.07376694       0.77268121       0.00528663      -0.00939438      -0.00239948
Cl       6.29322165      10.30893156       0.64705417       0.01571732      -0.00274026      -0.01014777
Cl       5.41311234       7.76568666       1.71518287       0.00095743       0.00171101      -0.01527679
Cl       5.93653430       8.03197596      -1.11753077       0.01476835      -0.00023076      -0.01200992
C        6.44827025       8.53786616       0.50573859       0.00952266      -0.00259987      -0.00957802
Cl      13.29865562      18.93638995       3.32491463      -0.01246428       0.02006346      -0.00602227
Cl      13.39830013      16.57286421       1.65324754      -0.02362269       0.04732513      -0.04681745
Cl      15.49544382      17.06509076       3.58056049      -0.03840941      -0.01106933      -0.01559466
Cl      15.27572596      18.73241783       1.21599749       0.00230610       0.03081608       0.01051006
C       14.36012811      17.81961313       2.43928403      -0.01812127       0.01989902      -0.01051814
Cl       1.94541244      17.46435605       6.53251687      -0.05525473      -0.03915092       0.04359633
Cl       1.03685411      19.24637756       1.46253771      -0.01944387      -0.00629306      -0.04193968
Cl      -0.49744090      16.81679760       5.14498578      -0.06776521      -0.01622801       0.04101912
Cl       1.89317227      15.57159794       1.13605257       0.06053102      -0.01103973      -0.05524296
C        1.18272548      16.45561903       5.37143351      -0.06247135       0.00108075       0.02019782
Cl       5.76843566       3.99856887       1.69052931      -0.00216979      -0.00732324      -0.00762746
Cl       8.44785645       4.42005430       2.71780288      -0.00582993       0.01749653      -0.00894676
Cl       7.77861766       1.95943268       1.32612125       0.01857951       0.01271272      -0.01553667
Cl       6.71619701       2.46480831       3.96945133       0.01591551      -0.00557154      -0.01413602
C        7.18332091       3.19822300       2.41756024       0.00776871       0.00375562      -0.01049508
Cl      16.57801793       6.33131363       9.79212071      -0.00353801      -0.00206499       0.01273611
Cl      14.42584634       4.72957810       8.69531821      -0.00033180       0.00045270       0.00655451
Cl      14.25840546       7.62596936       8.64222168      -0.00448635      -0.00077963       0.01740864
Cl      14.02876824       6.19191032      11.15441649      -0.00353459      -0.00917775       0.01177156
C       14.81921174       6.22001573       9.57084099      -0.00333406      -0.00277017       0.01270944
Cl       1.72657767      12.62892640       3.86965811      -0.01642521      -0.00302690      -0.00756200
Cl       1.27994960       9.92098598       4.79390414       0.00276060      -0.00648299      -0.01088893
Cl       3.26456371      10.44564473       2.73486785      -0.00619924       0.01098785      -0.01291254
Cl       0.45646590      10.69347930       2.12911634      -0.00880200      -0.00534891      -0.00566703
C        1.67991464      10.91897381       3.38366074      -0.00670409       0.00114189      -0.00837070
Cl       4.31734487       8.00491935       5.38887337       0.02511826      -0.00652289      -0.01675506
Cl       4.55706148       5.17425226       4.88955749       0.00576064      -0.01301843       0.01230229
Cl       2.62522269       6.73811611       3.40835396       0.02601582      -0.01233813      -0.01238191
Cl       2.20515800       6.22559291       6.22932749       0.00831145       0.01592356      -0.01106957
C        3.43396190       6.52939450       4.98310289       0.01781883      -0.00206385      -0.00649858
Cl      16.51883848      15.44344358       0.15845182      -0.00003327       0.01537490       0.00596070
Cl      17.88109899      14.05226950       2.28452144      -0.00989056      -0.00244667      -0.00076467
Cl      17.58645633      12.81045157      -0.32371273      -0.01694781       0.01061636      -0.00032160
Cl      15.28803508      13.13196287       1.42776241      -0.01905853       0.02236557      -0.00065961
C       16.81575417      13.86574854       0.88835459      -0.01474701       0.00963189       0.00233593
Cl       1.79764046       9.24591929      14.08358444       0.00949714       0.00573227      -0.00181848
Cl       2.42764768      10.61925720      11.61581196      -0.00226285      -0.00735009      -0.01038682
Cl       1.97840673       7.75358908      11.60583628       0.00486466      -0.00767818       0.00691220
Cl       4.36554629       8.85101203      12.82326685       0.00604022       0.00485265      -0.00757410
C        2.64102097       9.11810541      12.53758162       0.00485437      -0.00073313      -0.00375197
Cl       8.17156785      16.01685896       7.02774139      -0.01329064      -0.00008738      -0.01618865
Cl       6.65303461      18.38290803       6.33688584      -0.02106476      -0.00586328       0.00092173
Cl       9.33665214      18.64894356       7.37537627      -0.01536798       0.00054926      -0.01845419
Cl       7.20098011      17.75198095       9.12409291      -0.00083661      -0.00827260      -0.00401294
C        7.83095982      17.69686295       7.46796173      -0.01463509      -0.00628904      -0.01234668
Cl      17.68143106       9.92690974      12.21116068      -0.00651380      -0.01076609       0.00612155
Cl      15.14908769       9.00834947      13.27458543      -0.00346339      -0.00289140       0.01590806
Cl      17.36106048       9.52886743      15.06191824       0.00051749       0.00082316       0.00863528
Cl      17.43510016       7.24306820      13.27627911      -0.00563009      -0.00545770       0.01769700
C       16.90248458       8.92954758      13.45283937      -0.00358060      -0.00427816       0.01225991
Cl      10.08799132      10.51798008       3.35030495       0.00338268      -0.00142211      -0.00641364
Cl      10.07330645       7.81115036       4.37110817       0.00939861      -0.00902599      -0.02870581
Cl       7.62601473       9.37049734       4.35216174       0.01167369      -0.00516591       0.00072929
Cl       9.75774959      10.04691370       6.18885634       0.02408458      -0.02427800      -0.00978738
C        9.38224180       9.44022041       4.56504848       0.01213842      -0.00997806      -0.01082727
Cl       1.75480580       3.46126152       3.87013320       0.02169129      -0.04944277      -0.02502716
Cl       2.45213466       2.54479827       6.53228506      -0.04083325      -0.03098813      -0.00731486
Cl       3.26743540       1.00254576       4.23497668      -0.02108586      -0.06549719       0.02763456
Cl       0.42163425       1.19181816       4.98827370      -0.03052771      -0.01596212      -0.01821190
C        1.93827484       2.07276194       4.90778396      -0.01758413      -0.03793280      -0.00516173
Cl      16.86944262       0.70566697      12.40284887      -0.00305378      -0.01268959       0.00688696
Cl      16.41999690       2.18579491      14.84738925       0.02015865      -0.00045031       0.00344133
Cl      14.83635305       2.76480683      12.48708198       0.00373882      -0.00725245       0.01419689
Cl      17.63413277       3.50009984      12.56442521       0.00509652      -0.01437420      -0.01177783
C       16.43565980       2.28474809      13.07402142       0.00621217      -0.00831363       0.00242309
Cl      11.14340807      15.93281601       4.47913402       0.01663476       0.00602925      -0.01041967
Cl      11.45314238      13.69455959       2.65784941       0.01328936       0.00480784      -0.01421487
Cl       9.00493485      14.02826467       4.17496261       0.00855613       0.02069786      -0.02784402
Cl      11.45621046      13.25061031       5.52497690      -0.00755495       0.00111377      -0.01465088
C       10.74198623      14.22363113       4.21853566       0.00626431       0.00871377      -0.01759085
Cl       8.74121127       4.98345051      12.73850624       0.00394505      -0.00479184       0.01853873
Cl       6.54185080       4.05451863      14.36694636      -0.00536032      -0.00766674       0.00272778
Cl       6.02114648       5.51570398      11.91998210       0.01047948       0.02596329       0.02068573
Cl       7.13746897       6.88660876      14.21756169       0.01618108      -0.01140350       0.03885347
C        7.10890867       5.35235931      13.30178910       0.00671589       0.00089349       0.02017153
Cl      13.02490804      16.83217205      16.36260816       0.00317255       0.01187015       0.00320258
Cl      12.06234032      14.41700921      15.09885016       0.00188065       0.01212305       0.00419825
Cl      13.13404232      14.31373553      17.78820870      -0.00794607       0.01457024       0.00674415
Cl      14.91024955      14.79315884      15.53700890       0.00054252       0.00659512       0.01308793
C       13.26263479      15.08782070      16.18233612      -0.00082375       0.01147617       0.00641659
Cl      15.68570238      13.73680530      10.88837191      -0.01090544       0.00987393       0.00793776
Cl      12.96395368      13.24796581      10.01832722      -0.01262754       0.00348824       0.01902956
Cl      13.85203274      12.32683015      12.61170239      -0.00063992       0.00350620       0.01306647
Cl      14.85597943      11.05552041      10.19800250      -0.00596160       0.00840843       0.00991321
C       14.32234016      12.59054293      10.93115973      -0.00719367       0.00662248       0.01181274
Cl      16.37278136       8.76078255       3.23244138      -0.01984894       0.01092153       0.00523221
Cl      15.32099749       7.00587405       1.18192954       0.00587442       0.00451303      -0.00103457
Cl      16.21969251       9.68235684       0.50799442      -0.00997657       0.01058567       0.00488120
Cl      13.79336375       9.31317679       2.06028475      -0.01600313      -0.00731665      -0.01234429
C       15.42681968       8.69168653       1.74549604      -0.01019803       0.00528173       0.00000475
Cl      12.03433120       5.86667878      13.88472799       0.00042018       0.00772361       0.02004242
Cl      14.51393767       5.40988540      15.30524283      -0.00432509      -0.00306089       0.02348945
Cl      12.50002615       3.32834532      15.22335472      -0.00621334       0.00043821       0.00647110
Cl      12.02408962       5.71527385      16.77509739      -0.00727996      -0.00922734       0.01882142
C       12.76919403       5.07798106      15.29830464      -0.00436790      -0.00065643       0.01725156
Cl      12.08379604       9.78071319      15.07900457      -0.00490820       0.01588669      -0.00044686
Cl      12.22098135      10.54631692      17.86605873      -0.02508360       0.01249981       0.00052691
Cl      14.29852316      11.38996938      16.04137777      -0.00716156       0.00451267       0.01823083
Cl      14.09027133       8.60818679      16.80342182      -0.02484396       0.00570917       0.01509719
C       13.17500720      10.08187358      16.44389042      -0.01563142       0.00934145       0.00861192
Cl      15.86671423       1.91917210       6.61601040       0.00475286       0.00170106      -0.00078437
Cl      15.06877820       1.24471947       9.30619641       0.00645623       0.01437918       0.00340056
Cl      17.67785351       2.39071490       8.85895186       0.01536134      -0.01143414      -0.00784555
Cl      17.13541525      -0.29536666       7.97223694      -0.01540440      -0.00660002       0.00038639
C       16.42741691       1.31380304       8.18811398       0.00339846      -0.00228385      -0.00115064
Cl      17.76820146       4.81003289       6.70631237       0.01944214       0.00363177      -0.00350398
Cl      18.03164393       5.86753588       4.04634814       0.02290791       0.02621231       0.00463790
Cl      17.42795951       7.64262839       6.25220753      -0.00647869       0.00306672       0.01330881
Cl      15.42307977       5.77424054       5.29552933       0.01805496      -0.01027057      -0.00891262
C       17.15893937       6.02390228       5.57478898       0.01284438       0.00602337       0.00232510
Cl       0.96815806      13.20245950      14.27272480      -0.00166678       0.01478553       0.01493090
Cl       1.72877623      11.78448558      16.68863762      -0.00861438      -0.01835030      -0.00329345
Cl       2.39566646      14.58073390      16.39013803      -0.01030932      -0.01592457       0.03759092
Cl       3.75746907      12.59931733      14.77780201      -0.00364667       0.01010233       0.01456064
C        2.22524207      13.05551732      15.53212898      -0.00583008      -0.00267766       0.01580736
Cl       7.86959301      13.41583265      10.65983908      -0.00747496       0.02008700      -0.00454766
Cl       5.04222810      13.36546987      11.26137129      -0.00596136       0.00342649      -0.00177860
Cl       6.97072708      12.89964517      13.36938975      -0.00124863       0.01191805      -0.00583982
Cl       6.58676735      10.90821231      11.32101996       0.00668119       0.01308823      -0.00863469
C        6.62507091      12.65765068      11.66042293      -0.00217076       0.01244171      -0.00615521
Cl       0.67122412      -1.61457329      14.33740711      -0.00182357      -0.01057345       0.00781968
Cl       0.96057840       0.22352964      16.56431593       0.02045631      -0.01282042       0.00453424
Cl       1.26872467       1.17311026      13.83430572      -0.00194979      -0.01495421       0.00332975
Cl       3.28162050      -0.54044503      15.01657106       0.00619876      -0.01429220      -0.01176486
C        1.53632856      -0.18701759      14.94624176       0.00808150      -0.01457149      -0.00225564
Cl       4.78256317       1.46571571      11.54876282       0.01166221      -0.00563113      -0.00770140
Cl       3.37012685       0.11563987       9.41288696       0.00970070      -0.01197162      -0.00049177
Cl       5.32357269       2.17107941       8.79750080       0.00127727      -0.00933605      -0.00956661
Cl       2.79252226       2.89740016       9.99163470       0.00450271      -0.01273522      -0.00353723
C        4.08320663       1.65381985       9.94017664       0.00732088      -0.01114318      -0.00560121
Cl      14.18266846      16.76148399       9.33783794      -0.02991211       0.01677215       0.01791584
Cl      11.64063554      15.99183357       8.22613866      -0.01082325      -0.00170365      -0.01137426
Cl      14.07868763      15.54182806       6.72198544       0.00772226       0.01416218       0.01817691
Cl      13.07690587      18.22184693       7.07183350      -0.01296914       0.00763333       0.00541800
C       13.22785890      16.62252135       7.84450016      -0.01154943       0.00886676       0.00714357
Cl       8.94410664       2.28678332      10.11079148      -0.00171125       0.00010228       0.00537759
Cl      11.12010614       2.46283288      12.01797960       0.00491929      -0.00183845      -0.00338131
Cl      10.30777084      -0.12582489      10.98366561       0.00762478       0.00172424      -0.01180166
Cl       8.58768044       1.28778710      12.81061263       0.01226532      -0.01170385       0.00180030
C        9.73867134       1.45680806      11.47384667       0.00551191      -0.00322558      -0.00258681
Cl       0.34421163      13.18858235      10.21079387      -0.01805286      -0.01882935      -0.00021443
Cl       0.47127891      13.86779376       7.40216087       0.02268456       0.01238987       0.01205078
Cl       1.97869549      15.41185871       9.35288943       0.01424670      -0.02669531       0.05032190
Cl      -0.90339308      15.62526761       9.23563585       0.01921028       0.00573426       0.01582966
C        0.47337577      14.51985078       9.05048404       0.01011779      -0.00508660       0.01889883
Cl      17.09966793      11.90384273       4.94926824      -0.00753260      -0.00005248       0.00591040
Cl      14.96216172      10.38344988       6.18113980      -0.00426888       0.00479633       0.01714199
Cl      15.75949146      12.93000547       7.28264405      -0.00067702       0.00739408       0.00550997
Cl      17.51941036      10.64965020       7.53687829      -0.00088441       0.00834876       0.00718683
C       16.33278556      11.47007248       6.48298715      -0.00330287       0.00586535       0.00868735
Cl       5.48274555       5.95204632       8.41766358       0.02044171      -0.01972282       0.00308833
Cl       6.97642825       8.40088459       8.06002897       0.00986860      -0.01557308      -0.00247852
Cl       7.58495759       6.09319033       6.42237881       0.02160855      -0.01594591       0.00457489
Cl       8.26806113       6.08688342       9.22816975       0.01787937      -0.00611103       0.00498503
C        7.08538666       6.63359862       8.03215972       0.01791006      -0.01332147       0.00226797
