196
Lattice="13.65898899976904 0.0 0.0 0.0 13.65898899976904 0.0 0.0 0.0 13.65898899976904" Properties=species:S:1:pos:R:3:forces:R:3 energy=-359886.625 stress="0.00016145827248692513 0.00019626219000201672 0.00013580089580500498 0.00019626219000201672 -0.0006021354929544032 0.0002747163234744221 0.00013580089580500498 0.0002747163234744221 -0.00017249558004550636" pbc="T T T"
Nd      13.14998083      12.50556586       2.23833700      -0.00629947       0.00945047      -0.00582957
F       13.04701929      12.13886822       0.25646833      -0.00016137       0.01204514      -0.00678238
F       14.41138832      13.99972198       2.83045412      -0.00706244       0.00437034       0.01338716
F       11.32894845      13.39036277       2.70851414      -0.01207203       0.00209730      -0.00880728
O        8.69594183      14.09200541       1.43584901       0.01959711      -0.00149497      -0.00360064
C        7.92907082      12.90889756       1.69319103       0.00476234       0.00410742      -0.00887468
C        8.52574284      11.71590069       0.96418466       0.00078952       0.00063682      -0.00672662
C        7.80197690      12.67183657       3.19057902       0.00193259       0.00663394      -0.00879848
H        6.93954445      13.12360198       1.28360219       0.00828123       0.00873402      -0.01084697
H        7.90229839      10.82898536       1.09836775      -0.00297825       0.00322413      -0.00619572
H        8.59061673      11.91809171      -0.10461243       0.00185314      -0.00102978      -0.00707819
H        9.52973326      11.49812097       1.33934146      -0.00000021      -0.00370889      -0.00709194
H        7.24746769      11.75351692       3.39767203      -0.00505262       0.01118755      -0.00747335
H        7.28176766      13.50414060       3.66193914       0.00716032       0.01121405      -0.01125394
H        8.79374395      12.58485107       3.64566639       0.00035675       0.00045842      -0.00680044
H        9.55671293      13.98885109       1.86683911       0.00575346      -0.00180717       0.00433918
O        5.51052163       1.56358722       2.83240579      -0.00186998      -0.00016016       0.00720921
C        4.10175196       1.59085392       3.08526934      -0.00148544      -0.00554577       0.00907889
C        3.75127327       0.86237652       4.37236048       0.00353171      -0.00386989       0.01145297
C        3.57744899       3.01391535       3.10124042      -0.00779146      -0.00777429       0.00545944
H        3.66550205       1.06048104       2.23345498      -0.00042620      -0.00976169       0.01103073
H        2.66841403       0.82681042       4.50281989       0.00393173      -0.00641418       0.01452940
H        4.14829896      -0.15417154       4.36589859       0.00600192      -0.00287290       0.01278444
H        4.17901064       1.38708106       5.23145335       0.00426446      -0.00066805       0.00910583
H        2.48722496       3.02883499       3.13957369      -0.00779489      -0.01253238       0.00675506
H        3.90166712       3.55834971       2.21260344      -0.01128750      -0.00927764       0.00329553
H        3.94072653       3.53627043       3.99176312      -0.00862996      -0.00346385       0.00321141
H        5.95237105       2.03578769       3.54791548      -0.00356197       0.01247802      -0.00018036
O        6.65616631       4.64869308       4.58967188      -0.00741971      -0.01552896      -0.01422298
C        7.70410380       5.37032240       3.89435543      -0.00373662      -0.01025750      -0.00400946
C        8.52461374       4.40813457       3.05930491      -0.00006384      -0.00536036      -0.00576293
C        7.09286922       6.49354694       3.07999400       0.00103697      -0.00470349       0.00020036
H        8.32659018       5.78967466       4.69241857      -0.00742283      -0.01529856       0.00147164
H        9.33405824       4.93184579       2.54797687       0.00605690      -0.00357461       0.00605879
H        8.97007756       3.63406953       3.68385832      -0.00807784      -0.01229501      -0.00871523
H        7.90216285       3.92091445       2.30554206       0.00510533       0.00313998      -0.01532238
H        7.87244773       7.06747854       2.57513131       0.00416957      -0.00272358       0.00735737
H        6.49839855       7.16873835       3.69756416      -0.00071277      -0.00724374       0.00134562
H        6.44135234       6.07875014       2.30382838       0.00423646       0.00097275      -0.00545865
H        5.87272387       4.65200793       4.02837677      -0.01116025       0.00562604      -0.00836846
O       13.89987974       1.29975485       8.02471034       0.00443715       0.00112756      -0.00114799
C       12.86272707       1.65763873       8.94137149       0.00215185      -0.00282711      -0.00235879
C       12.58866979       3.15159637       8.88892636      -0.00512540      -0.00429779      -0.00439364
C       11.60295304       0.84666795       8.68908276       0.00616038      -0.00926515      -0.00184372
H       13.26950718       1.39762101       9.92187537       0.00285235       0.00039023      -0.00180066
H       11.85101689       3.44227497       9.64013735      -0.00748830      -0.00723046      -0.00561261
H       13.50325487       3.71950413       9.06293913      -0.00820641       0.00046350      -0.00388889
H       12.19014164       3.42303145       7.90743254      -0.00547085      -0.00732934      -0.00505906
H       10.84573782       1.06137635       9.44532409       0.00508387      -0.01252992      -0.00187187
H       11.82087073      -0.22049028       8.70699356       0.01164386      -0.00810836      -0.00111258
H       11.18023471       1.09850518       7.71159880       0.00491079      -0.01215760      -0.00198327
H       13.55751479       1.43360010       7.13514783       0.00584666       0.00214147      -0.00155815
O       10.08087144       2.25611186      13.57606358      -0.01521869       0.03122246       0.01824260
C       10.21748835       2.72514959      12.24512606      -0.00308266       0.00471914       0.01136649
C        9.06756523       2.29703437      11.34894857       0.00056481      -0.00625226       0.01173937
C       10.33938787       4.23698754      12.33037923       0.00124904       0.00534981      -0.01071072
H       11.15318862       2.32513180      11.81950014      -0.00175464      -0.00481942       0.02222773
H        9.21539860       2.67872805      10.33641103       0.00429348      -0.01855420       0.00790365
H        8.99016866       1.20891345      11.28836240       0.00087724      -0.00699367       0.02422352
H        8.12223125       2.68751866      11.72577299      -0.00083378      -0.00241776       0.00436082
H       10.51998991       4.68474895      11.35124929       0.00657418      -0.00895733      -0.01624992
H       11.15999004       4.50817973      12.99533861      -0.00105061       0.01253537      -0.01095335
H        9.41660325       4.65051553      12.74461370       0.00073345       0.01344500      -0.02039649
H        9.46182843       1.51494993      13.64722892       0.01607898       0.00394136       0.02076344
O       12.02180256       5.58984819       5.31752513       0.00269586       0.00419712       0.00183062
C       11.40750929       6.60331542       6.12433697       0.00471729       0.00322776       0.00453243
C       10.57384706       5.99772710       7.23814202       0.00576034       0.00204042       0.00478834
C       12.43396160       7.58372052       6.65378363       0.00640148       0.00105438       0.00532401
H       10.73189209       7.11307145       5.43079652       0.00448012       0.00531347       0.00628898
H        9.96007362       6.76573448       7.71168884       0.00865867       0.00209187       0.00828336
H        9.92528507       5.21630173       6.84312112       0.00361483       0.00399132       0.00455201
H       11.21151911       5.56735302       8.01242244       0.00691333      -0.00097849       0.00218426
H       11.96097812       8.36591594       7.24654545       0.00748044       0.00103143       0.00626700
H       13.00499874       8.02778709       5.84082314       0.00690565       0.00106673       0.00567038
H       13.13241518       7.06638375       7.31912561       0.00598539      -0.00094530       0.00428026
H       12.77035183       5.24233463       5.81350226       0.00258593       0.00198529       0.00041750
O        4.00352639       8.54640861       4.08879571       0.00637716       0.00019959       0.00165072
C        2.90137780       7.73100958       3.70239966       0.00516582       0.00438875      -0.00288221
C        3.19980049       6.26290773       3.95796376       0.00184529       0.00264418      -0.00838575
C        1.62279103       8.16167707       4.40158543       0.00497419       0.00402385      -0.00277510
H        2.79060930       7.88310285       2.62241007       0.00687721       0.00890914      -0.00240022
H        2.36575497       5.63243407       3.64320339       0.00188158       0.00500001      -0.01309407
H        4.08743899       5.96468477       3.39877157       0.00274213       0.00379852      -0.00769444
H        3.38467593       6.08974151       5.02138972      -0.00099720      -0.00183106      -0.00854686
H        0.79125342       7.51688265       4.10909701       0.00457834       0.00582719      -0.00552695
H        1.38089301       9.19691152       4.15441041       0.00620715       0.00519614       0.00071681
H        1.74854234       8.08685198       5.48422224       0.00385885       0.00045852      -0.00293602
H        4.02643677       8.55989133       5.06770312       0.00688492      -0.00549472       0.00185733
O        6.06731624      11.35533817      12.24519443      -0.00704205       0.00336981       0.00471812
C        6.25500514      12.20426655      11.11033647      -0.00973783       0.00210743       0.00352079
C        7.30252557      11.62678705      10.16593450      -0.00408894       0.00635859       0.00718531
C        4.93739692      12.45958158      10.40012252      -0.00957847      -0.00722770      -0.00036156
H        6.62361321      13.14819901      11.52229206      -0.01659928       0.00537491       0.00216198
H        7.47031981      12.29091534       9.31510487      -0.00425044       0.00668822       0.00749053
H        8.25531318      11.47397977      10.67499340      -0.00521448       0.01077614       0.01058833
H        6.96288288      10.66239274       9.77510213       0.00155182       0.00461660       0.00649398
H        5.07134170      13.15106963       9.56648051      -0.01171091      -0.00744890      -0.00087109
H        4.21637174      12.90361068      11.08327719      -0.01434234      -0.01113484      -0.00288053
H        4.53135834      11.52242964      10.00974473      -0.00254436      -0.01024002      -0.00044797
H        5.78623993      10.48131057      11.92671420      -0.00272339       0.00148395       0.00558636
O        1.90235769      11.44453612       2.57773312      -0.01476938       0.01748902      -0.01350898
C        2.96003547      11.06570462       1.61192617      -0.01412397       0.00646490      -0.00822534
C        2.81209287      11.88503549       0.35023962      -0.00531439       0.00000063      -0.01348174
C        4.32212268      11.22807025       2.24772843      -0.01629102       0.00315706      -0.00327861
H        2.76524305      10.01063413       1.41172832      -0.01996671       0.00641465      -0.00255693
H        3.58340058      11.59448091      -0.36510102      -0.00219457      -0.00556232      -0.00777318
H        1.83128335      11.75149448      -0.10523370      -0.00334021       0.00107680      -0.01790335
H        2.95523807      12.94516763       0.57653998      -0.00284413       0.00074643      -0.01847319
H        5.08648869      10.93707998       1.52415490      -0.01422055      -0.00531194       0.00241603
H        4.42113737      10.60139557       3.13305068      -0.02353187       0.00858232       0.00133497
H        4.50981606      12.27711308       2.49519068      -0.01256461       0.00385216      -0.00908251
H        2.27402543      12.16185999       3.10990304      -0.02056080       0.03361756      -0.03050700
O        4.70565578       1.90328138      11.23143139       0.00110321      -0.00423145       0.01210278
C        4.43959852       2.55669044      12.47847154      -0.00050814      -0.00671151       0.01300034
C        5.72850447       3.05852999      13.10371962      -0.00172329      -0.00734976       0.01598129
C        3.42005148       3.66681687      12.29261662      -0.00110382      -0.00697255       0.01401787
H        4.01449923       1.77092874      13.10832483      -0.00106840      -0.00824308       0.01069376
H        5.53956065       3.54414767      14.06246537      -0.00353350      -0.01008330       0.01696089
H        6.42405885       2.23836451      13.27722108      -0.00096452      -0.00687602       0.01492875
H        6.20052491       3.78870212      12.44113622      -0.00133415      -0.00508580       0.01863237
H        3.16504115       4.13274157      13.24617024      -0.00317314      -0.00983724       0.01488902
H        2.50806733       3.28242639      11.83529205       0.00011262      -0.00641951       0.01131378
H        3.82566208       4.44618095      11.64182746      -0.00052564      -0.00481371       0.01688772
H        4.91765512       2.58805079      10.58898160       0.01032872      -0.00334325       0.01599318
O        4.05850744       8.53180660       6.86645428       0.00854850      -0.00627810      -0.00154504
C        5.07308674       9.32333980       7.48729261       0.00771123      -0.00270313      -0.00513415
C        6.45459694       8.81126888       7.11038523       0.00847256       0.00008214      -0.00616817
C        4.84854405      10.75845662       7.05939926       0.00368668      -0.00449604      -0.00901011
H        4.95073739       9.25591122       8.58057767       0.00946679      -0.00014329      -0.00480056
H        7.23639973       9.39139493       7.60577435       0.00778899       0.00246770      -0.00790738
H        6.56566690       7.76339827       7.39739888       0.01157470       0.00065193      -0.00514475
H        6.59446396       8.88934343       6.03009495       0.00672941      -0.00062900      -0.00639266
H        5.58615046      11.41637000       7.51909224       0.00272840      -0.00125245      -0.01218990
H        3.85483174      11.09692217       7.35247063       0.00303045      -0.00643547      -0.00917415
H        4.93695300      10.83865966       5.97399291       0.00189001      -0.00787794      -0.00937366
H        4.22278266       7.58612997       7.07114710       0.00766122      -0.00577147       0.00237016
O       11.19896676       8.64316077       9.53367779      -0.01026011       0.00519852       0.00686330
C       11.79951099       8.89932620      10.81476829       0.00337502       0.00536585       0.00041583
C       11.22122210      10.16062305      11.42931189       0.01080337       0.00581831       0.00634924
C       11.65464168       7.68204818      11.71307830       0.01192905       0.00631380       0.00296971
H       12.85689876       9.05590419      10.58783094       0.00102490       0.00448705      -0.01085427
H       11.70271286      10.40670540      12.37655071       0.02365226       0.00722334      -0.00077762
H       11.35021189      11.00592184      10.75283472       0.00106943       0.00497663       0.00362070
H       10.15257693      10.02877612      11.61803230       0.01341197       0.00544215       0.02152555
H       12.10418638       7.85826822      12.69226337       0.02401932       0.00649144      -0.00266762
H       12.13131487       6.81128041      11.26263886       0.00478020       0.00503373      -0.00184844
H       10.59889313       7.44791719      11.86672972       0.01324058       0.00865949       0.01585746
H       10.24605717       8.62968866       9.67044153      -0.00892310       0.00736585       0.01657897
O       11.53195246      10.84035110       3.39147361       0.01410455      -0.00019881      -0.00977138
C       11.09087650       9.53180157       3.88047286       0.01435429      -0.00078540      -0.00907028
C        9.58143915       9.49783675       3.98840806       0.01482666       0.00320379      -0.00481475
C       11.64582083       8.49647977       2.93431178       0.01013432      -0.00235671      -0.00980684
H       11.53069613       9.41128402       4.87339958       0.01730208      -0.00078332      -0.01040953
H        9.26071409       8.52671662       4.36932501       0.01300631       0.00592606       0.00029466
H        9.20755819      10.25780290       4.67742846       0.01926341       0.00780113      -0.00733523
H        9.11732246       9.65044408       3.01279835       0.01239954       0.00061234      -0.00412634
H       11.44959181       7.49158560       3.30870140       0.00799912      -0.00160517      -0.00838482
H       12.72651442       8.60586628       2.83752495       0.01013483      -0.00566331      -0.01164478
H       11.19019160       8.60629959       1.94840892       0.00870167      -0.00233263      -0.00911333
H       10.85348504      11.50431821       3.58215299       0.00889635      -0.00294244      -0.01738924
O        5.60619908       8.55278481      11.80793530      -0.00306071       0.00737149       0.00040412
C        6.59140938       8.07781958      12.74791225      -0.00688243       0.00005099       0.00063337
C        6.57549653       6.56490470      12.81976312      -0.01446402      -0.00005430      -0.00446566
C        7.96360933       8.61807436      12.40030882      -0.00360078      -0.00484267       0.00534020
H        6.26573435       8.49872098      13.70262108      -0.00675686      -0.00156023       0.00140870
H        7.28204386       6.20636448      13.57101452      -0.01673993      -0.00648068      -0.00545837
H        5.58260548       6.19203152      13.06971197      -0.01660329       0.00423167      -0.00631340
H        6.87884397       6.13879881      11.85770555      -0.01634409       0.00170999      -0.00581755
H        8.70231923       8.31080711      13.14342288      -0.00720021      -0.00958998       0.00694841
H        7.94120249       9.70522793      12.35532405       0.00115454      -0.00458133       0.00762058
H        8.28401803       8.22552816      11.42947361      -0.00227320      -0.00410584       0.00549587
H        5.79628542       8.14813655      10.95412043      -0.00390251       0.00881293      -0.00041252
O        5.92439370       3.78561978       7.09454708      -0.00481997       0.00622493      -0.00633824
C        7.01167648       3.56846172       8.00491451      -0.00775310       0.00286983      -0.00379664
C        8.14180255       2.83202600       7.30630528      -0.00643012       0.00369358      -0.00207928
C        7.45200263       4.89125496       8.61203250      -0.00748900       0.00015229       0.00184146
H        6.60793069       2.92656199       8.79593350      -0.01117611       0.00112647      -0.00699458
H        8.98606960       2.67916639       7.98044947      -0.01068369      -0.00269385       0.00181866
H        7.80423948       1.85956886       6.94695596      -0.00733541       0.00694281      -0.00969997
H        8.49621897       3.40781066       6.44799001       0.00009244       0.00791155       0.00345033
H        8.28343269       4.75469906       9.30689357      -0.01374784      -0.00501740       0.00835501
H        6.62078966       5.35813782       9.14481356      -0.00977513       0.00249146      -0.00388594
H        7.77623738       5.57258650       7.82424953       0.00188159       0.00040548       0.00596574
H        6.29700550       4.09529956       6.24453477      -0.00401902       0.00199809      -0.00762644
O        4.17890917       5.88619180       7.41115573      -0.00100255      -0.00153495       0.00370762
C        3.06696356       5.57083317       8.26366669      -0.00097132      -0.00187130       0.00328934
C        3.00251011       4.07897692       8.51797633      -0.00096493      -0.00181001       0.00399372
C        3.16666720       6.39265300       9.53730965      -0.00166249      -0.00182390       0.00334066
H        2.16605050       5.88185535       7.71922898      -0.00105363      -0.00235595       0.00331318
H        2.17079940       3.82568871       9.17450004      -0.00346224      -0.00147331       0.00094157
H        2.88691059       3.52233002       7.58820714       0.00226112      -0.00237293       0.00396655
H        3.92380632       3.73854614       8.99724148      -0.00295360      -0.00160263       0.00793707
H        2.31834255       6.20187425      10.19739439      -0.00386919       0.00059670       0.00114335
H        3.18450402       7.45741025       9.30071536       0.00177084      -0.00195926       0.00299442
H        4.08326933       6.14280537      10.07743475      -0.00377186      -0.00420238       0.00580336
H        4.80160041       5.12735694       7.37372211      -0.00210828      -0.00260824      -0.00052218
