190
Lattice="13.422035124416015 0.0 0.0 0.0 13.422035124416015 0.0 0.0 0.0 13.422035124416015" Properties=species:S:1:pos:R:3:forces:R:3 energy=-360157.71875 stress="0.0002287311654072255 -0.00011542402353370562 -0.0004814433923456818 -0.00011542402353370562 -8.968234033090994e-05 -0.00034763199801091105 -0.0004814433923456818 -0.00034763199801091105 -0.0004916451871395111" pbc="T T T"
Nd      12.78772019      14.23280621       0.17640136      -0.00638005       0.01522535       0.00497129
O        5.71126726      13.90943619       4.76285834      -0.00823891      -0.00453651      -0.00084960
N        4.02097892      12.22933808       5.12847960       0.00416398      -0.01610816       0.00386977
C        4.85374362      13.05545371       4.96714663      -0.00139761      -0.00972986       0.00139140
O        7.61639795      12.19425615      13.19832672       0.04371905      -0.01890418      -0.00976381
N        9.79914248      12.08976904      12.26385104      -0.00372326       0.00342464       0.00059652
C        8.70690659      12.17586918      12.80427772      -0.03820505      -0.00760350       0.01722449
O       12.06523442      12.45649922      -1.24803822      -0.00388691       0.02336320      -0.01124725
N       10.90005309      13.53358202       0.37839042      -0.00206643      -0.00142878       0.00524491
C       10.95962720      12.70479750      -0.63414708       0.00303212       0.01229954       0.00031555
O       13.52731253       3.19181813       3.93190889       0.01323742       0.00541055      -0.00252515
C       12.75436164       2.89402095       2.80719092       0.00223863       0.00535002       0.00551105
C       12.35010073       1.42885285       2.94070156       0.00767189       0.00375503       0.00675985
C       11.56775943       3.83279269       2.66073445      -0.00325662       0.00056911       0.01896107
H       13.37702313       3.00294621       1.87371121      -0.00783627       0.00962393      -0.00080395
H       11.48358409       1.16812675       2.32531733       0.00184268       0.00201678       0.01566816
H       13.20580990       0.74869485       2.74020825       0.00799317       0.00661768      -0.00304935
H       12.06269202       1.22146641       3.97359425       0.01981662       0.00133991       0.00950477
H       10.96426294       3.59412998       1.78108751      -0.00563310       0.00522760       0.01920010
H       11.92233647       4.85947303       2.55553836      -0.00926380       0.00322260       0.02647992
H       10.92950219       3.76843688       3.54339347       0.00061412      -0.01037714       0.02092908
H       13.73630924       4.14414901       3.93490782       0.02910363       0.00201516      -0.01350895
O        6.65511993       3.02182330       4.72640109      -0.01370406      -0.00426748      -0.00000671
C        8.04597377       2.82311763       4.52010370      -0.01326150      -0.00161737      -0.00260495
C        8.65426809       1.97877679       5.63032127      -0.00945802       0.00145179      -0.00219232
C        8.30493801       2.21913268       3.14335108      -0.01499626      -0.00405639      -0.00177556
H        8.49547004       3.82555589       4.55943960      -0.01519251      -0.00069493      -0.00547827
H        9.73423714       1.87493857       5.49517988      -0.00936416       0.00298665      -0.00434927
H        8.46644954       2.43684689       6.60167158      -0.00804561       0.00246815      -0.00243878
H        8.20378995       0.98489538       5.63269324      -0.00728272       0.00060993       0.00023991
H        9.36490130       2.00718856       2.99509162      -0.01487790      -0.00266504      -0.00383748
H        7.97298289       2.90083029       2.35641506      -0.01783698      -0.00650720      -0.00265805
H        7.75293761       1.28363394       3.04555684      -0.01351142      -0.00524522       0.00145056
H        6.25274306       2.12893210       4.81414606      -0.01114319      -0.00530566       0.00188971
O        9.89038329      10.93260700       1.87072550      -0.03161273      -0.02020121       0.00708982
C        9.63853919      11.83867275       2.95828437      -0.01773414      -0.01407895       0.00448072
C        8.17076384      11.82205001       3.32799900      -0.01434880      -0.00472856       0.01835085
C       10.54684017      11.52793231       4.13806098      -0.00916693      -0.01313174      -0.00150526
H        9.90417242      12.82018225       2.55528126      -0.01614551      -0.01693058      -0.00121647
H        7.94005400      12.51574629       4.13604529      -0.00320703       0.00172721       0.01594587
H        7.56309022      12.09737899       2.46669456      -0.02115256      -0.00731938       0.02258360
H        7.87081473      10.81962663       3.64186876      -0.01635876      -0.00073974       0.02827727
H       10.39846417      12.25766915       4.93745414       0.00150948      -0.00846261      -0.00386044
H       11.59580993      11.54628461       3.83704779      -0.01184019      -0.01909276      -0.00977913
H       10.32485778      10.53730489       4.54253295      -0.01040079      -0.01001179       0.00506821
H        9.35424735      10.14242477       2.02510317      -0.04240250      -0.01279093       0.00875419
O        1.13666931       0.47281128      11.87692800      -0.00471944       0.00034142       0.01903313
C        2.34267259       1.33310986      11.83455368      -0.00462079      -0.00085415       0.00507294
C        2.84673300       1.50241478      10.42513669      -0.01805755      -0.00840096      -0.00054842
C        1.90818883       2.62796075      12.47599844       0.00168444       0.00226316       0.00315456
H        3.10034407       0.83860834      12.44929843       0.00047866       0.00128081       0.00033659
H        3.72977329       2.14345427      10.44985650      -0.01453178      -0.01308128      -0.01253887
H        3.14351607       0.54730770       9.99003374      -0.02783233      -0.01171467       0.00003326
H        2.09408445       1.96920876       9.78835543      -0.02218206      -0.00714251       0.00547289
H        2.76273254       3.28811540      12.61846869       0.00305362       0.00259939      -0.00807464
H        1.47052313       2.43975623      13.47066250       0.01081572       0.00707765       0.00777345
H        1.17564250       3.14078088      11.84912781      -0.00386417      -0.00035233       0.00744419
H        1.26270660      -0.29260248      11.30287333      -0.01272698      -0.00099313       0.01897961
O        3.30996799       3.66743686       3.69404994       0.02106881       0.00321139       0.00955617
C        3.43653000       3.04599774       2.40955563       0.00310031       0.00408593       0.00742745
C        4.71221959       3.51093244       1.72583041      -0.00171751      -0.00147262      -0.00470486
C        3.37921769       1.53477704       2.53069507      -0.00652706       0.00464982       0.00785753
H        2.56608008       3.41516615       1.85774776      -0.00065875       0.01008242       0.01753512
H        4.85088560       2.99340104       0.77301616      -0.01146445      -0.00248756      -0.00535043
H        4.68880211       4.58922897       1.55579051       0.00029463      -0.00137390      -0.00486353
H        5.56648939       3.28134539       2.36613775       0.00265785      -0.00378800      -0.01156537
H        3.39343311       1.06979818       1.54009097      -0.01926439       0.00417512       0.00802189
H        2.49023131       1.21593610       3.07608687      -0.00400621       0.01245458       0.01614361
H        4.24881304       1.16449507       3.07740925      -0.00522178      -0.00162088       0.00060654
H        4.01575420       3.33521733       4.26194333       0.03801119       0.01624416      -0.00458331
O        7.68297999       8.50348523       2.32713258       0.01818910       0.00889455      -0.01160884
C        8.01293253       7.29658707       3.03704200       0.00959499       0.00607821      -0.01192787
C        6.99818218       6.20467605       2.76243298       0.00003296       0.01441383      -0.00969623
C        9.42960234       6.86368714       2.70489653       0.00489795      -0.00746979      -0.01357321
H        7.96002687       7.58085363       4.09159484       0.01383303       0.00666322      -0.01199824
H        7.18378468       5.32289015       3.37867008      -0.00690666       0.01420760      -0.00766337
H        5.98646865       6.55103423       2.97355686       0.00317712       0.02346416      -0.01016152
H        7.05061463       5.89411798       1.71384797      -0.00294316       0.01136907      -0.00886421
H        9.71489670       5.99321056       3.29708934      -0.00214972      -0.00702423      -0.00946862
H       10.13585530       7.66877709       2.91430200       0.01256964      -0.01287189      -0.01931996
H        9.51002820       6.59661451       1.64839239       0.00056490      -0.01419748      -0.01215053
H        7.34983769       8.25626924       1.45751561       0.01020209       0.01173618      -0.00927779
O       13.25379179       1.14240418       7.34525085      -0.00209156      -0.01002830      -0.00028871
C       12.19312863       2.02028054       7.74768030       0.00211424      -0.00622112       0.00254774
C       11.00431610       1.22988858       8.26629223       0.00150925      -0.00191998       0.00776589
C       12.69672788       3.03438018       8.76279526       0.00889233      -0.00590748      -0.00104010
H       11.91715108       2.54246875       6.82594188       0.00037825      -0.00667343       0.00288743
H       10.16744505       1.88748090       8.50840556       0.00527859       0.00158098       0.01147756
H       10.66122923       0.50221383       7.53116578      -0.00415778      -0.00094990       0.00913361
H       11.27464205       0.68553215       9.17778284       0.00354117      -0.00250515       0.00684263
H       11.90782779       3.73194709       9.05285668       0.01274063      -0.00135271      -0.00150102
H       13.52347142       3.61556167       8.35432012       0.01086339      -0.01114827      -0.00445263
H       13.04741194       2.51053147       9.65649904       0.00826820      -0.00480480      -0.00013223
H       13.36617218       0.49583373       8.04862128       0.00124508      -0.00734448       0.00172065
O        9.72749971       4.34755259      12.73144270      -0.00944263       0.00478780       0.01524061
C       10.00886467       3.25714533      11.85485997      -0.00272998       0.01555267       0.00405955
C       11.46622669       2.82971238      12.10946320      -0.00287068       0.01596113       0.00538111
C        8.99278998       2.14669926      12.01481670       0.00086510       0.01019457      -0.01127020
H        9.95258728       3.65979666      10.83932925      -0.00018948       0.02708556       0.00876427
H       11.70570094       1.87170588      11.60995500      -0.00160847       0.01722047       0.00357407
H       12.15291415       3.59389660      11.74405390      -0.00175701       0.01715121       0.00951258
H       11.57935602       2.77538725      13.21010635      -0.00606190       0.01344802       0.00565790
H        9.18349861       1.32655511      11.31968841       0.00579704       0.01831126      -0.01962262
H        7.99210161       2.53332243      11.81480124      -0.00021245       0.00816527      -0.00925929
H        9.02307848       1.73836115      13.02929601       0.00044807      -0.00057092      -0.01566894
H        9.25315451       3.99199056      13.49019201      -0.01012331      -0.00541458       0.00965074
O       11.54867107       5.96039884       7.52556643      -0.00622818      -0.00314254       0.00190488
C       10.38728532       6.79785774       7.57437717      -0.00748336      -0.00453606      -0.00079797
C       10.01956783       7.29879281       6.19000503      -0.00021814       0.00126718      -0.00060731
C        9.22706811       6.08222964       8.24418351      -0.01013517      -0.00824016      -0.00967228
H       10.69843638       7.64261155       8.19184029      -0.01173057      -0.00687844       0.00450367
H        9.20606475       8.02505469       6.24608856      -0.00219579      -0.00082679      -0.00183059
H       10.87739503       7.76295371       5.70271426       0.00142066       0.00575079       0.00675482
H        9.67807136       6.46445133       5.57176137       0.00536286       0.00368066      -0.00699002
H        8.36386440       6.74712717       8.33248524      -0.01146939      -0.00962651      -0.01209609
H        9.50368830       5.75582564       9.24541265      -0.01480575      -0.01069114      -0.00918958
H        8.92193041       5.21672982       7.64728275      -0.00559544      -0.00699081      -0.01370104
H       11.34163147       5.20951383       6.95886370      -0.00140733       0.00064960      -0.00480713
O        1.30195335       5.61023742       3.69093676       0.03855143      -0.01184428      -0.02555281
C        1.80214097       6.90756215       4.05907686       0.01747490      -0.00840110      -0.01354539
C        3.25902414       6.99842825       3.64392121       0.01567692       0.02283249      -0.01228131
C        0.95263820       7.97491256       3.40180319      -0.00209323      -0.01873013      -0.00369552
H        1.71931121       7.02196666       5.14757445       0.01627958      -0.02021412      -0.01227689
H        3.67251073       7.98733619       3.84183843      -0.00318297       0.02786234       0.00049987
H        3.85451263       6.25286586       4.17421081       0.02957944       0.02852969      -0.02067453
H        3.33779690       6.78906142       2.57465857       0.02079543       0.03886005      -0.01463304
H        1.33092559       8.96175791       3.67967884      -0.02260730      -0.01412533       0.00561973
H       -0.08841066       7.90474939       3.71902647      -0.00038800      -0.04298838      -0.00556668
H        0.99329602       7.87866179       2.31517654       0.00040274      -0.00805934      -0.00434302
H        2.03715693       4.97660450       3.80224478       0.04220447      -0.00592670      -0.01171439
O        8.17277359      12.07523699       9.41726937       0.00663328       0.01399003       0.00335830
C        6.85986367      11.49351561       9.39106878       0.00911433       0.00755595       0.00035200
C        6.83409952      10.14666006      10.09000005       0.01484838       0.00693983      -0.00075239
C        5.84585514      12.45862945       9.98729349       0.00505239       0.00322145       0.00027874
H        6.62416744      11.36055895       8.33133424       0.01021874       0.00684635       0.00011456
H        5.83847242       9.70504728      10.05513066       0.01670972       0.00249407      -0.00167450
H        7.51962225       9.44680698       9.60716998       0.01812328       0.01029860      -0.00102111
H        7.09692582      10.25600452      11.14649817       0.01405863       0.00713219      -0.00062175
H        4.83478950      12.06681613       9.85354506       0.00665192      -0.00076505      -0.00026350
H        5.91510907      13.42944970       9.49653820       0.00121155       0.00339444       0.00020038
H        6.02364090      12.59090949      11.05627403       0.00464125       0.00384992       0.00002201
H        8.66685593      11.69280198      10.14781402       0.01292950       0.00346725      -0.00811131
O        4.94012119      10.35316079      -0.13831508       0.00047278      -0.01020205       0.00083730
C        4.09581525      10.16935254       1.01021306      -0.00332758      -0.00002351      -0.00067040
C        4.79465195      10.59330493       2.28230059      -0.00433666       0.00291610      -0.00109321
C        2.77496036      10.90327872       0.82066142       0.00085956       0.00587901      -0.00718361
H        3.89213906       9.09320687       1.03666611      -0.00909661       0.00134611       0.00436294
H        4.15150200      10.48280841       3.15556791      -0.00643277       0.01127059      -0.00163174
H        5.71034482      10.02277706       2.43785399      -0.00736474      -0.00047407       0.00382083
H        5.04931579      11.65671161       2.23828519       0.00146195       0.00129633      -0.00655162
H        2.09039338      10.67005585       1.63811603      -0.00208333       0.01383156      -0.00731017
H        2.30560230      10.62156436      -0.12331149       0.00140496       0.00344849      -0.00670603
H        2.95214900      11.98328286       0.82733884       0.00630226       0.00487098      -0.01245418
H        5.51458404      11.10441129       0.04047492       0.00254966      -0.01161139      -0.00266442
O        5.09529275       4.09773291      11.62393247      -0.00758290       0.00017266       0.00794667
C        5.07955020       5.30688022      10.83515857      -0.00379845      -0.00424039       0.00128152
C        3.69121224       5.92250572      10.83765702      -0.00227892      -0.00081071      -0.00371230
C        6.13744163       6.27524316      11.32011700      -0.00198495      -0.00388777      -0.00319663
H        5.32427587       4.97873601       9.82128464      -0.00357946      -0.01073799       0.00348198
H        3.66698306       6.80206593      10.19241549       0.00060971      -0.00469387      -0.00910503
H        2.94881374       5.20777422      10.47994924      -0.00375921      -0.00109346       0.00001792
H        3.41762102       6.23287432      11.84975318      -0.00242765       0.00610554      -0.00598948
H        6.16503660       7.15484028      10.67422477       0.00047663      -0.00773825      -0.00816357
H        7.12649584       5.81812119      11.33751120      -0.00287721      -0.00575121       0.00031959
H        5.89715166       6.62244034      12.33135903      -0.00235404       0.00233651      -0.00543420
H        5.28160783       4.35871550      12.53120922      -0.00938394       0.00487942       0.00701337
O        5.51427290       8.09206798       7.94529408      -0.00174063      -0.00470871       0.00554482
C        4.91959231       9.15851540       7.17378508       0.00578269      -0.00171304       0.00389445
C        5.77151788       9.50837524       5.97122115       0.00821418      -0.00992276       0.00329816
C        3.49496802       8.80764483       6.79120027       0.00292766       0.00889745       0.00475343
H        4.89888558      10.01064976       7.85524771       0.01239113      -0.00058299       0.00259858
H        5.33960218      10.37123360       5.45653433       0.01361758      -0.00813603       0.00180147
H        6.79024395       9.75146430       6.27997455       0.00987762      -0.01642898       0.00278679
H        5.81286062       8.66607224       5.27156118       0.00216221      -0.01138474       0.00483225
H        3.05469965       9.62042376       6.21039064       0.00882664       0.01329672       0.00633131
H        2.88684160       8.62668945       7.67818327       0.00275259       0.01275594       0.00531438
H        3.48941456       7.89961736       6.18541840      -0.00480536       0.00951646       0.00384533
H        5.59764218       7.33924712       7.35099937      -0.00529005      -0.00568365       0.00613733
O        9.28159744       7.03701632      11.35850901       0.00407642       0.00247614      -0.00788209
C       10.37881128       7.70562881      11.99029934       0.00560880      -0.00382596      -0.00360876
C       11.39202025       8.17935901      10.96165440       0.00769511      -0.00124356      -0.00034702
C        9.86523377       8.85147635      12.83615679       0.00916183      -0.00716758       0.00290987
H       10.82888067       6.93893027      12.62566292       0.00280669      -0.00872076      -0.00749835
H       12.24753669       8.65101474      11.44823910       0.00991502      -0.00907602       0.00310352
H       11.74618939       7.34913646      10.35001766       0.00360677       0.00146151      -0.00627444
H       10.93496840       8.92523741      10.30412102       0.01128358       0.00555658       0.00515232
H       10.67052925       9.40855205      13.31484993       0.01034494      -0.01229729       0.00674586
H        9.18503411       8.49523579      13.60824969       0.00880820      -0.00937181       0.00115605
H        9.32228881       9.55033959      12.19627607       0.01104393      -0.00161632       0.00734328
H        8.78352980       7.70491108      10.87348613       0.00352491       0.00696048      -0.00114130
