193
Lattice="13.085517570368992 0.0 0.0 0.0 13.085517570368992 0.0 0.0 0.0 13.085517570368992" Properties=species:S:1:pos:R:3:forces:R:3 energy=-365930.5625 stress="-0.00025316065875813365 0.00033434436772949994 0.0003355652734171599 0.00033434436772949994 -0.0008974822703748941 0.0009201532229781151 0.0003355652734171599 0.0009201532229781151 -0.0002776140463538468" pbc="T T T"
Nd      12.55143520      11.09258538      -2.81529625      -0.00312936       0.00257033      -0.00750971
O        6.33736383       9.95810479       3.16713906      -0.00526404       0.00278378      -0.00460553
O        4.62285405      11.09577204       4.03204649      -0.00368500      -0.00279680       0.00594933
C        6.80016904      12.00391108       4.31181225      -0.00470293       0.00236970      -0.00459659
C        5.85613727      10.93036725       3.79062855      -0.00447237       0.00063527      -0.00100338
H        6.71220146      12.89366595       3.68401953      -0.00631240       0.00094762      -0.00629415
H        7.83407286      11.67358487       4.29358417      -0.00456384       0.00278432      -0.00594701
H        6.52116906      12.29281908       5.32400837      -0.00343692       0.00390360      -0.00472291
O       11.73425768       9.17394048      10.25463166      -0.00644447       0.00370726      -0.01125535
O       11.78089758       7.34306463       8.99539563      -0.01198883      -0.00448164       0.00072087
C        9.79580493       8.66809797       8.91176097      -0.00750083       0.00181101      -0.00769052
C       11.17232803       8.31848885       9.38809736      -0.00877780      -0.00027606      -0.00582549
H        9.89128047       9.21156518       7.96687209      -0.00504304       0.00764722      -0.00411046
H        9.26165362       9.30595228       9.61251158      -0.00871216      -0.00170256      -0.00541395
H        9.22871850       7.76470703       8.70085633      -0.00690505       0.00305772      -0.01381345
O        8.90279498      12.26958481       9.65018238       0.00600809       0.01203673      -0.00859588
O        8.04536996      13.12351411      11.50394794       0.02247488      -0.01107970      -0.02008457
C       10.34868853      12.47903867      11.60000187       0.00165516       0.00452656      -0.00686744
C        8.98659638      12.66863984      10.91488928      -0.01996869       0.01519948       0.00479984
H       11.14979149      13.00063179      11.04444055       0.00307404       0.00462326      -0.00534528
H       10.56575143      11.39170185      11.68460898       0.00122668       0.00418410      -0.00659569
H       10.30140757      12.88527952      12.60487037       0.00124059       0.00351317      -0.00654560
O       10.58745167       6.28447636       6.66324296      -0.00127566      -0.01254064       0.00007889
C       10.64395400       4.85852529       6.57733044       0.00356534      -0.01201275      -0.00307536
C       12.02087746       4.37243052       6.17469207       0.00381523      -0.00604607      -0.00889784
H       10.33511215       4.41108231       7.52617474       0.00911342      -0.01467538      -0.00254971
H        9.91194019       4.57624117       5.82120390       0.00169396      -0.01345612      -0.00079924
H       12.02603453       3.28414768       6.09701086       0.00784518      -0.00589254      -0.01155235
H       12.30169611       4.79494475       5.20689867      -0.00103560      -0.00291105      -0.00890000
H       12.76715160       4.65040920       6.91965468       0.00532307      -0.00491816      -0.01107259
H       11.02594725       6.55763942       7.48809196      -0.00537465      -0.01215488       0.00214509
O        3.38617280       8.83891651       4.52381285      -0.00827035       0.00541475       0.01468664
C        2.87059197       8.26454730       3.33991794      -0.00102161       0.00176349       0.01248097
C        3.93412441       7.68071140       2.42693288       0.00540376       0.00169893       0.02078047
H        2.16828199       7.47790402       3.63797964      -0.00230297       0.00210384       0.00974022
H        2.27616274       9.01810729       2.79376578       0.00208619       0.00046185       0.00762847
H        3.47533280       7.24810207       1.53323057       0.01218097       0.00079336       0.01793557
H        4.64759886       8.44695297       2.12540377       0.00671606       0.00229365       0.02578702
H        4.48962673       6.89958219       2.94703564       0.00222059       0.00239441       0.02529043
H        3.90133223       9.65975143       4.26361666      -0.00535160       0.00393337       0.01356164
O        1.63544755      11.09860010       9.44986531      -0.00732395       0.00197670      -0.01440111
C        2.78291369      11.31271209      10.32959454      -0.00710118      -0.00438765      -0.01338604
C        3.69888532      12.39133785       9.80565676      -0.00599593      -0.00180414      -0.00646859
H        2.34801071      11.56875460      11.30309597      -0.00684312      -0.00979172      -0.01169822
H        3.29487254      10.35899272      10.45864108      -0.00731169      -0.00533441      -0.01892290
H        4.53624475      12.52841256      10.49120583      -0.00689326      -0.00516458      -0.00482841
H        4.11447794      12.10665031       8.83778008      -0.00488495       0.00324194      -0.00740308
H        3.18382515      13.34774844       9.70111193      -0.00601144      -0.00152399      -0.00252223
H        1.86515746      11.02322487       8.46459352      -0.00653285      -0.00790075      -0.01456162
O        2.93589384      10.21539501       0.19559380      -0.01158690       0.00279960       0.00080648
C        4.01725309      11.08439802       0.58866621      -0.00426506      -0.00254026      -0.00816142
C        3.50242060      12.38560638       1.16334688       0.00724435       0.00147897      -0.00734746
H        4.65946974      10.58047105       1.31308985      -0.00177905      -0.00506505      -0.01215178
H        4.61151869      11.25860289      -0.31107869      -0.01025911      -0.00787412      -0.01295346
H        4.33691954      13.01449499       1.47867022       0.01304138       0.00035539      -0.02112117
H        2.90727343      12.93941052       0.43273529      -0.00003130      -0.00001616      -0.00242592
H        2.88977035      12.19005871       2.04318924       0.01791871       0.00757241       0.00118291
H        2.67454624       9.72639583       0.98151307      -0.01585107       0.01328369       0.00584570
O        4.49551463       7.81622014       7.54032247      -0.01182421       0.00926781      -0.01942414
C        4.68293312       9.17479681       7.89111193       0.01107359      -0.00005662       0.00160224
C        5.78506429       9.84426419       7.09920885       0.01789367      -0.00539258       0.00693721
H        3.74134947       9.72923889       7.75729812       0.01959911       0.01667553       0.01460590
H        4.91190401       9.17599278       8.96035823       0.01494312      -0.02069709       0.00040495
H        5.86111971      10.90290222       7.35923214       0.03554282      -0.01096459       0.02168460
H        6.74663477       9.36248253       7.27301096       0.01084511      -0.02254611      -0.00456883
H        5.56545480       9.77669817       6.03352007       0.01287922       0.01334808       0.00699803
H        4.29600463       7.77937591       6.59582701      -0.00862018       0.02820538      -0.02079434
O        7.19731609       6.81708901      12.49120526       0.00242168      -0.00431402       0.00433928
C        8.27219539       7.06250705      11.59355678       0.00447756      -0.00366323       0.00680514
C        9.62133902       6.76975518      12.22400877       0.00288022      -0.00566757       0.00928652
H        8.11427982       6.41993675      10.72301211       0.00593026      -0.00169611       0.00517076
H        8.22370477       8.10069399      11.24642244       0.00587495      -0.00295317       0.00891005
H       10.43100649       6.90589809      11.50328224       0.00490253       0.00113497       0.01287293
H        9.80353140       7.42094828      13.07916017      -0.00137739      -0.01159440       0.01457347
H        9.65895879       5.73996965      12.57767100       0.00348238      -0.00800203       0.00199500
H        7.15409091       7.57838176      13.10864825      -0.00108737      -0.00288942       0.00236368
O        7.37834699       9.14618886       0.85069894      -0.00442600       0.00087593      -0.00434387
C        8.64428765       9.79560006       0.92816628      -0.00117514      -0.00595152      -0.00294253
C        8.50532988      11.28055793       1.18636277       0.00640549      -0.00502199      -0.00461255
H        9.26014449       9.33164122       1.70984094      -0.00481102      -0.00883105      -0.00177169
H        9.14226235       9.61138670      -0.03028530      -0.00093165      -0.00941318      -0.00200701
H        9.48526342      11.74365804       1.30129744       0.00889976      -0.01068103      -0.00328519
H        7.95217785      11.77022511       0.38689977       0.01076807      -0.00287744      -0.00617838
H        7.97663261      11.43479093       2.12214816       0.00561456      -0.00086413      -0.00569561
H        6.91165844       9.37396539       1.68575711      -0.00396509       0.00280966      -0.00480058
O        5.91601420       4.69300356      11.37303475       0.00228324      -0.00489312       0.00931838
C        6.22862053       3.70059169      12.34848151      -0.00164497      -0.01076111       0.00444001
C        7.67585426       3.25716107      12.28456476       0.00017691      -0.00548242       0.01246685
H        5.99789676       4.08791361      13.34794559      -0.01077010      -0.01904970       0.00546902
H        5.56342384       2.85414366      12.15723104       0.00294659      -0.01140526      -0.00707951
H        7.87497998       2.49093625      13.03546985      -0.00398700      -0.01363285       0.00494702
H        7.90657263       2.83969007      11.30539425       0.00978221       0.00656990       0.00975858
H        8.33392949       4.10661579      12.46530877      -0.00411382      -0.00590169       0.02825874
H        6.23858881       5.54367769      11.73393787       0.00492724      -0.00713953       0.01249167
O        7.47904428       4.35063411       8.98776112       0.00699624       0.00431126       0.01244193
C        6.98183652       3.39558477       8.06172569       0.00246661       0.01140314       0.00778982
C        7.05424782       1.97681355       8.59726937      -0.00129739       0.00829184      -0.00028566
H        5.95873864       3.63789842       7.75384547       0.00267547       0.01646553       0.01110420
H        7.60200483       3.48966220       7.16706088       0.00128159       0.01445930       0.00734472
H        6.74447202       1.25261397       7.83881033      -0.00619210       0.01376551      -0.00348280
H        8.07313073       1.73284147       8.89784447      -0.00141276       0.00290317      -0.00464066
H        6.41184994       1.84558423       9.47116451       0.00087105       0.00564661       0.00073306
H        6.86281453       4.41157974       9.73958281       0.00730696       0.00232124       0.01303861
O        1.80796079       3.87504315       8.75939107       0.01144442      -0.01279622      -0.00834304
C        2.68970086       4.12220889       9.86249194       0.00996788      -0.01103747      -0.00810495
C        2.94366925       5.59348674      10.11103731      -0.00208213      -0.01061052       0.00056006
H        2.20742894       3.66354377      10.72914876       0.01470619      -0.02039222      -0.01034445
H        3.64156284       3.60283625       9.70305184       0.01401973      -0.00166255      -0.01261634
H        3.56287333       5.70784433      11.00111895       0.00113188      -0.01133648      -0.00169525
H        3.48892826       6.04184751       9.27877674      -0.01023139      -0.00104483       0.00059631
H        2.00585471       6.13414211      10.25252267      -0.00568418      -0.01923116       0.00834608
H        2.09002246       4.41781271       8.00026127       0.00326169      -0.00604250      -0.00695344
O       11.33106544      11.78651618       8.78340738       0.00582370       0.01659390      -0.00857940
C       11.97240287      12.96382565       8.25069482      -0.00891096       0.02284210      -0.01238742
C       11.56914486      13.17797090       6.81217772       0.00091726       0.00394997      -0.01761246
H       11.72046702      13.84401928       8.84918639      -0.02895500       0.02132553      -0.02036795
H       13.06794660      12.81861759       8.31933095      -0.00780234       0.04386602      -0.00027752
H       12.13610714      14.00736269       6.39071660      -0.01380546       0.01273164      -0.01926638
H       11.75682558      12.27577331       6.23092071       0.02612210       0.00470504      -0.00927326
H       10.50829642      13.42033187       6.75564392      -0.00321016      -0.02066006      -0.02897855
H        9.79110201      12.03334217       9.27545926       0.00647235       0.01204795      -0.01001274
O        8.39644754       7.87199808       5.77300867       0.00954884      -0.00189355       0.00647622
C        7.39904395       7.27022670       4.94411923       0.00448777       0.00471550       0.00799930
C        7.88702740       6.00188471       4.27560166       0.00117537       0.01113302      -0.00623366
H        6.50584655       7.04900888       5.54297430       0.00854445      -0.00130548       0.01159197
H        7.11769881       8.02288072       4.20612661      -0.00011548       0.01076740       0.01603144
H        7.14020183       5.62791535       3.57413055      -0.00439334       0.01473260      -0.00220237
H        8.82120015       6.17578478       3.73779629      -0.00401807       0.01719160      -0.01285999
H        8.03929644       5.21263321       5.01385771       0.00982232       0.00615799      -0.01353386
H        8.98580644       7.17978867       6.11205058       0.00759037      -0.00543509       0.00265013
O        2.83555437       4.38200544       3.81158401      -0.02260351      -0.00344229       0.00773349
C        2.93414915       4.21514629       2.38481930      -0.01235187       0.00354928       0.00789249
C        2.80544561       2.76876025       1.96657381      -0.00571141       0.00546974      -0.00048631
H        2.17298050       4.82977787       1.89394002      -0.01012281       0.00400642       0.00517826
H        3.90997604       4.61565953       2.11252629      -0.01135325       0.00710906       0.01738564
H        2.88416283       2.67847662       0.88186773       0.00427457       0.01199917      -0.00015999
H        3.59015913       2.15921757       2.41376553      -0.00848983       0.00445221       0.00293146
H        1.83625322       2.35721314       2.26254021      -0.00741580       0.00198588      -0.01169233
H        2.11415962       3.82418565       4.11967722      -0.02812305      -0.00059566      -0.00018729
O        1.66251088      10.97961787       6.91574755       0.00515801      -0.01747310      -0.00961992
C        2.36764435      11.92999295       6.07119583      -0.00104973      -0.00271156       0.00304626
C        1.63219071      12.13964011       4.77055959       0.00557786      -0.00277863      -0.00040689
H        2.42076302      12.85058019       6.65397023      -0.01613825      -0.00650808       0.00979832
H        3.37810106      11.56795223       5.87734786       0.00405210       0.00969784       0.00813974
H        2.21980248      12.79187654       4.12560298       0.00262433       0.00700782       0.00734276
H        1.51126698      11.18882143       4.24685617       0.01884781      -0.00093165      -0.00614334
H        0.65331626      12.59087470       4.93743490       0.00016041      -0.01374546      -0.00424775
H        1.75052537      10.10745877       6.50629120       0.02457608      -0.01388085      -0.01321593
O       10.70200271      11.34869033       3.56977790       0.00085032       0.00291872       0.00047641
C       10.20409309      10.41261821       4.53417366       0.00248949       0.00047830      -0.00122853
C       11.26087381       9.41818833       4.94739262       0.00482911       0.00367573       0.00055768
H        9.81476337      10.94128003       5.41369974      -0.00124927      -0.00170973      -0.00161433
H        9.35817064       9.90946964       4.06717699       0.00526771      -0.00191751      -0.00364333
H       10.85385324       8.68734392       5.64527044       0.00409016      -0.00022285      -0.00403255
H       11.62927945       8.88390647       4.07065691       0.01162698       0.00839570       0.00052272
H       12.10970245       9.92377722       5.41816010       0.00044481       0.00511740       0.00658395
H       11.52999977      11.69861410       3.90984335      -0.00333045       0.00898366       0.00413539
O       12.28911945       2.90304283       9.10595806       0.02768764       0.00567517       0.01643455
C       11.81575636       3.90098570      10.01124894       0.00787283       0.00057355       0.00981480
C       12.15103597       3.54852524      11.44991915      -0.00587431       0.00443238       0.01302600
H       12.24537141       4.87175430       9.74474034      -0.00052384       0.00560927       0.01500338
H       10.73263444       3.97264854       9.87902824       0.00898457      -0.01058548      -0.00258297
H       11.93460454       4.38042283      12.12255787      -0.04376445      -0.00627543       0.01129467
H       11.57329970       2.68480185      11.78610983       0.01553980      -0.01384330      -0.00073969
H       13.21278508       3.30924322      11.53776109      -0.00174923       0.03606958       0.03227388
H       13.21925807       3.13262922       8.92123506       0.02527936       0.01780776       0.01559597
O        5.46198902       3.72304261       4.89236275      -0.01437956       0.00683421      -0.00116040
C        5.59833449       2.34887291       4.58702252      -0.01039734       0.00581574       0.00499839
C        4.52714546       1.49182956       5.23732855      -0.00904685       0.00596875       0.00710344
H        5.59816123       2.18932142       3.49753694      -0.00933121       0.00112551       0.00572067
H        6.58802904       2.05232866       4.94132427      -0.00987196       0.00998388       0.00689499
H        4.60691739       0.44841198       4.92424145      -0.00496225       0.00495291       0.01186388
H        4.60265038       1.54999630       6.32477692      -0.01275142       0.01172619       0.00701508
H        3.53607003       1.85273586       4.95115567      -0.00925440       0.00132544       0.00241787
H        4.56946973       3.99780494       4.63580858      -0.01802677       0.00072214       0.00531004
O       11.52103558       6.41597523       2.50894713      -0.00093424       0.00508781      -0.00402468
C       12.44706096       6.81493934       1.50756889       0.00701125       0.00096145       0.00190911
C       12.58032653       8.32020539       1.38087237       0.00447408       0.00030613      -0.00719454
H       13.43312915       6.36632169       1.69073535       0.00635836       0.00505042       0.01399751
H       12.06471997       6.39045230       0.57905520       0.01681781      -0.00629254       0.00136423
H       13.22568670       8.56953723       0.53469355       0.01133205      -0.00402814      -0.00299385
H       11.60444835       8.78473184       1.23174392       0.00466134      -0.00336889      -0.01919578
H       13.02735100       8.75325825       2.27792504      -0.00486772       0.00759717      -0.00624353
H       11.77183856       6.82210954       3.34493586      -0.00720467       0.00803651      -0.00363526
O        2.26839707       5.77625835       6.72927766      -0.00872616      -0.01475759       0.00778925
C        1.47086550       6.81032597       7.33198411      -0.00626256      -0.01024225       0.00266778
C        0.83568550       7.72916403       6.32032158      -0.00863767      -0.01720282      -0.00164157
H        0.70661698       6.34624441       7.95759321      -0.00460297      -0.00852937       0.00582710
H        2.14435683       7.36834241       7.98304669      -0.00640649      -0.00493318      -0.00148660
H        0.21793371       8.46435642       6.83797104      -0.00889818      -0.01460917      -0.00612199
H        1.59820929       8.23854942       5.72449684      -0.00972788      -0.01801080      -0.00314294
H        0.16211379       7.18792553       5.65105146      -0.00683512      -0.02227889       0.00102766
H        2.07584518       5.72451137       5.78728372       0.02011190       0.00342236       0.00152293
