199
Lattice="13.747393941720548 0.0 0.0 0.0 13.747393941720548 0.0 0.0 0.0 13.747393941720548" Properties=species:S:1:pos:R:3:forces:R:3 energy=-1222128.625 stress="-0.00012139112368458882 -0.0003094117564614862 0.0004055322060594335 -0.0003094117564614862 -0.0029243004973977804 4.398407384087477e-06 0.0004055322060594335 4.398407384087477e-06 -0.002227373421192169" pbc="T T T"
No      12.22060509      13.73595500      -0.49632207      -0.04564042      -0.01437675       0.06864043
O        5.03324666      13.29201728       8.74215923      -0.01067138       0.00475836       0.01437855
N        5.92770158      11.58326148       7.30088448      -0.07593608      -0.03269053       0.01723933
C        5.49131084      12.42779628       8.02660880      -0.04285708      -0.01221126       0.01912013
O        8.11126044      13.08345087       9.98632955       0.02677834      -0.00650465       0.01709056
N        8.77775047      14.17522882       7.95032013       0.02074075       0.00450373      -0.02989721
C        8.41831084      13.62351970       8.93363580       0.01824269      -0.00856107       0.00923932
O        8.75964744       4.56089947       8.12120007      -0.01036429       0.01156450       0.01077068
O        6.81784683       5.49851983       7.52687418      -0.00876498       0.00910711       0.00211489
C        8.36078180       4.75873791       5.81548316      -0.00357288       0.00264834       0.00978309
C        7.85615968       4.97529069       7.20023008      -0.00763100       0.00784686       0.00717777
H        9.12218340       5.51129846       5.59984182      -0.00725578       0.00561747       0.00783680
H        8.81822435       3.77421177       5.74497643       0.00196711       0.00486970       0.01595842
H        7.55638935       4.84955813       5.09464305      -0.00181648      -0.00329410       0.00712393
H        8.37052345       4.72767972       8.99011336      -0.01282331       0.01275969       0.00927338
O        4.18655565       6.51748153      11.59595349      -0.01579785      -0.01298869       0.01835471
O        5.55244076       5.36847336      12.94726722      -0.00506303      -0.00021273       0.01863492
C        6.03421504       5.43660093      10.59165687      -0.00850940       0.00706939       0.01763546
C        5.26979909       5.74939784      11.83521362      -0.00943610      -0.00165650       0.01917040
H        5.37970133       5.07996868       9.79679675      -0.00599922      -0.02505862       0.02977118
H        6.51400403       6.33624236      10.21004847      -0.04300541       0.01744467      -0.00033569
H        6.79056830       4.69447318      10.82462706       0.01687716       0.03384840       0.01945943
H        3.69039753       6.55495539      12.44311640      -0.02081638      -0.01707604       0.01629195
O       11.81279299       9.73060601       8.19901649       0.00658128      -0.02108407       0.00159256
O        9.83496939       8.70749811       8.04312120       0.00319746      -0.01206350      -0.01650220
C        9.88272576      11.11902742       8.17626059       0.01471055      -0.01289386      -0.00459999
C       10.43666037       9.74652098       8.13818875       0.00745782      -0.01580954      -0.00790510
H        9.96295913      11.50015433       9.19445920      -0.01807551      -0.03204259       0.00500360
H       10.43027763      11.79894434       7.52688883       0.04195529      -0.00490887       0.02728888
H        8.82866865      11.10716379       7.91385755       0.02264225      -0.00304024      -0.03668040
H       12.07814251       8.79830741       8.18221138       0.00548556      -0.02131397      -0.00195237
O        8.62113588       7.75628116       4.44951532      -0.00572520      -0.00233687       0.01099336
O        7.59658831       9.73634129       4.33064064       0.02951160       0.01363194      -0.00387931
C        6.82396208       8.10669678       5.91322778      -0.01777548       0.02816671      -0.01083374
C        7.68546715       8.62232712       4.81827332       0.00439300       0.01241237      -0.00098324
H        6.45440843       7.10844408       5.68365326      -0.02676541       0.03187181      -0.01279916
H        7.45370092       7.99695992       6.79861137      -0.03049226       0.02287571      -0.00259511
H        6.02415499       8.80675960       6.13401864      -0.01099691       0.03959267      -0.02319577
H        9.24370210       8.15353703       3.79409509       0.00763561      -0.00971946       0.01758815
O        5.78955106       2.43770403       1.93729988       0.01237208       0.01302972       0.00022811
O        6.28525409       4.18487250       3.25281498       0.00802022       0.01935971      -0.00690074
C        4.28383285       2.90631416       3.68365681       0.01867718       0.00900836       0.00685573
C        5.54392704       3.27966806       2.97545754       0.01230532       0.01386315      -0.00099701
H        3.43903328       2.93960813       2.99402389       0.01456204       0.00338172       0.01180981
H        4.35372937       1.88581985       4.04950767       0.02594595       0.00994855       0.00817764
H        4.11984221       3.57214896       4.52229518       0.01875105       0.01103285       0.00496975
H        6.60303242       2.74715141       1.50951651       0.00906351       0.01566020      -0.00417735
O        0.63127264      10.91431164       7.91403260      -0.01793838       0.01541597       0.03660455
O       -0.05329230      12.47332841       6.46123836      -0.00889063      -0.02886283      -0.01444817
C        2.12998326      12.68873514       7.47033852      -0.00886065      -0.00846219      -0.01714948
C        0.80313792      12.05879795       7.20628083      -0.01212764      -0.00880355       0.00123274
H        2.29034522      12.82013319       8.54032869       0.00103625       0.00620112      -0.02061757
H        2.93445483      12.03149271       7.13057224      -0.01467952      -0.01744382      -0.01447129
H        2.18953364      13.64070321       6.95370026      -0.00773134      -0.01684140      -0.03226095
H       -0.28624166      10.62788184       7.75744495      -0.01647297       0.00764672       0.04120614
O       12.67942468       9.72405494       4.06432093       0.00149488      -0.01547658      -0.05889714
O       10.90693065       8.59759056       3.30782822      -0.02281334      -0.01332140       0.00027585
C       10.59669715      10.20297168       5.06282549       0.02972597       0.00175124      -0.00442475
C       11.36393283       9.43343756       4.05796651       0.00055653      -0.00970009      -0.01821008
H       10.33719913       9.49696458       5.85232373      -0.00097901      -0.00206596      -0.01821178
H       11.16886156      11.02834349       5.47432137       0.05912185      -0.02614327       0.01029943
H        9.65548886      10.54281127       4.64016038       0.04200378       0.04234589      -0.00012034
H       13.10036620       9.12744118       3.42764920      -0.02174290      -0.02183294      -0.06832689
O       13.00057582       7.92505787      10.33712450       0.01090968      -0.01288879      -0.01011005
O       11.17701283       8.85527894      11.24453243       0.02535272      -0.02070278       0.02609274
C       10.99624965       6.68795079      10.19313591       0.00674784      -0.00631237      -0.00005487
C       11.67596149       7.93370767      10.65682692       0.01557782      -0.01383775       0.00703770
H       11.44527531       6.30135591       9.28055852       0.00287575      -0.00380149      -0.00274369
H       11.10902686       5.92525663      10.96592899       0.00216577      -0.01165168      -0.00484343
H        9.94130795       6.89159410      10.04455433       0.00776348       0.00118881       0.00330123
H       13.36746856       8.75639170      10.67167912       0.01759610      -0.01866299      -0.00323513
O        1.27717943       8.01491941      -0.05790078      -0.03028727       0.01304966      -0.02950904
O        2.48909686       6.13661474      -0.03075243      -0.02887243       0.01392755      -0.01161188
C        0.17225736       6.04349481       0.60732006      -0.02922523       0.01414725      -0.02031782
C        1.42842773       6.69930492       0.15067445      -0.02966440       0.01447931      -0.01981973
H       -0.15797011       6.51707998       1.53066943      -0.02742849       0.01125771      -0.01835296
H       -0.62277954       6.19449781      -0.12368314      -0.03101206       0.01641982      -0.01761431
H        0.35528522       4.98783733       0.77366643      -0.02760598       0.01401821      -0.02174073
H        2.16483877       8.39363638      -0.14064410      -0.03009176       0.01141214      -0.03408681
O        5.12055067       0.86308270       6.25965770       0.00396162      -0.00875628       0.02231401
O        6.32116008       2.71470647       6.61656131       0.01884219      -0.02400625       0.06069243
C        7.25172998       0.96863550       5.24625575      -0.00942832       0.01040268      -0.00045806
C        6.22262217       1.63648730       6.08903064       0.00436020      -0.00829238       0.03158963
H        7.96750448       0.55941332       5.97727108      -0.00236411      -0.01028598      -0.02028355
H        6.83061380       0.15792017       4.65881655      -0.02068169       0.02795854      -0.01649660
H        7.76176593       1.69786362       4.61986964      -0.01348174       0.02395237       0.01255319
H        4.64330110       1.17242411       7.04552275       0.02784306      -0.05055334       0.05402946
O        3.60150943       6.70334541       7.57540964       0.04595029      -0.04756698       0.03893310
O        3.12978432       4.79846865       8.66968420      -0.03431821      -0.02718890       0.04046901
C        1.90291203       6.77844682       9.22267349       0.01472551       0.01195595       0.00282389
C        2.93084142       5.97821146       8.49069590       0.00551793      -0.02201349       0.02764854
H        2.13425855       7.84053061       9.23289313       0.03153980       0.00837032      -0.02041028
H        0.93798682       6.63323825       8.73522824       0.01390925       0.01363387       0.00442269
H        1.82431196       6.39455569      10.23611420       0.00497710       0.03700611       0.01141056
H        4.27041788       6.12886245       7.16683360       0.04239318      -0.06519872       0.05754051
O        8.29529017      12.52207019      12.70288460      -0.00729856      -0.01171279      -0.00726518
O        9.98255820      13.97484441      12.41035367      -0.01465777      -0.00518139      -0.01421852
C       10.45215008      11.63873770      12.43652208      -0.00646789      -0.00293362      -0.02783991
C        9.53568318      12.81927408      12.49964935      -0.01033470      -0.00667843      -0.01844175
H       10.72608203      11.31813416      13.45282096      -0.00353757      -0.00511908      -0.02855481
H        9.98858104      10.79161270      11.93349623      -0.00703821      -0.00417870      -0.02480471
H       11.36455093      11.91571070      11.89329957      -0.01159316       0.00185402      -0.03240938
H        7.69893154      13.30644717      12.70356225      -0.00897638      -0.01227397      -0.00426775
O        3.39767096       5.74990602       3.48282813      -0.04013109       0.02873704       0.07021058
O        2.04767963       7.37931143       2.76063510      -0.01764822       0.00754690      -0.02167073
C        4.41794256       7.66594616       2.56846359      -0.01199025      -0.02118316      -0.00198825
C        3.17109150       6.94709269       2.93562483      -0.02357841       0.00583638       0.01311426
H        5.17928773       7.57151916       3.33918936      -0.00792216      -0.02465006      -0.00695738
H        4.84801601       7.23457263       1.66246227      -0.02776667      -0.03791931      -0.00170702
H        4.18276772       8.71148278       2.39573127       0.00550875      -0.01985340      -0.01562699
H        2.54780902       5.38097173       3.77763552      -0.04631603       0.04203789       0.07043478
O       10.10532967       3.30621431      11.19727447       0.00197333       0.03066793       0.01211244
O        8.49749041       3.34759542      12.75828994      -0.00653909       0.00332683       0.00316846
C        8.03926784       2.32884548      10.62180060       0.01362979       0.01252791      -0.00538093
C        8.84609310       3.03978581      11.64170439       0.00270092       0.01408231       0.00325924
H        8.41446470       2.45230167       9.60932735       0.02524213       0.00876757      -0.00143641
H        8.10650062       1.26020051      10.84422656       0.00652924       0.01408193       0.00061880
H        6.99089733       2.59762715      10.68684951       0.01390737       0.01769993      -0.01876670
H       10.57715762       3.68539716      11.95131067      -0.00716689       0.03112128       0.01736838
O        5.95580437      10.92525046       2.69875926       0.06835872       0.03587075      -0.02132642
O        6.71901716       9.10616776       1.62455831      -0.01913488      -0.01032853      -0.00395970
C        5.75819034      10.91141269       0.35739060      -0.00577894      -0.01274225      -0.01623178
C        6.21048096      10.20087919       1.59618341       0.01313514       0.00426519      -0.01341039
H        4.67081262      10.82671777       0.28244925      -0.00517271      -0.03080870      -0.00560486
H        5.99211528      11.97151174       0.41890496      -0.01869614      -0.00939965      -0.03248310
H        6.21302714      10.47549413      -0.52472990      -0.00870535      -0.01877578      -0.01468609
H        6.35024879      10.44677075       3.47288070       0.06055902       0.02919611      -0.02034771
O        0.91518638       2.63405278      14.02282943       0.04614514      -0.01897025       0.03294879
O        0.31499888       1.46457432      12.22979547      -0.04749739      -0.00564981       0.05282271
C        1.76564998       3.37781953      11.95160956      -0.02727385      -0.02781437       0.00021099
C        0.95184769       2.39688596      12.71152233      -0.01290949      -0.01809334       0.03128135
H        1.12292310       4.22565844      11.69362351      -0.03729090      -0.04104733      -0.01787226
H        2.56973141       3.77695088      12.56552627      -0.02260584      -0.00683826      -0.01969397
H        2.14586361       2.94207808      11.03207588      -0.03176506      -0.04525289       0.00607732
H        0.33623248       1.96576916      14.42983714       0.06661350      -0.01825988       0.06347033
O        6.33531181      11.07564251      10.46081846       0.03229368       0.01750493       0.00576475
O        8.34995385      10.07387815      10.45054828       0.01110506      -0.02349894      -0.01331240
C        6.47408428       8.93070726       9.50535256      -0.02129567       0.01541954       0.00393432
C        7.16584892      10.06341152      10.19529699       0.00801945       0.00009733      -0.00233063
H        5.62977517       8.56011640      10.08796808      -0.01781996       0.02773740       0.01651904
H        6.08419805       9.32135223       8.56235753      -0.03070280       0.02741207       0.01250236
H        7.18915506       8.13602094       9.31200389      -0.03843889       0.00363899      -0.01001891
H        6.87534703      11.89998111      10.49763331       0.04792026       0.00697447      -0.00185227
O        3.79912115       0.49797510      12.31792299       0.02683372      -0.01702189      -0.04106537
O        5.97692097       0.10965978      12.62466982       0.02568811       0.01092330      -0.00953955
C        5.17497998       2.38124770      12.63796909      -0.00307399      -0.00015223      -0.00893779
C        5.06777232       0.90257316      12.53318582       0.01644093      -0.00049904      -0.01968566
H        4.83109877       2.82640329      11.70331910      -0.00983667       0.00242970      -0.00497133
H        4.53483196       2.75791231      13.43412951      -0.00744976      -0.01519901      -0.00518315
H        6.19916299       2.68333207      12.83099228      -0.00703183       0.01122050      -0.00658358
H        3.83267507      -0.45230411      12.13222420       0.04520465      -0.01400262      -0.05367137
O        1.73613035      10.53078929       1.10381763       0.01256377       0.02469385      -0.02552789
O        0.23436490      11.96407828       1.91554408      -0.00162077       0.01554301      -0.03754631
C        1.67872233      10.76016156       3.45287731      -0.00860927       0.02262177      -0.02549559
C        1.12855372      11.17119733       2.13074920       0.00084355       0.01960763      -0.03016828
H        1.58502043       9.67650847       3.55419416      -0.01775104       0.02439126      -0.01840710
H        2.75146654      10.95653706       3.49117596      -0.00761792       0.01489288      -0.02093831
H        1.17047480      11.28217309       4.25690797      -0.00833900       0.02902801      -0.02978468
H        1.24080148      10.77917575       0.31007684       0.02268499       0.03066874      -0.02991456
O        8.51234908       9.34586790      13.28115742       0.01049170      -0.00903642       0.00809929
O       10.24816284       8.20018719      14.12356132      -0.00413692      -0.02357742       0.01793385
C        8.59912314       7.07427321      12.76191148       0.00122285      -0.00855255       0.00067398
C        9.24001357       8.22817413      13.45848335       0.00182748      -0.01502648       0.00990492
H        7.69048882       6.80282967      13.30248577      -0.00147083      -0.01001649      -0.00475045
H        8.31073024       7.37191438      11.75413042       0.00697409      -0.00215825       0.00107600
H        9.26238241       6.21588716      12.74552423      -0.00037459      -0.00973171      -0.00047265
H        8.84093451      10.00734068      13.90207035       0.01479730      -0.01237895       0.00940293
O        1.24442619       5.09630791       5.52437480      -0.05631816      -0.00190455       0.01877126
O       -0.30641373       5.82608729       6.97551757      -0.04729086       0.02909289       0.01301908
C        0.67132313       7.39615619       5.46899116       0.00535490       0.00422668       0.01466960
C        0.47191960       6.04937119       6.07578444      -0.03665161       0.01203763       0.01706046
H        1.70908351       7.71300181       5.57488208       0.01338765      -0.02697952       0.03034915
H        0.46864039       7.34458699       4.40065051       0.02400080       0.00075752       0.01135144
H        0.01277403       8.10976077       5.95139593       0.01909602       0.02856150      -0.00363663
H        1.03044466       4.24394122       5.97844318      -0.07480726      -0.00187933       0.01619449
O        8.90428117      12.35633588       3.41162376       0.00181460       0.02721335      -0.01938650
O        9.24154158      13.44930658       1.47750103       0.05038363      -0.00072750      -0.02831101
C       11.12929779      12.82992116       2.80023688       0.01642835       0.00670555       0.01586744
C        9.67021260      12.93063843       2.48500102       0.02344105       0.01044369      -0.00999957
H       11.36752532      13.20064036       3.79493912       0.00196185      -0.01813090       0.02756268
H       11.46215332      11.79296829       2.75251588       0.01688720       0.00779504      -0.00878200
H       11.69641080      13.40049322       2.05937140       0.02791562       0.02430389       0.03820574
H        7.97342422      12.36741376       3.12989533       0.00705284       0.01916510      -0.03841835
O        4.50887345      12.98674661       4.14132133      -0.00467762       0.00645213       0.00379390
O        2.45153421      13.89478339       4.19639497      -0.00349176       0.01378030      -0.01979923
C        3.45765509      13.36203448       2.08014359       0.01871176       0.01563004      -0.00561684
C        3.38958455      13.45071114       3.57740993       0.00327146       0.01182866      -0.00723058
H        4.27056828      13.99500256       1.72276359       0.00751896       0.03465684       0.00428989
H        3.69679432      12.34465820       1.77639898       0.03824284       0.02185133      -0.00826714
H        2.51362685      13.68172983       1.64849999       0.01556428       0.00223922      -0.00686210
H        4.52319292      13.20581925       5.09485485      -0.00485700       0.00079912       0.00546476
O       13.10664959       3.49413271       8.87444642       0.03727466      -0.02975541      -0.00323650
O       13.97074874       2.96407017       6.88405508       0.00089705       0.01085508      -0.02740800
C       11.57640565       3.03203441       7.12852919       0.00735432      -0.01799672       0.01487117
C       12.98985355       3.14308390       7.57774543       0.01191950      -0.00798240      -0.00445041
H       10.95934009       2.45299248       7.81530648       0.02508377      -0.03498159       0.01575540
H       11.15714830       4.03908932       7.09621643      -0.00531816      -0.02284965       0.03292929
H       11.54032786       2.59487484       6.13615405      -0.00051554      -0.00565599       0.00945422
H       14.05322360       3.64696419       9.01888397       0.04017997      -0.02735575      -0.02099136
