198
Lattice="12.441605430739408 0.0 0.0 0.0 12.441605430739408 0.0 0.0 0.0 12.441605430739408" Properties=species:S:1:pos:R:3:forces:R:3 energy=-1215585.875 stress="0.002198693109676242 0.0005021766119170934 0.0003153198485961184 0.0005021766119170934 0.0012423137668520212 -0.0006012257072143257 0.0003153198485961184 -0.0006012257072143257 0.00213089887984097" pbc="T T T"
No      12.47242417      10.89075646      -1.65888410      -0.00230637      -0.00539809      -0.00386973
S       11.62688871      12.17449825       0.95050362      -0.00242521      -0.03179242      -0.02261544
O       11.08238322      11.11971423       1.85377772      -0.00370592       0.00033504      -0.01826483
O       10.88875079      12.09178959      -0.35394473      -0.00093913       0.00030604      -0.00615442
O       11.49242424      13.50177752       1.54267937       0.00356348       0.00648880      -0.01070458
O       13.05962208      11.86031157       0.61069866      -0.00932407      -0.01314686      -0.00843958
O        1.40486310       1.39981048       8.78849597       0.00283690      -0.00150329      -0.00257750
H        2.30067139       1.06162519       8.59976973       0.00795473      -0.00119468       0.01757440
H        1.33555915       2.27216233       8.35815065       0.01085757       0.00681070       0.01151245
O        8.76764835      12.20470156       4.79192985      -0.00424778       0.02524221      -0.00055760
H        8.57671611      13.05752135       5.23526204      -0.00628435       0.02593944      -0.00249808
H        7.94073664      11.70661507       4.92931634      -0.00569155       0.02428106      -0.00233833
O        1.86318720       9.65838532       6.52688539       0.00768630       0.00066397      -0.01561410
H        2.21717894       8.82017133       6.89196987       0.00720577       0.00480545      -0.00571825
H        1.36171007       9.37220550       5.75341452       0.01389594      -0.00998597      -0.01644466
O        3.74113295      12.42936792       8.19453092       0.00271071       0.00239398       0.00274354
H        4.04664172      12.97672520       7.43419139      -0.00275025      -0.00987716      -0.00709088
H        4.48782961      12.40060055       8.81899730       0.00545418       0.01564987       0.00102159
O       12.44367622       6.43742265       6.01194828       0.01291476      -0.00204296      -0.00416536
H       12.03866764       5.61096451       5.69968480       0.00514445      -0.00161311       0.00798106
H       11.88514695       6.77325010       6.74957689       0.00962001       0.00812379      -0.01314186
O        2.75134221       0.69237059       1.97441872      -0.00790660      -0.00624000      -0.00497237
H        3.35553988       0.64997523       1.21817198       0.00132276      -0.02493236       0.00286337
H        1.92569938       0.32113086       1.60983437      -0.01228238       0.00434931      -0.01064182
O        4.05082142       7.73686543       1.22806962      -0.01311287      -0.00535837       0.00454743
H        4.83128565       7.77892208       0.66729580      -0.02816136       0.01613931      -0.01492108
H        4.11840952       8.41093707       1.94142856      -0.01475055      -0.00234351       0.00165474
O        5.85005397      11.37635449       1.85834387       0.02596069       0.00088669       0.00052813
H        6.61196108      10.93420036       1.44861185       0.03323330       0.02083191      -0.01045405
H        5.20204779      11.51747079       1.13836589       0.01720162      -0.00224273       0.00975220
O        6.14480639       2.54862862       3.91829022       0.01698609       0.00416812       0.00663846
H        6.63268665       1.97193701       3.28421194       0.01867088       0.00462799       0.00834060
H        5.28862750       2.76373744       3.48567186       0.01173280      -0.00816549       0.00986271
O        6.66742289       8.67121423       3.41795350      -0.00721692      -0.01562026       0.02807140
H        5.70852145       8.80731773       3.58209310      -0.00928700      -0.00103476       0.00479296
H        7.06802592       9.54705991       3.49436880       0.00274438      -0.01809098       0.01216910
O        4.46983451       1.70564216       6.22476042       0.00978987       0.00105311      -0.00303465
H        5.17294618       1.51533378       5.58853036       0.01340666       0.00693675      -0.00044556
H        3.68497279       1.89990214       5.65807176       0.01078447      -0.00008026      -0.00423885
O        7.90467892       4.22906979      11.36801254       0.01005374      -0.00290313       0.00825080
H        7.17958376       4.43154689      11.99429861       0.01625977      -0.00907227       0.01843982
H        8.25972051       3.37137488      11.68404002       0.01114181      -0.00710030      -0.00850589
O        7.62546379       8.23426262      10.70356608      -0.01481470      -0.02777067       0.01293619
H        7.56827140       8.30533855      11.68062505      -0.00407512      -0.02575478       0.01387867
H        7.01873207       8.87831991      10.32226069       0.00556251      -0.00521153       0.01736020
O        2.49127609      10.30828837       9.45120970      -0.01094285       0.00450994      -0.00658977
H        2.79222934      11.02764868       8.85553849      -0.01606060       0.00965160      -0.00315335
H        1.87275949       9.77688236       8.92888034      -0.00939369       0.00285238      -0.00751686
O       11.06712015       4.10925063       5.11654318      -0.00361840      -0.00241822       0.01087458
H       10.78245999       3.61653579       5.92685779      -0.00823766      -0.01057026       0.00566933
H       11.33710795       3.44367223       4.47760623      -0.01433311       0.00565478       0.00115615
O        7.89396678       2.08547124       6.02372516      -0.00719214       0.00842777       0.01880429
H        8.47279264       2.78620704       6.36041426      -0.00604529       0.00377056       0.02336183
H        7.24378592       2.48461869       5.42066424       0.00711963       0.00928433       0.00137951
O        4.14824720       5.87782620       3.33604306       0.00004477      -0.01191965      -0.00466792
H        4.14519190       6.43131212       2.53461227      -0.00532671      -0.00760774      -0.00190884
H        5.09101286       5.77942606       3.55970587       0.00143039      -0.01421014      -0.01209341
O        8.75177915       1.78211970      -0.03690883       0.00900814      -0.00298519       0.00407061
H        9.69923479       1.62479762       0.08972499       0.00589843      -0.00479455      -0.00599692
H        8.35254622       1.54021247       0.82890658       0.01929127      -0.00059407       0.01096079
O       10.18371709      10.22259786      10.11202756      -0.00242069      -0.00702418      -0.01491910
H        9.78742719       9.80212318       9.32722502       0.00429523       0.00013314      -0.02117783
H        9.51867225      10.85384636      10.44626071       0.00050331       0.00270563      -0.02486512
O       -0.01009669       5.34757509       1.85828576       0.00503571      -0.00267842       0.01046926
H        0.35602541       5.08191279       2.70505206       0.01984717       0.00026402       0.00561922
H       -0.00209715       4.53537696       1.26989095       0.00342480      -0.00195207       0.00994236
O        1.40453030       4.01888822       7.83070073       0.00970224      -0.00656404       0.01759765
H        1.49657133       4.38729047       6.93088431       0.00151828      -0.01493017       0.01417802
H        2.23634571       4.27203632       8.25723344       0.00559228       0.01119377       0.01588813
O        5.62001382      11.56680832      10.05640733      -0.00551322       0.00934988      -0.00740197
H        6.54413646      11.72813019      10.37152346      -0.00951777       0.01710134      -0.00103422
H        5.53248851      10.61443405       9.87906996      -0.00699148       0.00711182       0.00702841
O        0.08689793       3.31743085       0.19239698       0.00450142       0.00243431       0.01349479
H        1.03726402       3.26868613      -0.03369592       0.00986609       0.00921961       0.00937333
H       -0.14887434       2.47759813       0.62396822       0.00752963       0.00573765      -0.00362258
O        6.12420532      11.22369586       5.17515504       0.00508463       0.01231181      -0.01388049
H        5.83682038      10.94205712       6.04839861      -0.00220424      -0.00638380      -0.02174094
H        5.29638647      11.42847546       4.69791478       0.00767881       0.01475145      -0.01735731
O       11.37510555       4.69915103       9.22190905      -0.00705549      -0.00027546      -0.00824898
H       11.32130076       4.80990265      10.18436460      -0.00676759       0.01572331      -0.00895919
H       12.31753530       4.56981569       9.01178305      -0.00438035       0.01133968      -0.00653195
O        2.84436551       3.60681039      12.36876902       0.01060089      -0.00218671       0.00423713
H        3.13849441       3.35700060      13.26143068       0.00757059      -0.01679477       0.00058970
H        3.46615051       3.18538585      11.74816472       0.00816065      -0.00013284      -0.00051886
O        2.33523479       7.19293202       7.51813911      -0.00490738       0.00651348       0.03104364
H        1.70236724       6.68485463       6.98359014       0.00472753       0.00451083       0.02160851
H        2.92970709       6.54190171       7.92565041       0.00878583       0.00909267       0.01529043
O        4.10126539      11.97586762      12.25178327       0.00526288      -0.01625066      -0.00106627
H        4.61253623      11.91731327      11.41004278       0.00112594      -0.01808774       0.00038280
H        3.29676362      11.46917601      12.10145654       0.00543669      -0.01696470       0.00586574
O        3.85631411       3.32171985       2.56942850       0.01433271      -0.02443188       0.00725621
H        3.16621709       2.76943586       2.97243954       0.01405230      -0.02266233       0.00818966
H        3.78311105       4.24069395       2.93065648       0.00738006      -0.02216186      -0.00116833
O        0.27156755       8.52780079       9.84522568      -0.00687210       0.00633776      -0.00742405
H       -0.30753223       8.10380423       9.15339610      -0.00328659      -0.00313779      -0.00561606
H       -0.18588247       8.35469641      10.68909638       0.00084265      -0.00474175      -0.00550872
O        3.94742033       8.98323076       3.58039781      -0.00985286       0.01061893       0.00547415
H        3.68807145       9.90597889       3.79638709      -0.00802886       0.01720182      -0.01961457
H        3.29271500       8.38871214       3.98554143      -0.01935169       0.02150032       0.00844714
O        4.91502536       4.53715695       5.99269040      -0.00198773       0.00053581       0.00405578
H        5.26937537       5.18262905       6.63115918       0.00182891       0.00214685       0.00048216
H        4.93586936       3.65562541       6.39692131       0.01146717       0.00203866       0.00607640
O        9.07379652      13.05444011       8.14002702      -0.00480983      -0.01501779      -0.01703358
H        8.25524287      13.31545323       7.69692449       0.00729105      -0.01316448      -0.00897108
H        8.81900591      12.66060309       8.98217618      -0.01622136      -0.00130795       0.00092180
O        0.15320957      10.32123457       4.00646677       0.00022224      -0.01599264      -0.01742300
H       -0.33705034      10.62029763       3.20878196      -0.00620028      -0.00991028      -0.01503105
H        0.90290215      10.92466873       4.07448788      -0.00504675      -0.01331007      -0.01613440
O        8.36105280      10.58401344       0.86615657       0.00226027      -0.00692943      -0.02230328
H        8.26688345       9.60774440       0.90598024      -0.00405472      -0.00630111      -0.02065979
H        9.23774142      10.79816274       1.23509133       0.00446774      -0.00601211      -0.02043364
O       10.20924077       5.94191928      11.64848850       0.00790811      -0.00818168      -0.00232282
H        9.41813122       5.36757447      11.64069818       0.00342271      -0.00196387       0.00106516
H        9.96931074       6.68480315      11.08438480       0.00197215       0.00589619       0.01622327
O        2.36640499       4.87829466       5.35809149      -0.00079432      -0.00710088       0.00329462
H        2.30151765       5.61376746       4.73060702       0.00885328      -0.01597030      -0.00769260
H        3.33895335       4.82527633       5.56683972      -0.00177573      -0.00817207       0.01018713
O        1.43985523       5.94705765      10.41253357       0.01205859       0.00812413       0.00809212
H        1.21811824       6.80189196      10.00773223       0.01180471       0.00427445       0.00042492
H        1.50491072       6.15636882      11.36605386      -0.00825397       0.01171891       0.00932068
O        6.08461223       6.63595173       7.44453361      -0.00032963       0.00236937       0.02027050
H        5.56235890       7.31731964       7.88996335      -0.00090815       0.00325810       0.01890582
H        6.77314325       6.35011655       8.09485005      -0.00599762      -0.00575618       0.02279776
O       10.14639486       3.07013604       7.39948293      -0.01064600       0.00118950       0.00364412
H       10.48863592       3.61943677       8.13567869       0.00328615       0.00311910      -0.00288899
H        9.99434001       2.18058459       7.77087560       0.00162872       0.00029220       0.00304230
O        5.34526799       6.56887052      11.03548017      -0.00076911       0.00492244       0.01576436
H        5.39056992       5.98321721      11.82300686       0.01615980      -0.00197709       0.01049359
H        6.25897865       6.86689393      10.89535350      -0.00674568       0.02078832       0.00378898
O        1.37106666      -0.15326356       5.90358520      -0.01834053      -0.00386348      -0.01084743
H        1.67543901      -0.90468773       6.44746655      -0.00969665      -0.00713235      -0.01812080
H        0.41415268      -0.29261473       5.86966645      -0.02024230      -0.00190266       0.00890771
O        9.28937263       6.05323689       4.02152349       0.00421056      -0.01617702       0.01415223
H        9.86302968       5.38401976       4.43661713       0.01764074      -0.00545528       0.01271952
H        8.96856212       6.64811428       4.73366189      -0.00763993      -0.01808947       0.01189226
O        4.73768806       2.90268601      10.37911279       0.00201267      -0.00404924      -0.00082316
H        5.65222765       3.15435533      10.54693442       0.00078541       0.00080599       0.00408359
H        4.36937333       3.63957891       9.85567914      -0.00181384      -0.00589763      -0.00293285
O        2.26749739       2.28389483       4.74047340       0.01150611      -0.00849869       0.00682478
H        1.67617779       1.69905735       5.23219611       0.02010781      -0.01741915       0.00813207
H        2.09673868       3.21842942       4.99314101       0.00129427      -0.00886530       0.00349960
O        6.83745092       5.12748169       3.14196164       0.00369388       0.00096061      -0.00623477
H        6.72834738       4.23869015       3.53766262       0.00570719      -0.00264974      -0.01319728
H        7.71914795       5.45012913       3.42443867       0.00383087      -0.00299709      -0.00217554
O       10.07483347       7.34995564       1.73490302      -0.01083046      -0.01098141       0.01747081
H       10.46147061       6.78336824       1.04524562       0.00723055      -0.00611897       0.02426709
H        9.97581581       6.78086656       2.52689027      -0.00268599      -0.00771753       0.02064941
O       12.19481583       8.94213537      -0.02205311      -0.00857893       0.01022695      -0.00203702
H       11.61183924       9.11528911       0.72812986      -0.01338616       0.03578214      -0.00897716
H       12.88776039       8.28567438       0.28397822      -0.01768267       0.00861290       0.01019019
O        1.47508433       7.06612378       0.51123945      -0.01612043       0.00551694       0.00249358
H        2.39060838       7.24084685       0.79936348      -0.01410964       0.00351798      -0.00006261
H        1.04536861       6.40578029       1.11647812      -0.01121344       0.00460597       0.00425692
O        7.62057555       7.97468289       0.95523117       0.00172575       0.00517137       0.01298240
H        7.16123229       8.13444044       1.81194836      -0.00389702       0.00396036       0.01023686
H        8.50914435       7.61374420       1.21854713      -0.00320911      -0.00650738       0.01607738
O       11.14905687       7.21823965       8.19615273      -0.01032856       0.01019987      -0.00099163
H       10.94140583       6.34428977       8.59014888      -0.01686968       0.01032082      -0.00739634
H       10.34475270       7.76077551       8.02388557      -0.00819057       0.01068788      -0.01131760
O        5.83756754       4.85698615       0.65767245       0.00358978      -0.01119742      -0.00368550
H        5.08134680       4.27995845       0.82367140      -0.00234821      -0.00168060       0.00353923
H        6.24953894       5.02419023       1.54430658      -0.00317620       0.00749152      -0.00479761
O        9.44326863       9.53618036       3.72703042      -0.02338360       0.02074357       0.00280999
H        9.80562502      10.39639177       3.48384141      -0.02516295       0.02186611      -0.00840216
H        9.86624237       8.92319234       3.11078485      -0.03614615       0.01964329      -0.00400564
O        7.96691414       7.76345908       5.75823722      -0.01494503      -0.01297531       0.00409591
H        7.55546108       8.18965990       4.98065890      -0.02395399      -0.03775779      -0.00678577
H        7.22922971       7.33963847       6.24468823      -0.00601446      -0.01808195       0.01363558
O        7.59466185      13.36723397       2.34027298       0.01769254      -0.00085396       0.00225501
H        6.90937887      12.67941527       2.14115622       0.00544197       0.00185555       0.02719164
H        8.17850088      12.95310205       3.00200203       0.02326776       0.00811787       0.00268173
O        3.52257373      11.62793363       4.08456127      -0.00096926       0.00943518      -0.01286319
H        2.87082573      11.92430468       4.73857129      -0.00117099       0.00224504      -0.01082639
H        3.32862661      12.17292262       3.28078411      -0.00837657       0.01009566      -0.01009193
O        3.63363899       5.24999644       9.22176827       0.01271984       0.00498567       0.01221948
H        4.37085577       5.69587503       9.67540864       0.01051751       0.01361964       0.00748849
H        2.83693078       5.48749191       9.78645782       0.01382723       0.01065003       0.01116812
O       12.34684508      11.77140052       8.60886078      -0.01066658       0.01150348      -0.00827512
H       12.83767286      12.63826576       8.49097318      -0.00842036       0.00964830      -0.01056249
H       11.75724071      11.60301240       7.85209875      -0.00863475       0.01471325      -0.00951596
O       10.97128471      11.08013436       6.21855602      -0.00665376       0.01737499      -0.02728432
H       10.19502627      11.50568383       5.79476948      -0.00844143       0.02370722      -0.01816292
H       11.43340461      10.62689473       5.48502571      -0.01661125       0.01227950      -0.03104660
O        8.09591944      11.93654542      11.01314994       0.00699475       0.00614756      -0.02257434
H        8.17557506      11.37194640      11.82520678      -0.00236038      -0.00413665      -0.02967376
H        8.34279381      12.81939846      11.37526565      -0.00672151       0.00142913      -0.00283340
O        8.09156525       6.03121394       9.12697687       0.00815409      -0.02125511      -0.00321704
H        8.05047221       6.82902216       9.68468849       0.00865913      -0.02401152       0.00072666
H        8.01546270       5.28782425       9.74989567       0.01443714      -0.02294328      -0.00500934
O        9.40251235       9.14278851       7.61064274      -0.00626402       0.00968306      -0.02046455
H        8.80718666       8.74236918       6.93490051      -0.00081778       0.00007560      -0.01923982
H        9.96252124       9.76894155       7.11011603      -0.00421007       0.00624374      -0.02255330
O        1.50799234       7.47491646       4.10052530       0.01395251       0.03469919       0.00323096
H        1.01860908       8.01735845       3.47325439      -0.01142458       0.03509952       0.02233870
H        0.84764780       7.22479160       4.78850646       0.02220228       0.00338989      -0.00211224
O        4.88915591       8.84698361       9.49781608      -0.00292897      -0.00670399       0.00330555
H        4.00251194       9.26031581       9.43055363       0.00051254      -0.00115190      -0.00029425
H        4.78248236       8.13852233      10.15546069      -0.00993150      -0.00204790       0.00673120
