195
Lattice="13.249106265295058 0.0 0.0 0.0 13.249106265295058 0.0 0.0 0.0 13.249106265295058" Properties=species:S:1:pos:R:3:forces:R:3 energy=-1198388.5 stress="-0.0018784833373501897 1.4823842775513185e-05 -0.00016892358689801767 1.4823842775513185e-05 0.0001620952389203012 0.00010858387395273894 -0.00016892358689801767 0.00010858387395273894 -0.0007029888802208006" pbc="T T T"
No      12.96719181      13.77602301      -1.08342276       0.00132502      -0.00551310      -0.00483416
Cl      10.43627979      12.19967386      11.15283790      -0.00891662       0.00377238       0.00313342
O        9.64661191      12.26563570       9.91963433      -0.00853789       0.00396921       0.00269282
O       11.88315199      11.91153607      10.81479062      -0.01092184      -0.00575684       0.00391096
O       10.50718021      13.59774548      11.76236514      -0.00127800       0.00614256      -0.00239184
Cl       1.75907380      12.01421989       0.59564184       0.00264347      -0.00519896      -0.00583875
O        1.88854036      12.50969394      -0.83134108      -0.00816633      -0.02755393      -0.01394939
O        1.61251165      10.55664312       0.58644152      -0.00201631      -0.00467420       0.01749858
O        0.44248011      12.63558877       1.04154574       0.00874186       0.00520360      -0.00365335
O        7.14723302       3.84536673       5.29763522       0.00024059       0.00547016       0.02941102
C        7.79482012       3.00565436       6.23371988       0.01314622       0.00166516       0.01654309
H        8.58449700       2.40898720       5.76858654       0.00776824       0.00586414       0.00290819
H        7.09472919       2.31669103       6.72062984       0.02077925      -0.00216368       0.02207774
H        8.24430027       3.64425778       6.99367374       0.02231948      -0.00171660       0.01386426
H        6.84420949       3.25702840       4.57464606       0.00000148       0.01078333       0.02506629
O        1.58110317       8.05007451       6.96818506       0.00261036       0.00459501       0.00275087
C        1.40244434       9.08971435       7.92065116      -0.00307716       0.00137004       0.00488979
H        2.35730118       9.46856021       8.29654571      -0.00550178       0.00300067       0.00918289
H        0.85393831       8.67922375       8.76692871      -0.00488096      -0.00216696       0.00188018
H        0.82463489       9.92350798       7.50376541      -0.00407410       0.00092945       0.00530019
H        2.07452337       8.44903051       6.23398269       0.00080238       0.00804457       0.00334381
O        6.32422584       1.92870359       3.53607389       0.01671249       0.02080175       0.00496427
C        6.84685845       0.60401120       3.64450947      -0.00089559       0.01419118       0.00818440
H        6.39655228      -0.06736780       2.90906812       0.00868681       0.02404359      -0.00617322
H        6.70103943       0.17864998       4.63961142      -0.02819908       0.00952926       0.00154033
H        7.91378528       0.67311778       3.43813798       0.00400981       0.00267761       0.03274512
H        5.39193251       1.96150920       3.78321397       0.01167002       0.02997637      -0.01779892
O       11.85261525       9.19773394       3.15993973      -0.02261364       0.04269731      -0.00332001
C       10.70421924       8.62287492       3.76173462      -0.00647914       0.01435945      -0.00015864
H        9.88503697       8.49201164       3.05064650      -0.00824827       0.00153129       0.00437951
H       10.37774593       9.30700132       4.54012468      -0.01604964       0.00102216       0.00667012
H       10.90822199       7.65519756       4.23112321       0.01891989       0.01648656      -0.00922394
H       12.13123049       8.67628675       2.38201061      -0.00635268       0.04412688       0.00139385
O       11.38321211       1.74901936       0.76303576       0.00847888      -0.01434005       0.00495842
C       11.52395803       1.48465718       2.17689706      -0.01329327      -0.01122148       0.00747254
H       11.11154414       0.51102015       2.43728973      -0.00290938      -0.01721203       0.00110329
H       11.05388618       2.28671334       2.74150053      -0.03583124      -0.01783657      -0.00260879
H       12.59171469       1.47471448       2.36078858      -0.01701379       0.00586848       0.02779768
H       10.45292057       1.72661615       0.51536078       0.01421458      -0.03329770      -0.01268799
O        2.28222869       6.89310533       1.38740856      -0.01932630       0.01021045      -0.00663728
C        3.42463608       6.95489737       2.24844429      -0.01121966      -0.00668640      -0.01660288
H        4.33957786       7.14928791       1.68578476      -0.01646055       0.00138246      -0.02198245
H        3.55695981       6.03886110       2.82424611      -0.00779641      -0.01650923      -0.03327903
H        3.24654000       7.77862225       2.93827438      -0.00259930      -0.01806836      -0.00131212
H        2.50631899       6.33860940       0.63479500      -0.02676767       0.02470940      -0.01939908
O        7.21274161       4.12163144      10.35358577       0.01571941      -0.00255071      -0.00532675
C        7.68615792       2.82597275       9.97622842      -0.00394280      -0.00745042       0.01879481
H        6.88556474       2.21500679       9.55522655      -0.00743994      -0.01250523       0.03113887
H        8.15330574       2.29889167      10.81072542       0.00583641      -0.00114615       0.01857454
H        8.43291628       2.99311902       9.20573272      -0.00780454      -0.02233522       0.00633024
H        6.56977881       4.03135299      11.06117282       0.00628382       0.00657511       0.01662070
O        5.02491094       9.89613017       1.74855517       0.00226184      -0.00534937      -0.00302702
C        5.01250619       9.53281128       0.36426096      -0.00388394       0.00546973      -0.00565308
H        4.06071889       9.08763441       0.06608021      -0.00621420       0.01087183      -0.00590662
H        5.83280330       8.84771879       0.12943097      -0.00708538       0.00449255      -0.01397380
H        5.16933978      10.44304540      -0.20838164      -0.00252208       0.00907993       0.00073266
H        5.00104521       9.08164716       2.25710219       0.00253462      -0.00889945      -0.00904957
O        0.40713988       2.91002693      13.30689117       0.00509846      -0.00800166      -0.00039528
C        0.58255604       4.22831768      12.78803550       0.00016751      -0.00920738      -0.00415135
H        0.07114998       4.96924798      13.40949420       0.00432491      -0.00806302      -0.00168391
H        0.22722921       4.29683236      11.75747747      -0.00801204      -0.01078475      -0.00137806
H        1.64973770       4.45102998      12.78884208      -0.00011334      -0.00797629      -0.01246383
H       -0.51491085       2.80497046      13.59744715       0.00709280      -0.00982171       0.00498407
O        7.02231349       8.40675547       7.97324973      -0.00735824       0.00561935      -0.01219867
C        7.20558419       6.99948254       7.98142360      -0.00710793       0.00582707       0.00192000
H        7.80429491       6.67896618       8.83953223      -0.01072273       0.01404677       0.00760436
H        7.68683553       6.63898078       7.06410329      -0.00302005      -0.00280884       0.00756183
H        6.23322292       6.52138249       8.04565637      -0.00738433       0.00667602       0.00213149
H        7.89707469       8.78346093       7.79029273      -0.00641782       0.00381246      -0.01078110
O        0.87054882       1.92607763      10.48012147       0.01021074      -0.00596638       0.00188041
C        2.26726818       1.99498869      10.79395646       0.00919824      -0.00894490       0.00693592
H        2.72713194       1.00740164      10.76330957       0.00882024      -0.00873619      -0.00257214
H        2.35330067       2.38809066      11.80383393       0.00583544      -0.02056805       0.01166299
H        2.77317297       2.67211456      10.10436573       0.01104252      -0.00105298       0.01619707
H        0.77223604       1.42566112       9.64241281       0.01326320      -0.00129133      -0.00144914
O        2.55191849       9.77367887       4.99112420      -0.00348878      -0.00025278      -0.00346529
C        1.27560083      10.01616952       4.35909752      -0.00369188       0.00552916      -0.00065603
H        1.35516826       9.94571257       3.27510453      -0.00626044       0.00332131      -0.00065023
H        0.92076134      11.01243530       4.62389587       0.00242686       0.00766599      -0.00154839
H        0.56080439       9.27529828       4.70695401      -0.00654000       0.00983745       0.00298342
H        3.21327786       9.65956936       4.30343507      -0.00605813      -0.00649882      -0.00507045
O        2.49138758       5.30085138      10.02666725       0.01770061      -0.00352149      -0.01148474
C        1.39762921       5.17313292       9.11870502       0.01014299       0.00148437      -0.00278583
H        1.43883768       4.22326957       8.57454322      -0.00115166      -0.00072327       0.00060086
H        1.36361004       6.00367691       8.40850516       0.01080309      -0.00056443      -0.00517297
H        0.48985303       5.16957495       9.71714932       0.01477230       0.01052604       0.00414628
H        3.29160354       5.40604767       9.50063460       0.01450688      -0.00727380      -0.01763278
O       10.22940908      11.65832294       2.80311952       0.00325656      -0.01133323       0.00428694
C        9.52795417      11.83535749       1.58368624       0.00416753      -0.02076243       0.00387344
H       10.19561465      11.82226688       0.71803820       0.00777468       0.00030726       0.00637430
H        9.04891619      12.81549736       1.61721169      -0.02026144      -0.03352657       0.00738499
H        8.74080103      11.08758625       1.43381706       0.02390337      -0.03919551      -0.00436567
H       10.84622829      10.91389487       2.71890740       0.00445467      -0.01222104       0.00906003
O        4.33196737      12.12671527       5.01441014       0.00166375      -0.00923246      -0.00049436
C        3.70822812      12.36847637       3.75881976       0.00638460      -0.00052591      -0.00095740
H        2.62555064      12.45847680       3.86303269       0.00683504       0.00662138      -0.00329299
H        3.95185037      11.59440206       3.02310217       0.00282378       0.00019273      -0.00288484
H        4.08145869      13.31896245       3.37906578       0.01416202      -0.00196758       0.00361440
H        3.83618742      11.40872124       5.42493040      -0.00269960      -0.00928527      -0.00568085
O       12.54006297       2.78872436       5.92832305       0.00829983       0.00735909       0.00352873
C       11.35585256       3.36857007       5.35929951       0.00971664       0.00392981      -0.00272674
H       11.58566468       3.90335371       4.43580324       0.01101879      -0.00541852      -0.00774142
H       10.85723471       4.03933091       6.06302921       0.01049966       0.01099315      -0.00912282
H       10.68993846       2.54158875       5.12887863       0.00864926       0.00277641       0.00492441
H       13.20954865       3.47606071       6.00324246       0.00898758       0.00742275      -0.00105722
O        1.45606712       0.14417805       8.47914009      -0.00388475       0.01153088      -0.01276910
C        2.75391400       0.33849160       7.91016920       0.00306248      -0.01269218      -0.00491033
H        2.93707066      -0.33559549       7.07441020      -0.00512719      -0.01566684      -0.00416860
H        3.54567825       0.23572147       8.65807239      -0.00356248      -0.02811089      -0.00043058
H        2.76121246       1.35005227       7.51408534       0.02418074      -0.01322734      -0.00421296
H        1.37988328      -0.76005590       8.79703869      -0.02599229       0.01177338      -0.02047951
O        0.26728417       5.57783969       2.89364709      -0.00200015      -0.00336711       0.00498819
C        0.35900175       6.15140763       4.18613593       0.00029064       0.01096670      -0.00192162
H       -0.45742239       6.85246631       4.38128709       0.00479147       0.01843444      -0.01018079
H        1.30263621       6.67988383       4.34175023       0.00378022       0.00606552      -0.00672386
H        0.31051817       5.35192948       4.93095893      -0.00642005       0.01995774       0.00678012
H        0.85352423       6.08214397       2.30362422      -0.01200376      -0.00195438      -0.00345275
O        4.33385911       3.86209174       4.28821167       0.00807583       0.02280168      -0.00703785
C        3.05552379       4.30093645       4.73231028       0.00529745       0.00311427       0.00330451
H        2.40654685       4.53840783       3.88517816      -0.00205949       0.00211445       0.00867617
H        3.14079817       5.16909731       5.38848407      -0.00218702      -0.00106251       0.00953925
H        2.59021018       3.48935782       5.29373337       0.01783784      -0.00640160      -0.00047952
H        4.93150700       4.62452887       4.32139628      -0.00009753       0.02918263       0.00120914
O       12.66499968       8.40983905       0.66090794       0.00542200       0.00701694       0.02289695
C       11.89929147       9.51774139       0.17386615       0.00569619      -0.01193479      -0.01642927
H       12.07725360       9.69627514      -0.88784907       0.01544724      -0.04101074      -0.01879853
H       12.13762503      10.42744259       0.73050276      -0.00550641       0.00465009      -0.04016665
H       10.85013141       9.26628184       0.32632756       0.00563884      -0.01366406      -0.02024630
H       13.59528547       8.66304084       0.60316319       0.00561550       0.00785328       0.02549303
O        3.33409425       8.02304435      10.54531656      -0.00738853      -0.00582487       0.01514208
C        4.30963653       7.67295860       9.57591597       0.00421116       0.01495900       0.01970255
H        3.85626127       7.40343536       8.61182483       0.01466355       0.01930114       0.01368168
H        4.93993779       6.83927236       9.91405455       0.01048282       0.01860693       0.01614273
H        4.96327794       8.52575618       9.41308745      -0.00469357       0.02403983       0.03263880
H        2.76010935       7.25230851      10.63463936       0.00185343      -0.01374053       0.00202368
O       10.36677920       6.18408772       7.72409338       0.00248292      -0.00073862       0.00246790
C       11.78471991       6.15502404       7.79435752       0.00233553      -0.00023210       0.00545108
H       12.15481868       5.12818355       7.89280276       0.00226321       0.00010845       0.00914920
H       12.16141331       6.74477116       8.63498790       0.00063199       0.00229280       0.00441062
H       12.18419101       6.58574772       6.87638032       0.00417365      -0.00282851       0.00504848
H       10.01085545       5.95849594       8.61458866       0.00097286       0.00017098       0.00221534
O        5.67263857       6.54965672       4.62553578      -0.00616628      -0.00317121      -0.00891533
C        4.95116361       7.56573230       5.30912153      -0.00774178      -0.00402622      -0.00930244
H        4.91010927       8.48775931       4.71382057      -0.00965943      -0.00520384      -0.01040927
H        5.40100448       7.81756969       6.27051742      -0.00681293      -0.00227569      -0.01012346
H        3.93726048       7.20558141       5.47301854      -0.00688449      -0.00553143      -0.00751681
H        6.60252584       6.82960832       4.64816549      -0.00648907      -0.00190613      -0.00826483
O        1.62073502       1.30268362       5.10819280      -0.00622451      -0.00156906      -0.00511461
C        1.53943008       1.65798255       3.73279241       0.00835107       0.00276765      -0.00467288
H        0.89562508       2.52859990       3.57263614       0.01590088       0.00761712      -0.00821139
H        1.17831854       0.82344766       3.12657776       0.00833705       0.00710008      -0.01043214
H        2.54191095       1.92031108       3.39917487       0.01278007      -0.00267529       0.00475136
H        0.72403394       1.33901686       5.45893875      -0.00690196       0.01521467      -0.00956367
O       12.08654432       1.49165481       8.45526779       0.00135988       0.00761075       0.00719270
C       10.73722901       1.90223877       8.53863659       0.00010467       0.00397786       0.00081561
H       10.10468569       1.38983131       7.80331153       0.00454466       0.00158253      -0.00122604
H       10.62900898       2.98643034       8.39704835      -0.00262172       0.00354716      -0.00033510
H       10.37759315       1.63233822       9.52889289      -0.00290548       0.00363535      -0.00044993
H       12.40759415       1.77093642       7.58677034       0.00527684       0.00643322       0.00797147
O        7.92293157       8.28012920       4.79633570      -0.00952917      -0.00802839      -0.00573838
C        7.51497434       9.49731497       4.17435994      -0.00977513       0.00034167       0.01059979
H        7.05474581       9.23851524       3.22219614      -0.00653385       0.01377065       0.00575095
H        8.36440170      10.15448102       3.96931001      -0.01005319       0.00403646       0.02247775
H        6.78285352      10.04029975       4.77962148      -0.01211414      -0.00975873       0.01649338
H        8.44320856       8.50310470       5.58371672      -0.01059371      -0.01745260      -0.00271203
O        5.08788016       4.69936963       7.16453919      -0.00068837      -0.00487173       0.00844616
C        4.58149177       3.44036858       7.53925873       0.00438052      -0.01036340      -0.00343452
H        4.26671774       2.84846717       6.67574210       0.02837381      -0.01184148      -0.01057407
H        3.70930554       3.60594461       8.17517984      -0.01033473      -0.02099453      -0.02166992
H        5.30570422       2.85330712       8.11766572      -0.00143847      -0.00368722       0.01027974
H        5.71618897       4.56808427       6.43105759       0.00929601       0.00026976       0.01570038
O        7.65341545      10.64772783      11.48612171      -0.00698325      -0.00639319      -0.01164711
C        8.31313349       9.41847371      11.22911777      -0.00912896      -0.00807703      -0.00821668
H        9.33738233       9.41123133      11.62403832      -0.00198817      -0.00177999      -0.02766828
H        8.34256393       9.18515182      10.16230448      -0.02906286      -0.02200172      -0.00527996
H        7.75030318       8.63091547      11.72936391       0.00223394      -0.00194749       0.01311961
H        7.94820310      11.27298230      10.81550331      -0.00342775      -0.00803090      -0.01101076
O        9.63679420       8.71217481       7.14001823      -0.00490931      -0.00534904      -0.00601558
C       10.66325104       9.52220513       7.71224719      -0.00704582       0.00188194      -0.01341954
H       11.59474352       9.43623834       7.14505232      -0.00689945      -0.00029018      -0.01294366
H       10.85203892       9.23854451       8.75186810      -0.00592322       0.01176617      -0.01108941
H       10.33273619      10.55843376       7.70107781      -0.00962153       0.00088879      -0.02265888
H        9.86905120       7.77023777       7.31694949      -0.00122932      -0.00358667      -0.00096768
O       10.22108619       4.35985370       1.64464238       0.00485635       0.00123256      -0.00094393
C       10.08188307       5.64142397       2.25903843      -0.00372795       0.00172973      -0.00431116
H        9.82796264       6.41094544       1.52232244      -0.00012220      -0.00020206      -0.00752386
H       11.00642292       5.93062457       2.75933409      -0.00903544       0.00544351       0.00279877
H        9.27719277       5.57222688       2.98911283      -0.00930899       0.00062855      -0.01070230
H       11.11933907       4.30552425       1.30899051       0.00876316       0.00187865       0.00951851
O        9.49787300       5.64365687      10.24742087      -0.00029051       0.00217102      -0.00042596
C       10.39722202       4.95129073      11.10880241       0.00450617       0.01045236       0.00210172
H       10.74167309       4.01737357      10.65385253       0.00785945       0.00979471       0.00608747
H        9.93059431       4.73121675      12.07292905       0.00607044       0.01277921       0.00349602
H       11.25701729       5.59768896      11.28379379       0.00159986       0.01474665      -0.00180639
H        8.62488334       5.21043422      10.31438235       0.00418994      -0.00394987      -0.00171416
