200
Lattice="13.21569369492262 0.0 0.0 0.0 13.21569369492262 0.0 0.0 0.0 13.21569369492262" Properties=species:S:1:pos:R:3:forces:R:3 energy=-108117.8515625 stress="0.0003253649629186839 -0.00019053239520872012 -0.0004460462077986449 -0.00019053239520872012 0.00045988275087438524 -0.0005752767319791019 -0.0004460462077986449 -0.0005752767319791019 0.000536196050234139" pbc="T T T"
O       13.50649699      12.19077626       0.11003704      -0.01412140       0.01070634      -0.00497788
H       13.84513277      13.12109207       0.04595049      -0.00755869       0.00962669       0.00524771
H       13.12725138      11.99600771      -0.75158253      -0.03620121       0.03419162       0.00028217
H       12.48763952      11.95532006       1.35629978      -0.00852010       0.01257797      -0.00712007
O       11.80883673      11.86417889       2.09256667      -0.01361200       0.00489068      -0.00727433
O       10.85608908      13.23066685       3.57691486      -0.03143561      -0.00018965      -0.00783131
C       11.69682629      13.00977602       2.73641603      -0.01674017       0.00217575      -0.00896159
H       12.44860690      13.76373539       2.44480117      -0.01816049       0.00787237       0.00415027
O        0.63282484       3.91379938       0.93762648       0.00742841      -0.01159236       0.02742715
C        1.70149028       4.83061495       0.72570696      -0.00168501      -0.00653486       0.00280573
H        2.11901784       5.19758993       1.66867481       0.00395203       0.01043037      -0.00664014
H        1.38416275       5.69156864       0.13436347      -0.01478270      -0.01863796      -0.00720024
H        2.49067765       4.31373797       0.18607072      -0.00252475      -0.00915103       0.00374973
H       -0.11320764       4.38416339       1.36256516       0.00226839      -0.00888470       0.01541588
O        7.78762353       1.89626151       6.74846643      -0.00313894       0.00179517       0.00601566
C        7.64972778       2.71749219       5.60902772      -0.00057795      -0.00253528       0.00264159
H        6.60609723       2.98628730       5.40942366       0.00028458       0.00102071       0.00240759
H        8.06145875       2.24774266       4.70650973      -0.00323033      -0.00838581       0.00445727
H        8.20471374       3.63770901       5.79375327       0.00377207      -0.00414902      -0.00205779
H        7.11007924       1.19583762       6.71196759      -0.00633263       0.00439648       0.00991849
O        2.57902743      10.31563335       8.71501379       0.00339797       0.02595186       0.00081652
C        3.21966793       9.44353385       7.79352836       0.00509171       0.02114093       0.00703570
H        3.45610540       9.94700152       6.84848247      -0.01929128       0.00695127      -0.00630555
H        2.52813862       8.62685167       7.59239869       0.01763040       0.00477239       0.03315914
H        4.14158575       9.01219404       8.19732733       0.01927814       0.04561727      -0.00049514
H        3.11988225      11.10578915       8.82570111       0.00256811       0.02758865      -0.00407718
O        5.49017775      -0.18910516       2.88505493      -0.01687935      -0.01478332       0.00614940
C        5.40880574       1.18522415       3.25271657      -0.00484868      -0.01320943       0.00306587
H        6.28916576       1.73400257       2.90577350      -0.00169176      -0.02208836      -0.00249693
H        5.30767781       1.30338777       4.33431193       0.00118810      -0.00962666       0.00316274
H        4.52304637       1.60272227       2.77849626      -0.00368208      -0.00695989       0.00613531
H        6.40125976      -0.47857862       3.08430681      -0.01648293      -0.01945524      -0.00093590
O       10.14593813       6.86706508       3.61048484      -0.00673467      -0.01472600      -0.00611800
C       10.50504261       7.70246381       4.71199178      -0.00388284      -0.01856749      -0.00432113
H       11.38933211       7.28072915       5.18403412       0.00480080      -0.01370923      -0.01649867
H        9.70596866       7.75221681       5.45558575       0.00354207      -0.03165421       0.00434870
H       10.73304072       8.72297237       4.38034809      -0.01722624      -0.01431754       0.00044964
H        9.20813543       7.05812342       3.41014181      -0.00718218      -0.01363409      -0.00445164
O        4.84822287       5.38017193       0.18643971      -0.00002141      -0.00150260      -0.01064354
C        5.48834004       4.19778132       0.64974840       0.00357371      -0.00044207      -0.01360220
H        6.57763266       4.26680894       0.56528687       0.00280637      -0.00186912      -0.02448233
H        5.14428202       3.31930358       0.09976201      -0.00245115      -0.00134186      -0.00831471
H        5.22556839       4.07365017       1.70062048       0.01387710       0.00209310      -0.01072252
H        4.82790887       5.40467525      -0.79720431      -0.00623008      -0.00386553      -0.01116407
O       11.67535687       4.82951287       2.34675347      -0.01033210       0.00200421      -0.01440527
C       11.03412619       3.63044888       2.75614778      -0.01174703       0.00889730       0.00387604
H       10.11052649       3.44803145       2.19488956      -0.01981065       0.01052170       0.01717296
H       10.79957112       3.63293647       3.82200039       0.00167909       0.02010232       0.00670761
H       11.71990653       2.80685904       2.55997650      -0.01948313       0.00276165       0.00229194
H       11.20045284       5.59141276       2.73188655      -0.00279871       0.00585500      -0.01225092
O        9.87927824       5.20448282      11.96260573       0.01606852      -0.00079161       0.01476884
C       10.73008414       6.32517608      11.67880826       0.01067303      -0.00194462      -0.00521109
H       11.72324883       5.99322260      11.36528429       0.01173711      -0.00248252      -0.00132015
H       10.82557567       6.96146950      12.55788697       0.00912316       0.01354812      -0.01663291
H       10.27441190       6.88077455      10.86234168       0.00699815      -0.01725458      -0.01349398
H       10.29197493       4.69367919      12.66468470       0.01877740       0.01391606       0.02367854
O        5.38033309       7.41292108       1.78891134       0.00091632       0.00174806      -0.01689547
C        4.14139764       7.58876531       2.49232505       0.00197065       0.00158611      -0.01504275
H        3.31317953       7.70874260       1.78887917       0.00018048      -0.00209345      -0.01355794
H        4.22167271       8.49461197       3.09192059       0.00116649       0.00338747      -0.01764017
H        3.93606479       6.73704195       3.14465958       0.00473156       0.00293031      -0.01224215
H        5.25073142       6.66124955       1.15651352      -0.00009614       0.00164677      -0.01697111
O        9.19070051       3.87265810       9.67670756       0.02065733       0.00113553       0.01125903
C        8.00337950       3.13536244       9.95229884       0.00995962       0.01040567      -0.01095306
H        7.11154376       3.71277859       9.69346561       0.01784140       0.02994686       0.00684708
H        7.95809592       2.86611768      11.01210183       0.00584800      -0.02226585      -0.02014717
H        8.01431900       2.22776725       9.35113231      -0.00229456       0.03039199      -0.03946202
H        9.43019878       4.37176645      10.48068938       0.01531105      -0.00714642       0.01805714
O        5.82490800       9.51710913       0.08260913       0.02645190       0.01412582       0.00435224
C        4.79352357      10.44856394       0.36685794       0.01283817       0.00436255      -0.01322244
H        4.95633732      11.32903876      -0.25346977       0.01093041       0.00322373      -0.01551290
H        4.81773842      10.75037333       1.41509646      -0.00290919       0.00948159      -0.01455465
H        3.80154217      10.04203772       0.13969728       0.02035773      -0.00756489      -0.02380462
H        5.70449323       8.74847680       0.67698999       0.01850584       0.00998919      -0.00266580
O        1.29761210       1.42165772      13.13965909      -0.00618663       0.00228634       0.00777370
C        2.71739175       1.43432750      13.01213596      -0.00610910      -0.00439270       0.01139811
H        3.00420930       0.55440445      12.43747481      -0.00783217      -0.01394340       0.02524106
H        3.21267414       1.39727236      13.98772509      -0.00850470       0.00707654       0.01288316
H        3.05028239       2.31119832      12.45647461      -0.00136594      -0.01353171      -0.00013095
H        0.99202250       2.27653731      13.50739179      -0.00316072       0.00081715       0.01485148
O        6.71300542       8.12076391       8.41930022      -0.01089358      -0.00029480       0.00808180
C        7.55899405       6.98780061       8.29882710       0.00136581       0.01025957      -0.00248133
H        7.11115829       6.08967248       8.74067217       0.01550263       0.00398701      -0.00092372
H        8.54097018       7.16495492       8.74023351       0.00326431       0.02021562      -0.01047419
H        7.71769201       6.79565304       7.23455065      -0.00597109       0.01475882      -0.00427321
H        6.78169217       8.42326654       9.34332712      -0.00453345      -0.00090723       0.00794574
O        2.25807448       2.18571257      10.01723357       0.00537515       0.00174755       0.00153777
C        0.82737285       2.12672044       9.97417137       0.00544591      -0.00021441       0.00024203
H        0.53182116       1.15646121      10.36039170       0.00681810      -0.00288126      -0.00527261
H        0.45113020       2.21831960       8.95356272       0.00614838       0.00474106       0.00031638
H        0.38328985       2.90356020      10.60180650       0.00376445      -0.00438249       0.00400233
H        2.53049769       3.04974042       9.69250283       0.00463313       0.00407615       0.00706370
O        1.47684907      11.73087925       5.18686634      -0.00553614       0.01061124      -0.01077685
C        0.48908042      10.75307874       5.46838641      -0.00455618       0.01203507      -0.00312424
H        0.92587460       9.85358459       5.90989299      -0.00274141       0.01492527       0.00125083
H       -0.07535627      10.47749478       4.57129352      -0.00618978       0.00671680      -0.00024205
H       -0.20357264      11.18340731       6.18977294      -0.00329682       0.01581651      -0.00412399
H        2.19384118      11.35515258       4.63618961      -0.00497616       0.00756547      -0.00828668
O        7.05434259       8.61239116      11.09586414       0.01231319      -0.00132060       0.00297038
C        7.46105072       7.43368131      11.76985532       0.00508086      -0.00498474       0.00115483
H        6.60894781       6.89696337      12.19813443       0.00195074       0.00016895       0.00150837
H        8.17608498       7.65674834      12.56895823       0.00753966      -0.01076794       0.00049761
H        7.94410479       6.77754179      11.05047682       0.00022823      -0.00739107      -0.00012550
H        6.53756445       9.12465638      11.74761416       0.01877876       0.00290760       0.00497077
O        1.78601803       6.32473046       7.88883189       0.00430223       0.00617009      -0.01023400
C        1.21931758       5.26602483       8.63539982      -0.00467964       0.00911850      -0.01258501
H        1.16132175       4.33533380       8.05639415      -0.00281611       0.00805426      -0.01127809
H        0.21260867       5.49260271       9.00112314      -0.00699022       0.01232029      -0.02134262
H        1.87394616       5.10500003       9.49583549      -0.01213188       0.00838211      -0.00712444
H        1.20784832       6.54723068       7.14441283       0.01045926       0.00578549      -0.01551921
O        8.18677251      12.34558397       3.07624109      -0.02218118      -0.00988191      -0.01005870
C        8.47738957      12.16118089       1.69179043      -0.01796944      -0.00843430      -0.00939921
H        9.29932593      11.45721513       1.55152476      -0.02033457      -0.01095206      -0.00746337
H        8.73924931      13.10921121       1.20973549      -0.01314507      -0.00854063      -0.00666443
H        7.58255654      11.76086462       1.21890788      -0.01815543      -0.00486936      -0.01293344
H        9.01108245      12.64441368       3.49519992      -0.02285661      -0.00637554      -0.00870525
O        3.35911643      11.25778397       3.31546813      -0.00040519      -0.00976959       0.00200540
C        2.42123881      11.53771942       2.27970378       0.01077159      -0.00589978      -0.00722647
H        2.87770553      12.08979151       1.45787111       0.02134539      -0.00542425      -0.00103134
H        1.57616955      12.11686839       2.66285447       0.00880498      -0.00375369      -0.01497050
H        2.03871292      10.59320330       1.89225702       0.01235508      -0.00414634      -0.01293828
H        4.05212979      11.95121043       3.30036486       0.00340255      -0.01221183       0.00555085
O       10.94808556       4.86276318       7.85299367       0.01882204      -0.00278655       0.01091582
C       10.80186363       4.60933464       6.46427416       0.00567353      -0.00188330       0.01233622
H        9.96798091       5.16979676       6.02768053       0.00268346       0.00014776       0.02054283
H       10.65192942       3.54428498       6.26508862       0.00131505      -0.00153589       0.01285331
H       11.71721319       4.93810737       5.96991559       0.00164464      -0.00354945       0.00409976
H       10.20858511       4.45256360       8.34666292       0.02074791       0.00072432       0.01719783
O        3.53547270       0.09554921       8.58455573      -0.00199019      -0.00215241       0.00670165
C        2.47744987       0.22137923       7.62450325      -0.00106551      -0.01068858       0.00409524
H        2.43736470       1.23208618       7.21009036      -0.00207714      -0.01382995      -0.00300981
H        1.51261621      -0.03265720       8.06972260      -0.00100914      -0.01017691       0.00452946
H        2.67365762      -0.47408258       6.81766832       0.00169554      -0.01592225       0.00908884
H        3.32756966       0.74453579       9.27697429      -0.00404611       0.00198206       0.00249709
O        0.70141960       6.78821194       5.22665150      -0.00695485      -0.01153886      -0.00267348
C        0.74752251       7.56486441       4.03488599       0.00130442       0.00222304       0.00664666
H        0.73089153       6.92814906       3.14660707      -0.01138875       0.01327610      -0.00096130
H        1.63967268       8.20196903       3.99902150       0.01055315      -0.01080911       0.01110954
H       -0.13023984       8.20530204       4.00305527       0.01104876       0.01569511       0.01790746
H        1.27683132       6.01933400       5.03950565      -0.00935858      -0.01220140      -0.00892216
O        2.35010600       4.82593686       4.41201324      -0.00481439      -0.00648069      -0.00377101
C        2.83591909       4.01604592       5.49132828      -0.00113150      -0.00321421      -0.00271884
H        2.05858942       3.34048869       5.85533603       0.00230968      -0.00702156      -0.00259604
H        3.12290663       4.70192092       6.28411371      -0.00438621      -0.00116867      -0.00333300
H        3.69997389       3.42541232       5.18353129       0.00178915       0.00071982      -0.00223981
H        1.89936673       4.25332952       3.78271552       0.00037932      -0.00952750      -0.00477728
O       12.92672115       7.53561332       0.70124948       0.01537305       0.01362785      -0.00929314
C       12.22782381       8.69696249       1.14261520       0.00304770       0.00190300       0.00267135
H       11.62134245       9.13699626       0.34397575      -0.00215448       0.00327992       0.00741765
H       12.91204994       9.45846339       1.52721769      -0.00546843       0.00532161       0.00998744
H       11.56334789       8.38054735       1.94496775       0.00697780      -0.01374480      -0.00055473
H       13.41360503       7.76740734      -0.09352029       0.01789892       0.02863346      -0.00318065
O        4.34744160       5.73209273      10.76993601      -0.00682309      -0.01436144      -0.00441068
C        3.86398108       7.08125657      10.73300992       0.00479355      -0.01070042      -0.01224478
H        4.63710619       7.77240864      10.39325081       0.01382685      -0.01777855      -0.00577116
H        3.58590078       7.34601955      11.75401296      -0.00440045      -0.00613905      -0.01600471
H        2.98920654       7.17423382      10.08626033       0.01267773      -0.00505949      -0.02182749
H        4.66772563       5.48480655       9.88168546      -0.00384689      -0.01859604      -0.00331971
O        5.67533836      13.31991283       6.76176017      -0.00256184       0.00833768       0.01230478
C        5.63015867      12.02395513       6.17382787       0.00636189       0.00690383       0.01480868
H        4.64969900      11.82345437       5.73087676       0.01251489       0.00480838       0.00234255
H        5.86541027      11.23876954       6.89811625      -0.00249321       0.00892487       0.01963508
H        6.37354279      11.99790887       5.37825819       0.01690921       0.00573203       0.02468610
H        5.02466225      13.35545291       7.48775122      -0.00498915       0.00629311       0.01045547
O       10.75875261       7.57738488       8.36422999       0.01276302      -0.00197566      -0.00035693
C       11.89990400       8.35399119       8.06216225       0.01371548      -0.00365859      -0.00155950
H       12.48715144       7.92653873       7.24349191       0.00230856       0.00509539      -0.01397258
H       12.56095638       8.47899299       8.92863314       0.02424332      -0.01880851      -0.00756091
H       11.56009507       9.34535502       7.75454846       0.01470429       0.00211143       0.01671879
H       10.94026568       6.63414151       8.19219868       0.01436691      -0.00279662       0.00519683
O        5.59024921       5.69656481       5.68552948      -0.00999928       0.00546505       0.02141699
C        5.02667470       7.00591783       5.89505677      -0.01428888       0.00636131       0.00414940
H        5.40212648       7.70390033       5.14629898      -0.01884870      -0.00256343      -0.00636202
H        5.27025264       7.38152599       6.88918717      -0.01461953       0.02020265      -0.00104666
H        3.94751691       6.90732299       5.79080865      -0.01393843      -0.00005826       0.00712837
H        6.50815198       5.81974587       5.42367006      -0.00775796       0.00383225       0.02822512
O        2.35482241       0.99793426       4.34820074      -0.00852270       0.00817031       0.00980693
C        1.70222227       1.74833285       3.35437506      -0.01011126      -0.00048727       0.00480723
H        0.80625297       2.26469823       3.72942096      -0.00976208       0.00276266       0.00164516
H        1.41160292       1.15296461       2.48241849      -0.01191692      -0.00792450       0.01058441
H        2.40691767       2.49991176       2.98873641      -0.01141050      -0.00346076      -0.00364296
H        1.80491617       0.23971295       4.61203240      -0.00415336       0.00421195       0.00873899
O       11.62607469       0.10118165       8.80894695       0.00239930      -0.00758994       0.00587940
C       10.99048886       1.25750638       8.26299938       0.00561103      -0.00761291       0.00207125
H       10.06559654       1.01630110       7.73313422       0.00037691      -0.00593461       0.01035774
H       11.65721347       1.80082419       7.58381895       0.00408065      -0.01685888      -0.00666976
H       10.74540466       1.91392682       9.09548629       0.01549640      -0.00024368      -0.00082579
H       11.74447365      -0.53464043       8.10001093      -0.00371047      -0.01224654       0.00922933
O        7.52405475       7.71327126       3.51068283      -0.00649437      -0.01252273      -0.00420806
C        7.64241478       9.14064703       3.51764740      -0.00542060      -0.01265271       0.00107538
H        6.74447757       9.61453410       3.11541778      -0.00900576      -0.01002203       0.01243390
H        8.49721429       9.46734295       2.91923202      -0.01108962      -0.00984677      -0.00552775
H        7.78486190       9.47819602       4.54400724       0.00452937      -0.01837000       0.00148958
H        6.83862390       7.48066114       2.85451724      -0.00269963      -0.00935698      -0.00920351
O        5.09825613       4.62428617       8.26410718      -0.00750330       0.01012570       0.01382989
C        4.78094890       3.24636924       8.13750848       0.00654023       0.00711372       0.01288274
H        5.43124617       2.74345593       7.42054626       0.02160776       0.01184502       0.02361414
H        3.73968050       3.09492863       7.83208543       0.01220989      -0.00326274      -0.00097952
H        4.92723670       2.77240893       9.10887692      -0.00268049       0.01150107       0.01645753
H        5.32258346       4.97612391       7.38086426      -0.01002378       0.01410630       0.01424593
