188
Lattice="13.410719613761989 0.0 0.0 0.0 13.410719613761989 0.0 0.0 0.0 13.410719613761989" Properties=species:S:1:pos:R:3:forces:R:3 energy=-145975.328125 stress="-0.003341688308864832 1.417332259734394e-05 -0.00011769615593948402 1.417332259734394e-05 -0.0019643993582576513 -0.00020407186093507335 -0.00011769615593948402 -0.00020407186093507335 -0.0025823982432484627" pbc="T T T"
O       12.33439329      13.37345421       0.79053761      -0.01008141      -0.00122194       0.04108723
H       11.59092538      11.84970807       1.32394004      -0.00796944      -0.00037450       0.04251678
H       13.05408529      13.16357066       0.18616609      -0.03928405      -0.00899313       0.01275957
H       12.75288546      13.84163129       1.51882488       0.02734560      -0.01894161       0.02857172
Cl      11.68677171      10.06860807       2.65373745       0.01630116      -0.00069281       0.03465950
O       11.65492456       8.77040002       2.03466948       0.00815328      -0.00410438       0.04124400
O       10.99756853      11.06559798       1.44942731       0.00401562      -0.00986874       0.03508502
O       13.02499573      10.60738498       2.82292871       0.01709473       0.00189355       0.01554106
O        2.74781640      11.42695691       6.69987480      -0.00211369       0.00862244       0.00381307
O        1.51649757      10.01025811       7.76837925       0.00156999       0.00884130       0.00631087
O        3.15894271      11.07770995       8.90536449      -0.00999194       0.02659214       0.01049447
C        3.98547494      12.17758422       6.60073712      -0.00583890       0.01340009       0.00335926
C        4.04680003      12.75383423       5.21083090      -0.00487842       0.00967419       0.00229776
C        2.54224054      10.86181287       7.89355451      -0.00720096       0.01486029       0.00221694
C        1.27461500       9.21962630       8.93607778      -0.00116308       0.01554756       0.00959432
H        4.00512314      12.94353845       7.37518808      -0.00904262       0.01479670       0.00222835
H        4.79940683      11.48155714       6.79268640      -0.00365096       0.01724786       0.00599517
H        4.95542028      13.34904200       5.10770133      -0.00640860       0.01079755       0.00176242
H        4.07455003      11.96540768       4.45857860      -0.00342806       0.00793967       0.00430113
H        3.18864232      13.39948458       5.01904577      -0.00495961       0.00842419      -0.00000967
H        2.18150783       8.69365708       9.23089467       0.00203547       0.03062586       0.02380813
H        0.50078711       8.51735336       8.64823154       0.01240093       0.00268719       0.00746153
H        0.93318583       9.84092068       9.76373064      -0.01941597       0.01777160      -0.00029501
O       10.56655082      12.41600281      10.80706934      -0.00186844      -0.00838058       0.01591082
O        8.82723833      12.45461625      12.12600887      -0.00429930      -0.00861901       0.00982308
O        8.85203406      11.00348376      10.40174424      -0.00405359       0.00922495       0.00385404
C       11.20568019      11.82306519       9.64629134      -0.00085485       0.00051898       0.01186661
C       12.49140777      12.55158082       9.39409069      -0.00196749       0.00427985       0.01716902
C        9.36591132      11.87580260      11.05345324      -0.00799090      -0.00917053       0.00359869
C        7.48370016      11.99700445      12.37032946      -0.00717237      -0.00307147       0.00471538
H       11.35769068      10.76196717       9.83851146       0.00034267      -0.00053215       0.00460905
H       10.52280250      11.90635424       8.79941650      -0.00099173       0.00564211       0.01283452
H       12.98380965      12.11221335       8.52563095      -0.00410866       0.01430845       0.01142046
H       12.29759353      13.60331423       9.18949801      -0.00339196       0.00587554       0.02900005
H       13.16665777      12.48203844      10.24813610       0.00017951      -0.00457271       0.01402885
H        6.87026191      12.17797615      11.49034889      -0.00397938       0.00371324       0.00422761
H        7.12905682      12.57310333      13.21710389      -0.00600589      -0.00562845       0.00661582
H        7.49361616      10.93939747      12.61989123      -0.01271372      -0.00414971      -0.00022939
O        5.69903326       1.84705766      13.00226506       0.00291918       0.00007582       0.01312564
O        7.80655255       2.20445270      13.38887397       0.00134256      -0.00113172       0.01844054
O        7.18642654       1.47839474      11.34024047       0.00550006       0.00968653       0.01325840
C        4.63998611       1.54742911      12.05889549       0.00444555      -0.00097806       0.01222610
C        3.33502495       1.65460908      12.80083757       0.00333396       0.00417687       0.00909317
C        6.92141724       1.80965266      12.46697602       0.00337458       0.00356868       0.01511526
C        9.15771065       2.25699955      12.88920087       0.00291773      -0.00292652       0.02369922
H        4.69967461       2.26294242      11.23871434       0.00774055      -0.00473928       0.00941336
H        4.80344952       0.55413271      11.63827526       0.00344156      -0.00297040       0.01704602
H        2.51560640       1.42892903      12.11671116       0.00411689       0.00261883       0.00898296
H        3.30030215       0.94858989      13.63007925       0.00058946       0.00794445       0.01192632
H        3.19008303       2.66022501      13.19383720       0.00438208       0.00589210       0.00458687
H        9.49131332       1.26491135      12.59693316       0.00415879      -0.00412917       0.03048865
H        9.75557656       2.64510617      13.70826028      -0.00038390       0.00099986       0.02417892
H        9.20503237       2.92774656      12.03245716       0.00675521      -0.00751552       0.02077723
O        4.22782403       8.08958740       4.06927471      -0.00725219       0.00671515      -0.00746253
O        4.71829360       8.22112577       1.97927521      -0.00881145      -0.00218192      -0.00796622
O        5.38153170       9.90500104       3.34747296       0.00340343      -0.00332594      -0.01316437
C        4.30437710       8.58520784       5.43271638      -0.00306749       0.00940412      -0.00908965
C        3.33274175       7.78956192       6.26128766       0.00186583       0.00818107      -0.00493774
C        4.83547049       8.84083622       3.15945665      -0.00363052      -0.00007802      -0.00984322
C        5.27202418       8.91182968       0.84922546      -0.00240837      -0.01022029      -0.00914650
H        5.32764342       8.45665752       5.77887992      -0.00166869       0.01278429      -0.01241134
H        4.05842723       9.64447884       5.42763543      -0.00598769       0.00846249      -0.01030545
H        3.45311462       8.07420387       7.30645107      -0.00128505       0.01476151      -0.00666592
H        2.30544484       7.98901639       5.95914576       0.00116684       0.00013031      -0.00687768
H        3.54060542       6.72628836       6.17749381       0.00842191       0.00911957       0.00086143
H        5.11860725       9.98577364       0.94387394       0.00056096      -0.00943971      -0.01580424
H        4.74414568       8.51271870      -0.01009229      -0.00022078      -0.01317272      -0.00892508
H        6.33732796       8.72706669       0.77716644      -0.00285783      -0.01371605      -0.00365062
O        5.56238873       5.45594182       5.62742594       0.00176954      -0.00377202      -0.02115931
O        7.04213494       6.88723512       6.27309296       0.00559771      -0.00518852      -0.02779444
O        7.59074925       4.69440012       6.28710150      -0.00276917      -0.00714481      -0.01065621
C        5.17341802       4.11244790       5.27999545      -0.00193083      -0.00457829      -0.01282255
C        3.67519037       4.10674603       5.13276676      -0.00160414      -0.00101770      -0.01360251
C        6.80750442       5.59231713       6.08633889       0.00061351      -0.00446510      -0.01906218
C        8.40818372       7.19688567       6.62275866       0.00367033      -0.00828396      -0.01831847
H        5.67562714       3.84481989       4.34734135      -0.00195646      -0.01280218      -0.01043209
H        5.51630396       3.43216148       6.05846599      -0.00477739      -0.00044709      -0.00833282
H        3.34038861       3.11336946       4.83100786      -0.00421708      -0.00097592      -0.01016244
H        3.20921995       4.35938146       6.08437444      -0.00162101       0.00373309      -0.01509807
H        3.35301033       4.82658677       4.38102749       0.00101642      -0.00286381      -0.01620777
H        8.64635802       6.78553963       7.60067924      -0.01143666       0.00958946      -0.00835571
H        8.46655195       8.27587258       6.64588315       0.01190704      -0.00889486      -0.03817368
H        9.07756497       6.79137551       5.86997228       0.00843707      -0.02819695      -0.00187662
O       10.29062324       5.12596562       4.63880288       0.01599964      -0.01194458      -0.01299529
O       11.70216880       5.77657548       6.13224765       0.01409015      -0.00775427      -0.01418647
O       12.49470402       5.12862436       4.10666999       0.01695532      -0.01756570      -0.01056504
C        9.97172377       4.59871829       3.33209086       0.01696664      -0.01514750      -0.01163284
C        8.48528088       4.35686209       3.30320733       0.01766920      -0.01746924      -0.01161858
C       11.58609521       5.32452981       4.87246686       0.01460636      -0.01310402      -0.01090211
C       13.04201129       6.08808793       6.53795168       0.01266369      -0.00388123      -0.01371253
H       10.29982030       5.31774490       2.57869175       0.01509406      -0.01542199      -0.01261711
H       10.53592391       3.67560131       3.18681647       0.01904881      -0.01417428      -0.01026557
H        8.19324720       3.92623069       2.34431076       0.01914406      -0.02070876      -0.01034039
H        8.19508067       3.67862945       4.10265533       0.01814073      -0.01557440      -0.01004988
H        7.93687468       5.28983412       3.44393265       0.01615056      -0.01799972      -0.01449538
H       13.71489066       5.26390682       6.31038063       0.01596650      -0.00051042      -0.01589181
H       12.98520211       6.25641244       7.60998483       0.01257040      -0.00610249      -0.01358616
H       13.38830835       6.98951162       6.03422453       0.00868996      -0.00183758      -0.01210612
O        8.36810078       9.15966592       1.46335521      -0.00105301       0.00331526       0.00170261
O        7.98408707      11.25333731       1.79755000      -0.00299000       0.00263308       0.00584436
O        8.62831520       9.98358704       3.55892893       0.00728783       0.00208056       0.00004470
C        8.43314734       7.80549311       1.96992413       0.00252720       0.00367901       0.00177479
C        8.56931231       6.90406928       0.76971429      -0.00113255       0.00284493       0.00225613
C        8.34435858      10.11795196       2.39756158       0.00243947       0.00243584       0.00298333
C        7.95546989      12.39562851       2.65675477      -0.00820771      -0.00172063       0.01095125
H        9.27718826       7.72073191       2.65384231       0.00499606       0.00472718      -0.00149411
H        7.51394141       7.61580135       2.53188126       0.00513291       0.00320759       0.00549427
H        8.46104040       5.86286702       1.06865193      -0.00242578       0.00356998       0.00349838
H        7.79458015       7.11993743       0.03278749      -0.00193864       0.00324035       0.00356661
H        9.54537361       7.02295334       0.30378194      -0.00203350       0.00033160       0.00029554
H        7.11269775      12.31956286       3.34257516       0.00251153      -0.01652792       0.02108553
H        7.84367056      13.25544496       2.00068063      -0.02909078      -0.00120129       0.01638317
H        8.88349692      12.46829950       3.22078566      -0.00227204       0.00994946      -0.00141485
O        1.21631562       9.13540979       0.68293511      -0.00333398       0.00082947      -0.01833656
O        0.55000282       7.10545257       0.95025653      -0.00649074       0.00331074      -0.01331408
O        2.56163548       7.44988250      -0.03243404      -0.00397265      -0.00355661      -0.01065189
C        2.29831579      10.06863026       0.53555436      -0.00389427       0.00076622      -0.02265778
C        1.72962463      11.46182218       0.48564738      -0.00527698      -0.00062093      -0.02492958
C        1.54849461       7.84813753       0.48952569      -0.00502729       0.00050193      -0.01339903
C        0.73116883       5.68787469       0.83194729      -0.00924698       0.00305158      -0.01100789
H        2.94979667       9.95751911       1.40286749      -0.00294012       0.00354224      -0.02332523
H        2.86756735       9.82807820      -0.36100616      -0.00561428      -0.00114320      -0.02331361
H        2.55124012      12.17632933       0.42225035      -0.00763001       0.00098130      -0.02658122
H        1.09495131      11.58227727      -0.39536946      -0.00763737      -0.00238282      -0.02223542
H        1.15095670      11.66562341       1.38438712      -0.00489701      -0.00123322      -0.02486369
H        1.10800491       5.43227303      -0.15675607      -0.02602491      -0.00019214      -0.01595530
H       -0.25183103       5.26143029       0.99931644      -0.00631663       0.00444517       0.00580158
H        1.42958590       5.34330602       1.59498108       0.00247458       0.00460707      -0.02201748
O        3.84831238       1.82611453       8.53393039      -0.00704120       0.00235709      -0.00442817
O        5.92131111       2.30817089       8.84535616      -0.00464971      -0.00785193      -0.00448698
O        4.47307966       4.00390381       8.45325790       0.00325522       0.00022697      -0.00014006
C        2.48531163       2.22759776       8.28917921      -0.00578041       0.00817275      -0.00336111
C        1.61033769       1.04082282       8.57371399      -0.01059482       0.01053336      -0.00978260
C        4.73146403       2.83091633       8.59138825      -0.00208761      -0.00231040      -0.00245469
C        6.96817273       3.27122629       9.06004745       0.00097267      -0.01367941      -0.00744614
H        2.24962975       3.08013811       8.92763165      -0.00233211       0.00564784       0.00070095
H        2.40094715       2.55172038       7.25043635      -0.00295440       0.01418450      -0.00164422
H        0.57342128       1.30521264       8.37603231      -0.01038457       0.01821305      -0.00024430
H        1.87140357       0.19128594       7.94393323      -0.01790002       0.01543048      -0.01781441
H        1.69763929       0.73049035       9.61488090      -0.00520344       0.00102529      -0.01403357
H        7.21561348       3.76826633       8.12738187      -0.00688492      -0.00632684      -0.00521162
H        7.80131579       2.69427173       9.43757736       0.00251235      -0.01967508      -0.02135868
H        6.65061300       4.00230603       9.80536536       0.01180995      -0.02002101       0.00242311
O        5.42494966       8.46940764       9.10369062      -0.00750497      -0.00462140       0.00257460
O        6.24056941      10.13979344       7.99784840      -0.01054196      -0.00793985       0.00126307
O        7.66945612       8.75064380       9.08331862      -0.03198743      -0.00554323      -0.01944661
C        5.62849260       7.30898175       9.93995024      -0.00745445      -0.00901793      -0.00028636
C        4.28147503       6.69262539      10.19684589      -0.00890750       0.00130846       0.01346291
C        6.56052579       9.09142010       8.76272450       0.01545358      -0.01642701       0.00283644
C        7.34992759      10.98188332       7.63165071      -0.00775365      -0.01307997      -0.00794019
H        6.30148274       6.62360559       9.42100515      -0.01844841      -0.01287961      -0.00911942
H        6.12046173       7.63271127      10.86034102       0.00542969      -0.01355778      -0.00591862
H        4.40129385       5.80038323      10.81201079      -0.00848366       0.00064872       0.01152378
H        3.62784401       7.38172838      10.73079881       0.00273810       0.00531653       0.01988479
H        3.81907197       6.38661427       9.25983936      -0.02040362       0.00603184       0.01886404
H        7.73538247      11.47887747       8.51824920       0.00380115      -0.01851428      -0.01018605
H        6.94601534      11.70251309       6.92566056      -0.01007649      -0.00881991      -0.00174764
H        8.14130341      10.40587403       7.16193119      -0.01651350      -0.01703689      -0.01682740
O       10.73561446       6.52822154      10.31948751       0.02263225      -0.00713219      -0.00089112
O       11.06030651       8.47276029      11.20040688       0.01804459      -0.01140420       0.00881112
O       11.46859803       6.63154456      12.45780508      -0.00267223      -0.01810509       0.01168621
C       10.74253946       5.08980416      10.42760373       0.01214458      -0.00728556      -0.00471526
C       10.14967580       4.54843297       9.15660783       0.00930054      -0.00357082      -0.00460070
C       11.12220017       7.16461205      11.43220927       0.00947165      -0.00882310      -0.00040919
C       11.31659909       9.29528548      12.35400322       0.00784695      -0.01454145       0.01313707
H       11.77070255       4.75659395      10.58740657       0.00990137      -0.01383823      -0.00460533
H       10.16431036       4.81240305      11.31027892       0.01057741      -0.00482060      -0.00491893
H       10.14124418       3.45860775       9.18397949       0.00594185      -0.00331593      -0.00426167
H        9.12529458       4.89579743       9.03190294       0.01130411       0.00197461      -0.00414715
H       10.71642877       4.86790920       8.28307007       0.01045504      -0.00699789      -0.00437319
H       10.49613365       9.20789969      13.06114831      -0.00211924      -0.00925599       0.00188404
H       11.37076177      10.31222528      11.97847270       0.02026216      -0.01455176       0.01604441
H       12.24610734       9.00552028      12.83752211      -0.00126469      -0.02205971       0.02495956
O       11.81249797      11.41240773       6.17402553      -0.00108028       0.01860288       0.00604230
O       11.85322704       9.69289664       7.50058029       0.00073003       0.01132141      -0.00368302
O       10.08071326       9.95871534       6.13021590      -0.00246203       0.02187881       0.00462252
C       11.08770567      12.21656604       5.21748471      -0.00267440       0.02689534       0.01467416
C       12.06031489      13.19247870       4.60654876      -0.00148198       0.02466500       0.01370592
C       11.14796751      10.31541093       6.56014662      -0.00284064       0.01727507       0.00207144
C       11.14613083       8.57581329       8.08297111       0.00298980       0.00635625      -0.01091400
H       10.62527178      11.55574754       4.48772097      -0.01037882       0.03349727       0.01384410
H       10.27334230      12.72364238       5.74225596       0.00408965       0.02871384       0.02257103
H       11.56524653      13.71917953       3.78757435      -0.00624502       0.04068507       0.02810669
H       12.39646318      13.92923609       5.33500644       0.01571829       0.01114920       0.01845361
H       12.92611438      12.66145149       4.21472330      -0.01227818       0.02172762      -0.00419427
H       10.21938688       8.90807773       8.54875475       0.00039524       0.00091065      -0.01263979
H       11.80951889       8.18281727       8.84070639       0.00206374       0.00467321      -0.01096267
H       10.93881052       7.82603917       7.32368884       0.00769077       0.00965479      -0.01533428
