194
Lattice="13.749520918692067 0.0 0.0 0.0 13.749520918692067 0.0 0.0 0.0 13.749520918692067" Properties=species:S:1:pos:R:3:forces:R:3 energy=-493180.53125 stress="-0.0017943015554919839 -0.0013278041733428836 -0.0007030719425529242 -0.0013278041733428836 -0.0003973067505285144 -0.00026588153559714556 -0.0007030719425529242 -0.00026588153559714556 -0.0007470704149454832" pbc="T T T"
Pm      10.92248553      13.25279298       0.80363763       0.01521689       0.02886474       0.00409690
Cl      11.05511663      14.97774036       2.69137266       0.01004262       0.00310770       0.02495071
Cl      13.35756391      13.68209150      13.91735138       0.02245307       0.00569656      -0.00326794
Cl       9.29030111      14.76279764      13.30370108      -0.02405691       0.01886769       0.03491078
O       11.32528256       4.97936206       5.13123353      -0.01444728      -0.01790738       0.00838406
O       10.44509239       6.63599120       6.32239398       0.00701986      -0.00593469      -0.00632963
O        9.98465679       6.49532588       4.13171431      -0.00110802      -0.00572452      -0.00531387
C       11.62644745       4.65463842       6.51299143      -0.00560351      -0.00569463       0.00816433
C       11.32558789       5.94968631       7.24473016       0.00024400      -0.00478408      -0.00118941
C       10.54092437       6.07041824       5.10459792      -0.00769329      -0.00566450       0.00486374
H       12.66471761       4.35012726       6.58459057      -0.00387308      -0.00665411       0.00164843
H       10.97580874       3.83945553       6.82585464      -0.00494906      -0.00480625       0.01314920
H       10.80287077       5.81146965       8.18329398       0.00093150       0.00063429      -0.00269786
H       12.20945252       6.56401102       7.40645301      -0.00074258      -0.00442201       0.00205386
O        4.42673795      11.25547608       1.21680266       0.00167242      -0.00603199      -0.00356912
O        5.44226634       9.29046374       1.39023524      -0.00978753      -0.01143539      -0.00095315
O        6.66633572      11.16787241       1.20275927       0.00198060      -0.01736042       0.00482199
C        3.36055144      10.29116440       1.31973915      -0.00388873      -0.00034508      -0.00869855
C        4.06478673       8.96557887       1.08138659      -0.01046136      -0.00418538      -0.00462584
C        5.60108402      10.61933830       1.26264533      -0.00381660      -0.01294404       0.00041705
H        2.61853420      10.53098684       0.56454364       0.00170314       0.00224590      -0.01311553
H        2.92543539      10.37166928       2.31678699      -0.00864547       0.00244840      -0.01131397
H        3.74042961       8.16275192       1.73592958      -0.01728265      -0.00114930      -0.00435662
H        4.03012423       8.65040264       0.04012965      -0.00951358      -0.00556770      -0.00423640
O        7.40492195      10.96480891      11.77015175       0.00744282      -0.00033125       0.00267332
O        5.30011857      11.61263608      12.05356988       0.00663514      -0.00228491       0.00133860
O        5.82162126       9.43527688      12.18191836       0.00892097      -0.00100553       0.00427982
C        7.46621865      12.40363214      11.71751865       0.00520200      -0.00118759      -0.00935874
C        6.00069585      12.82921868      11.73099668       0.00470316      -0.00187010       0.00031973
C        6.15284487      10.57804146      12.01056512       0.00744542      -0.00154585       0.00287786
H        7.99068915      12.69721434      10.81069692      -0.00532544      -0.00726545      -0.01882938
H        8.01097405      12.75191937      12.58867692       0.01403943       0.00770089      -0.01825479
H        5.78339437      13.56479329      12.50271468       0.00825083      -0.00323051       0.00254577
H        5.64354946      13.17717003      10.76289406       0.00011370      -0.00058488       0.00262994
O        5.80117014       8.99969048       8.02223955       0.00330248       0.00000669      -0.00210993
O        5.90614997      10.81694694       9.29588226      -0.00179568      -0.00311434       0.00249377
O        7.80895329       9.76424917       8.69679724       0.00467753       0.00415930      -0.00050997
C        4.43635777       9.46247766       8.13616429       0.00178328      -0.00428301      -0.00047365
C        4.50056203      10.46195984       9.27595511      -0.00070003      -0.00804982       0.00264233
C        6.61778714       9.86053196       8.67402081      -0.00447780       0.00066986      -0.00038808
H        3.81205784       8.59868758       8.35388871       0.00398165      -0.00672650      -0.00338431
H        4.16311802       9.93694815       7.19384117       0.00024781      -0.00213009       0.00102258
H        3.91701205      11.36295034       9.10548515      -0.00427788      -0.00948283       0.00627051
H        4.25054572      10.01242907      10.23519335       0.00188980      -0.01184753       0.00162828
O        8.97020560       6.40786498      12.94146219      -0.00879918      -0.01332840       0.00372173
O        8.69422691       5.81261480      10.81226849      -0.00097898       0.00506472      -0.00186293
O       10.49683189       5.06971324      11.94923786      -0.01058972       0.00050271      -0.00170293
C        7.62044128       6.77794278      12.60007621      -0.00921068      -0.01412530       0.00356638
C        7.64944811       6.77312026      11.08962473      -0.00503166      -0.00045684       0.00383097
C        9.48342023       5.69134341      11.90130283       0.00224948      -0.00773716       0.00005797
H        7.37332824       7.74755378      13.01826076      -0.01324801      -0.02000862       0.01327059
H        6.95415195       6.01534119      13.00152577      -0.00702682      -0.02039739      -0.00550100
H        6.71868905       6.43283967      10.64796334      -0.00219792       0.00050054      -0.00137465
H        7.94070389       7.73955949      10.67240300      -0.00680338       0.00374681       0.01383111
O        9.48514385      10.88942012       0.69654920       0.00501519      -0.00151718      -0.01152885
O        8.85996974       9.90836281       2.57812006       0.01337585       0.01499519      -0.00052363
O        9.41163138      12.10235021       2.52452876       0.01253602       0.01466800      -0.02126160
C        9.27824488       9.51640537       0.29049035       0.00635817      -0.00514749       0.00227553
C        8.87448217       8.82786944       1.60080303       0.00296956       0.00791329       0.00770933
C        9.22407317      11.02250006       1.99386492       0.01151541       0.01086327      -0.01229703
H       10.21175780       9.14379752      -0.12007486       0.00786853      -0.00919834       0.00895087
H        8.49833714       9.52552038      -0.46306654       0.00857127      -0.01390583      -0.00005871
H        7.87149413       8.41248980       1.56094260      -0.00100160       0.01690716       0.01169809
H        9.59051152       8.08634354       1.94401691      -0.00197190       0.00484690       0.01213323
O        8.41153365       4.93767799       7.77379585      -0.00296052      -0.00689191      -0.00696427
O        6.43937307       4.45155886       8.68578319      -0.00090426      -0.00313684      -0.00325068
O        8.11899953       2.94245653       8.78269085       0.00077683      -0.01390493       0.00170806
C        7.63512555       6.13767705       7.62920884      -0.00164890      -0.00487667      -0.00342487
C        6.22054985       5.67657842       7.96102698      -0.00042343      -0.00419349      -0.00653087
C        7.69469261       4.00190317       8.45050347      -0.00864664       0.00996822      -0.00833946
H        7.75116890       6.50448217       6.61159770       0.00028166       0.00015470      -0.00288001
H        8.01582241       6.89247106       8.31677305      -0.00047372      -0.00721216      -0.00042751
H        5.68337916       6.36906975       8.60336522      -0.00356410      -0.00266719      -0.00866705
H        5.62514278       5.44294879       7.07770289       0.00076893      -0.00527832      -0.00761542
O        2.78066143       5.21998213      10.07087514       0.00175104      -0.00794971      -0.01476948
O        4.53232778       4.55744018      11.26512692      -0.00779903      -0.00014475       0.00278172
O        4.38367412       6.70592769      10.61515235      -0.00229901      -0.00456917      -0.01262555
C        2.47914718       3.86556973      10.48469232      -0.00174141      -0.00506583      -0.00782800
C        3.84900129       3.34316996      10.87937643      -0.00527188      -0.00252151       0.00612973
C        3.92614666       5.59727560      10.64350897      -0.00269105      -0.00449526      -0.00865177
H        2.01651606       3.35597364       9.64527504       0.00448650      -0.01073793      -0.00756899
H        1.78154033       3.91764298      11.32006400      -0.00783297       0.00098234      -0.01349431
H        3.82976465       2.67445627      11.73531770      -0.01210314       0.00373766       0.01056412
H        4.40480909       2.90276890      10.05045737       0.00128338      -0.00850041       0.01394001
O       11.51428154      13.01521660      10.62243309      -0.01724342       0.02697936      -0.01032722
O       10.87676998      10.89623532      10.59887147       0.02180506       0.01637882       0.01406193
O       10.94913479      11.99004878      12.53256870       0.00680694       0.03863959       0.00220978
C       11.65011159      12.62309208       9.22484401      -0.00352973       0.01088181      -0.00396174
C       11.02553698      11.22590576       9.19106606       0.00274441       0.00878051       0.01033133
C       11.11125182      11.98037876      11.32419549       0.00380222       0.02733099       0.00456759
H       12.71119014      12.63183410       8.97994639      -0.00119722       0.01166010       0.00691271
H       11.11362088      13.35449320       8.62524026      -0.00130290       0.00180879      -0.01658416
H       10.03688443      11.19042506       8.73831523      -0.00384194       0.00196507       0.02528264
H       11.67393133      10.47511855       8.74576048       0.00082839       0.00796139       0.00955185
O        5.23922888      10.18490163       5.03853952       0.00772478       0.00145672      -0.00087029
O        7.16156611       9.07063227       5.16842990       0.00272080      -0.00738016      -0.00733513
O        7.07984897      11.22658360       5.81402065       0.01766098      -0.00175560      -0.00666943
C        4.90390373       8.82497567       4.71146405       0.00035834       0.00373792      -0.00238124
C        6.25947438       8.16896331       4.50259742      -0.00387642      -0.00372362      -0.00341405
C        6.55009643      10.24920767       5.38365942       0.00491086      -0.01140898      -0.00900018
H        4.28050089       8.81934292       3.82692990       0.00004642       0.00808695      -0.00271803
H        4.35994763       8.37846101       5.54351802      -0.00268187       0.00571658      -0.00328654
H        6.33375105       7.18775391       4.95970995      -0.00846810      -0.00375468      -0.00160930
H        6.53731907       8.10850283       3.45238415      -0.00652951      -0.00822967      -0.00407368
O        2.61762743       4.80890630       3.34602394       0.00225335      -0.00633138      -0.00300550
O        2.87335346       5.84381937       5.29114229      -0.00724851      -0.00262263      -0.00402234
O        4.13542295       6.44859789       3.53420851      -0.01118302       0.00985998      -0.00420934
C        1.57599562       4.27599644       4.19371757       0.00861096      -0.01654220      -0.00288585
C        2.03575691       4.70375216       5.58159691       0.00118406      -0.00788839      -0.00310713
C        3.29039230       5.74401593       4.01468010      -0.00682038       0.00047165      -0.00191835
H        1.54984195       3.20114802       4.04627350       0.01937345      -0.01643920      -0.00098354
H        0.63340406       4.73446885       3.89098758       0.00337842      -0.02763531      -0.00615685
H        1.23934822       5.03068398       6.24628272      -0.00297108      -0.01262051      -0.00612870
H        2.65874606       3.95261315       6.06354096       0.00504377      -0.00198394       0.00012030
O        3.17364679      12.67593506       6.77133810       0.00008830      -0.00528567       0.00688332
O        0.97902834      12.99329003       6.59480244       0.00286789       0.01698124       0.01632550
O        1.89123028      12.64344741       8.62158304       0.01004164      -0.00466967       0.01290810
C        2.94954003      13.06956071       5.39400138      -0.00099868       0.00588411       0.01101196
C        1.45646190      12.86200435       5.23722745      -0.00366104       0.01812864       0.01263911
C        2.00433252      12.77216784       7.43716655       0.00378099       0.00269312       0.00807446
H        3.56644871      12.43950072       4.75857481      -0.00181502       0.00581443       0.01065877
H        3.24766921      14.10791036       5.27744526       0.00202933       0.00661176       0.01716015
H        0.94993726      13.59256006       4.61474666       0.00060049       0.02793992       0.01949459
H        1.19988593      11.85881390       4.89168911      -0.02032418       0.02471340       0.00506764
O       12.25636577      10.30649245       4.83539964      -0.01083470       0.00475782      -0.00003421
O       10.66831053      11.29479317       6.04436834       0.00104961       0.00232694       0.01436804
O       12.29435895      12.53999407       5.09148045      -0.01376057      -0.02817833       0.02160780
C       11.45595401       9.23106160       5.36818430      -0.01134604       0.00319660      -0.00135977
C       10.19490143       9.94203963       5.82256793      -0.00711244       0.00601036       0.00676307
C       11.77290898      11.49104841       5.31007641       0.01520595       0.03692424       0.00313871
H       11.99888622       8.77645194       6.19997460      -0.00866270       0.00011100      -0.00533214
H       11.29128128       8.50270891       4.57984518      -0.01699409       0.00748596      -0.00314862
H        9.42977602       9.97231196       5.05296541      -0.00721100       0.01717586       0.00796378
H        9.76876901       9.56540233       6.74775638      -0.00635937       0.00290339       0.00478616
O       13.56992420       5.47798711      11.34387273       0.00285368       0.00334508       0.00298601
O       12.26967344       6.78983889      10.11282285       0.00384465       0.00464574       0.00339831
O       13.24648569       4.99442126       9.17719418       0.00202340       0.00413418       0.00435615
C       13.14962784       6.50416673      12.26402837       0.00378180       0.00296888       0.00320208
C       12.31035130       7.44102196      11.39273740       0.00424138       0.00381452       0.00371438
C       13.05015272       5.68668680      10.13965293       0.00271590       0.00312901       0.00168812
H       14.04133656       6.97725434      12.66473114       0.00400370       0.00210392       0.00323880
H       12.58674122       6.03114115      13.06123840       0.00360695       0.00327551       0.00347099
H       11.28960783       7.55103473      11.75114421       0.00446671       0.00393771       0.00378563
H       12.77158989       8.41627612      11.25572766       0.00495791       0.00347245       0.00416955
O        6.57190182       4.25639325       3.67930014       0.00498110       0.00907490      -0.00789776
O        7.13913475       3.26716024       5.58667965      -0.00058579      -0.01201311      -0.01944502
O        5.00434675       3.87575697       5.24558486       0.00617182       0.00828668      -0.01377052
C        7.98365404       3.96689051       3.52598543       0.00330934       0.00810496      -0.01071101
C        8.39685742       3.51471122       4.92014982       0.00161925      -0.00235131      -0.01199213
C        6.13880201       3.80147001       4.86735041      -0.00226390       0.00269969      -0.01171711
H        8.48366580       4.88046422       3.21498386       0.00151491       0.00207686      -0.00928885
H        8.09905962       3.19368257       2.76889923       0.00055653       0.00779408      -0.01098913
H        8.99169172       2.60485963       4.93108816       0.00459729      -0.00103584      -0.01419099
H        8.90394796       4.29022641       5.48537982      -0.00431959      -0.00753176      -0.00109473
O        1.53170195       7.57707939       7.91764849       0.00087037       0.00281797       0.00022335
O        0.60663735       9.52529929       8.47808795      -0.00164174       0.00072067       0.00203009
O        1.13884305       8.04236371      10.08990953       0.00625514       0.00038594       0.00923359
C        1.23959284       8.23184273       6.67237004      -0.00479667       0.00169075       0.00115788
C        0.98312093       9.66713655       7.09929079      -0.00506992       0.00072789       0.00117210
C        1.09412336       8.34753926       8.94154004       0.00175998       0.00514503      -0.01064265
H        0.36210772       7.75994726       6.22433783      -0.00591284       0.00010283       0.00388344
H        2.09142361       8.10422032       6.01113835      -0.00712857       0.00219340      -0.00330319
H        1.88706182      10.27619820       7.05277797      -0.00589502       0.00214498      -0.00194639
H        0.18045121      10.15898522       6.55786527      -0.00732580       0.00021534       0.00243309
O        5.64658555       1.37524945       2.12272878       0.00791594      -0.00091969      -0.00401402
O        5.45553728       0.65889167       4.21587738       0.00189197      -0.02458218      -0.01025862
O        3.72560476       1.72003019       3.24937204       0.00490844      -0.01846588      -0.00261468
C        6.82525738       0.55919667       2.34373801       0.00350179      -0.00563809      -0.00851506
C        6.81716794       0.34130716       3.84848387       0.00343403      -0.01294491      -0.00944293
C        4.84262239       1.29099320       3.19724061      -0.00032198      -0.01305887      -0.00465755
H        7.69463611       1.09652296       1.97474567       0.00458017      -0.00789607      -0.00893177
H        6.70147393      -0.36670888       1.78627965      -0.00210448      -0.00297034      -0.01155949
H        7.02277531      -0.68057147       4.15305524       0.01170878      -0.01270664      -0.01583774
H        7.47930108       1.01418595       4.38957360      -0.00066271      -0.01089168      -0.00653845
O       11.79636210       9.64643948       1.99110887       0.00766175       0.00782433       0.00019889
O       13.98184989       9.24431730       1.79175126       0.00888459       0.01082948       0.01506820
O       12.52736050       7.51753085       1.92107989       0.01028693       0.00369382       0.01360118
C       12.40313797      10.92742123       1.75026309       0.00607380       0.00988418       0.00190648
C       13.87309377      10.67319065       1.98442965       0.00547564       0.01167947       0.00664945
C       12.75831799       8.68397852       1.90545149       0.01104508       0.01793998       0.01010652
H       11.99409679      11.65750641       2.46681282       0.00293364       0.00916941       0.00148302
H       12.22429379      11.16406350       0.69246431       0.00788475       0.01063775       0.00199661
H       14.49341152      11.19376157       1.26462785       0.00618654       0.00914690       0.00470513
H       14.17327086      10.90721061       3.00402940       0.00382421       0.01937561       0.00551856
O        3.12429485       5.99962265       0.56819067      -0.00974730      -0.00932592      -0.00373144
O        3.16282903       3.78598756       0.33660865       0.00124335      -0.00899130      -0.00026150
O        1.19450248       4.87737232       0.27136097       0.00066376      -0.01864213      -0.00664939
C        4.51946230       5.65014348       0.53056743      -0.00704046      -0.00270206       0.00077401
C        4.49933367       4.14258298       0.73170595      -0.00020665      -0.00254655       0.00112067
C        2.37979401       4.88340754       0.39034550      -0.00710380      -0.01300746      -0.00405945
H        5.02787812       6.17128618       1.33695936      -0.01298678      -0.00003862       0.00208160
H        4.90622192       5.94784136      -0.44203697      -0.00637515      -0.00078197       0.00204962
H        5.20224463       3.60766526       0.09753514       0.00266713       0.00091013       0.00206774
H        4.63408959       3.85304561       1.77053337      -0.00040119      -0.00171396       0.00099748
