192
Lattice="13.634500422431785 0.0 0.0 0.0 13.634500422431785 0.0 0.0 0.0 13.634500422431785" Properties=species:S:1:pos:R:3:forces:R:3 energy=-587677.625 stress="0.0012565816286951303 -0.0006192066648509353 -1.826847164920764e-05 -0.0006192066648509353 -3.9511138311354443e-05 -0.000611109018791467 -1.826847164920764e-05 -0.000611109018791467 0.00039236110751517117" pbc="T T T"
Pm      14.34128981      15.05455605       1.04349206       0.00043786      -0.00018351      -0.00378808
P       12.56366064       2.72543218       3.31193258       0.01166153       0.00656778      -0.00175685
O       13.51661113       3.22270066       4.49994374       0.00898379       0.00017727      -0.00631523
O       12.83286239       1.10274995       3.26192003      -0.00333327       0.00489405      -0.00578249
O       11.14694724       3.00603607       3.58720130       0.00305906       0.01507683      -0.00199442
O       13.25609211       3.18128820       2.03736527       0.00675922       0.00404179      -0.00716914
H       13.04746945       3.24578851       5.34430831       0.01302078       0.00300997      -0.00608122
H       11.99716600       0.63292301       3.36844647      -0.00624651       0.00963971      -0.00787521
P        5.64244866       2.09591127      11.37670594      -0.01809356      -0.00882187      -0.00436085
O        7.15480594       1.86241486      11.03045261      -0.01341915      -0.00273689       0.00152213
O        5.60931289       3.64231911      11.70688626      -0.02144338      -0.00829467       0.00231476
O        4.65757276       1.68000550      10.35624638      -0.00815588      -0.00803918      -0.00469398
O        5.48546225       1.36507945      12.76830477      -0.01746775      -0.00895865      -0.00311816
H        7.38997834       0.91271935      10.81524758      -0.01053855      -0.00160585       0.00336710
H        5.05506279       4.19025365      11.10150421      -0.01484081      -0.00818533      -0.00260846
P        3.48371430       1.40519609       1.89253358      -0.00318164      -0.00841036       0.00095533
O        2.98222805       1.03092064       0.45073093      -0.00065975      -0.00053298      -0.00150621
O        4.30880060       0.20599145       2.50378672      -0.00122905      -0.00774938      -0.00415987
O        4.27891581       2.65123032       1.96407706      -0.00128359      -0.00428605       0.00607569
O        2.09689281       1.47482198       2.65265653      -0.00190353      -0.00992383      -0.00082648
H        4.56465306       1.27284175      -0.53243568      -0.01776157      -0.00688613      -0.00169946
H        3.99149771      -0.68383700       2.22381637      -0.00253699      -0.00759567      -0.00522466
S        8.27127823       3.98584011       1.70195951      -0.00348312      -0.01384313       0.00437689
O        8.70879633       3.38536856       0.39759343      -0.00490040      -0.02027392       0.00331903
C        6.70240731       4.80074138       1.40536348      -0.00275087      -0.01370937       0.00382306
C        9.24929934       5.48037162       1.91583108      -0.00042117      -0.01585966      -0.00031701
H        5.94707604       4.02428940       1.29101573      -0.00333144      -0.01393247       0.00828302
H        6.79647099       5.39737694       0.49631638      -0.00305433      -0.01709432       0.00223242
H        6.48022532       5.42342951       2.27350496      -0.00058655      -0.01098055       0.00287646
H        8.81336558       6.06672968       2.72512283      -0.00070274      -0.01103292      -0.00363301
H        9.22817414       6.03295438       0.97463933       0.00284042      -0.02097203      -0.00269860
H       10.26352155       5.16596592       2.15487665      -0.00181292      -0.01719758       0.00443506
S       12.60358600       2.28675714       7.83787273       0.01350868       0.00190172      -0.00321025
O       11.28182461       2.58991591       8.45695620       0.01584244       0.00920391      -0.00139457
C       12.43427309       0.77487790       6.87418843       0.00213852       0.00448394      -0.00550658
C       13.64627529       1.60938840       9.14167274       0.00997898      -0.00768971      -0.00526261
H       11.62938363       0.96488531       6.16373861       0.00149073       0.01040355      -0.00327129
H       12.19632006      -0.05988295       7.53776581      -0.00110677       0.00503597      -0.00609443
H       13.36579401       0.59541833       6.33483717      -0.00032173      -0.00033866      -0.00796301
H       14.64585156       1.40588005       8.75920909       0.00826041      -0.01380669      -0.00679785
H       13.17396597       0.70401247       9.52583496       0.00428145      -0.00530499      -0.00676211
H       13.70023511       2.37197513       9.91635660       0.01641956      -0.00969930      -0.00379921
S       10.93698305       1.50583006      13.85416305       0.00148869      -0.00127292      -0.00123972
O       12.26962475       0.69074807      13.89949870       0.00145268      -0.00053811      -0.00537154
C        9.71928785       0.42487962      13.11690064       0.00126815       0.00064686      -0.00374418
C       11.13741968       2.61842733      12.46873184       0.00066872       0.00417966       0.00290513
H        9.52768101      -0.37764234      13.82509825       0.00270126      -0.00162665      -0.00584053
H       10.07340533       0.04056608      12.16232144       0.00119096       0.00352433      -0.00499764
H        8.81621500       1.02299912      12.99038185       0.00076954       0.00024986      -0.00094251
H       10.17209700       3.08980281      12.30317470       0.00140598       0.00699946       0.00683465
H       11.47387116       2.05217681      11.60093194      -0.00219070       0.00703771      -0.00007139
H       11.87757374       3.35727642      12.76739673       0.00324938       0.00117415       0.00455919
S        9.78456936       6.51351826       6.48939409      -0.00761414       0.00221777       0.01006958
O        9.62441143       7.98138959       6.73994595      -0.00238291       0.00338697       0.00833067
C       10.91084219       5.91236297       7.75549680      -0.00292891       0.00175904       0.00575656
C       10.90541261       6.34401058       5.08732676      -0.01553053      -0.00333018       0.00451684
H       10.41314928       6.08701362       8.70872870       0.00181666       0.00528938       0.00777999
H       11.83900473       6.48587706       7.70044370      -0.00162394      -0.00133997       0.00036237
H       11.08298879       4.84297224       7.62720668      -0.00623417       0.00082590       0.00751441
H       11.01775100       5.28901381       4.82783694      -0.01821227      -0.00402677       0.00622207
H       11.86633783       6.80057316       5.33024676      -0.01337774      -0.00430085      -0.00186731
H       10.42616378       6.86788738       4.26319174      -0.01953392      -0.00456033       0.00606366
S        1.37396306       9.90524789       3.50890538      -0.00805818      -0.00479329      -0.00328124
O        1.17560764      11.06460643       4.42932329      -0.01367070      -0.00293326      -0.00687873
C        0.39862361       8.54565706       4.18334228      -0.00452387      -0.00659078      -0.00142398
C        2.99122940       9.19074099       3.84335216      -0.00613201       0.00195503       0.00188419
H       -0.64515198       8.85124238       4.13958488      -0.00574261      -0.01111870      -0.00473115
H        0.69994433       8.36969208       5.21546877      -0.00540675      -0.00221320      -0.00048721
H        0.55245030       7.65048105       3.58030734       0.00070423      -0.00771469       0.00158968
H        3.13691829       8.33421777       3.18436713      -0.00048902       0.00255946       0.00221355
H        3.06004456       8.88587976       4.88788264      -0.00883254       0.00211293       0.00208867
H        3.71640097       9.96058581       3.59282458      -0.00875807       0.00505209       0.00397597
S        6.74675531      12.20394835       9.80549182      -0.00629747      -0.00311619       0.00162578
O        7.79842742      12.99570699      10.56102967      -0.00716960      -0.00220865       0.00246298
C        5.33116781      12.09291897      10.90511382      -0.00492454      -0.00888526       0.00295347
C        7.26911485      10.48879070       9.93863550      -0.00273557      -0.00253469      -0.00303458
H        4.84401545      13.06799009      10.88751048      -0.00791845      -0.01028070       0.00459133
H        5.69681609      11.86410012      11.90690539      -0.00320433      -0.00888374       0.00249057
H        4.66202784      11.33314240      10.50427219      -0.00308918      -0.01027983       0.00266330
H        6.49714953       9.88302172       9.46264109      -0.00188136      -0.00288299      -0.00368565
H        7.39666451      10.23462401      10.99190151      -0.00096312      -0.00504301      -0.00378755
H        8.21303830      10.37249932       9.41011232      -0.00294818       0.00036908      -0.00427520
S        2.86876884      11.59533197       0.23572292      -0.00645170      -0.00382227      -0.00477147
O        3.51696721      11.46345701       1.58525360      -0.00488400      -0.00682318      -0.00581479
C        1.15980398      12.20604437       0.56146518      -0.00506681      -0.00235410      -0.00126448
C        2.42916504       9.90621352      -0.19944240      -0.00933599      -0.00237709      -0.00783105
H        1.24633739      12.70160985       1.54292098      -0.00220037      -0.00032836      -0.00266145
H        0.44309865      11.39085890       0.64810895      -0.00496870      -0.00215834       0.00296913
H        0.87479867      12.88244796      -0.25509017      -0.00783794      -0.00445493      -0.00205229
H        1.90879297       9.89926950      -1.15745041      -0.01232607       0.00080942      -0.00621626
H        1.82057496       9.47670351       0.59558922      -0.00737967      -0.00357544      -0.00693446
H        3.37220959       9.37027674      -0.28299210      -0.01022486      -0.00331584      -0.01230706
S        1.75812781       3.72724978      12.07917122       0.00767323       0.00613365       0.00442708
O        0.83952585       2.75744190      12.83529619       0.00478530       0.00337049      -0.00095522
C        2.92005545       4.35123873      13.27199709      -0.00438869       0.01197302       0.01368326
C        0.73445123       5.19094658      11.92778066       0.00318459       0.00197035      -0.00498475
H        3.56071564       3.53104698      13.59046661      -0.00341482       0.01501465       0.02006695
H        2.37610760       4.74881782      14.12851538      -0.01358488       0.01156204       0.00834356
H        3.51314149       5.10892485      12.76067479      -0.00302244       0.01376730       0.01787587
H        1.32423852       5.96475062      11.43860452       0.00302327       0.00273782      -0.00410412
H        0.40872719       5.50108373      12.92016546      -0.00336838       0.00267361      -0.00702184
H       -0.12149626       4.92149694      11.31102180       0.00777985      -0.00280938      -0.00928265
S        3.64704777      10.88902222       7.19502173      -0.00061345       0.00594201      -0.00531816
O        4.20671566      10.36819572       8.49126798      -0.00218534       0.00340039      -0.00546610
C        4.45382944      12.46595228       6.87021196      -0.00194582       0.00784934       0.00037277
C        2.01870833      11.56606729       7.56352611      -0.00244182       0.00230330      -0.00660843
H        5.51577432      12.28330313       6.71379475      -0.00150956       0.00927509       0.00187979
H        4.32122210      13.12241248       7.73101210      -0.00443162       0.00575778       0.00173384
H        4.01796544      12.89624437       5.96745677      -0.00071587       0.00940894       0.00041379
H        1.61197814      11.98151233       6.64302403      -0.00219760       0.00290080      -0.00662318
H        2.11161498      12.30812829       8.35711049      -0.00519365       0.00157559      -0.00539418
H        1.37658950      10.75036183       7.88893186      -0.00124304       0.00076655      -0.00868523
S       10.50262201       7.30504504      11.78732290      -0.00340527       0.00752226       0.00328887
O        9.59816268       7.17559087      10.61259740      -0.00773293       0.00626874       0.00650775
C        9.97419184       8.78672406      12.67304962      -0.00020139       0.00848782       0.00355354
C       12.05620941       7.99296446      11.16861269      -0.00531411       0.00648212      -0.00263378
H        8.98275226       8.57511279      13.06908053       0.00121029       0.00846242       0.00779012
H        9.94122474       9.62482622      11.97547699      -0.00345655       0.00761826       0.00255804
H       10.66289302       8.97771172      13.49515784       0.00267498       0.00981582       0.00047188
H       12.73888189       8.15635619      12.00327291      -0.00270226       0.00655974      -0.00484824
H       11.85870248       8.91743478      10.62448132      -0.00688580       0.00634658      -0.00245623
H       12.46741920       7.24108702      10.49744183      -0.00787632       0.00610439      -0.00392433
S        9.78352547      11.84932614       2.83601396       0.00679454       0.00698185       0.00298452
O        9.64048471      11.44138931       4.25622102       0.00855212       0.00528258       0.00267124
C        8.47291601      11.01790968       1.90518263       0.00574231       0.00770292       0.00370854
C       11.16104627      10.88666022       2.16398757       0.00639763       0.00841191       0.00004415
H        7.53500955      11.49877797       2.17623264       0.00595088       0.00765388       0.00475927
H        8.46253636       9.96548667       2.19392702       0.00612789       0.00762981       0.00337920
H        8.64658454      11.13447093       0.83534742       0.00462487       0.00792241       0.00350362
H       11.29272755      11.12296481       1.10768425       0.00478468       0.01002093       0.00006443
H       10.96005696       9.82581953       2.32068182       0.00674537       0.00794634      -0.00131090
H       12.04595450      11.18990392       2.72358373       0.00675343       0.00780620      -0.00056402
S        5.02051617       6.71818765      10.03827763       0.00150880      -0.00801945      -0.00542855
O        4.18956373       5.50534024      10.41292877      -0.00583893      -0.00391972      -0.00763246
C        6.73445613       6.20803621       9.99732312      -0.00130010      -0.01684903      -0.00546375
C        5.11021966       7.70077729      11.54633878       0.00545165      -0.00963077      -0.00458127
H        6.85087135       5.55063195       9.13857498      -0.00411381      -0.01472291      -0.00743037
H        6.99491700       5.68563990      10.91651602      -0.00520537      -0.02065171      -0.00636953
H        7.36001387       7.09089699       9.87117593       0.00301737      -0.01918568      -0.00167681
H        5.71648299       8.58619545      11.36342721       0.01035697      -0.01281665      -0.00353093
H        5.52090004       7.09738525      12.35596906       0.00179552      -0.01247911      -0.00485279
H        4.08924656       8.00256100      11.76936067       0.00678261      -0.00428398      -0.00500344
S        7.07568009       1.61607829       6.11713244       0.00332880      -0.00033379       0.00309634
O        7.60778571       0.35649819       6.71891621       0.00620764      -0.00137770      -0.00139475
C        8.44559370       2.78435531       6.02954720       0.00183445      -0.00133473      -0.00581817
C        6.16224426       2.48437565       7.40398819       0.01117951      -0.00009301       0.00811672
H        9.09614136       2.49494970       5.20574286      -0.00247923      -0.00208899      -0.00513737
H        8.98722490       2.74788639       6.97690446       0.00745559       0.00242275      -0.00477087
H        8.04416668       3.77986416       5.83740830       0.00253127      -0.00351213      -0.00725209
H        5.78003284       3.41341779       6.97613010       0.00874877      -0.00006594       0.00995591
H        6.81340502       2.65515099       8.26112362       0.01702257      -0.00007630       0.00380342
H        5.33693988       1.84770083       7.71503058       0.01335887       0.00012049       0.01378788
S        1.56009429       7.27439360       7.67125092      -0.01982224       0.01852553       0.00584570
O        2.87499515       7.33374712       6.97931042      -0.03411925       0.02814270      -0.02127928
C        1.77099227       8.03772185       9.30283625       0.00960678       0.00803913       0.00695515
C        1.30337209       5.58038789       8.25147841       0.00034314       0.01340681      -0.00182560
H        2.37583571       8.92859296       9.13543789       0.00671606       0.00921462       0.00319588
H        2.29824161       7.35392264       9.96743941       0.01980050       0.00333166      -0.00616718
H        0.79110581       8.30655804       9.69657863       0.01641303       0.00548084       0.02522807
H        0.36527763       5.54214164       8.80714812       0.00899301       0.00366564       0.01164686
H        2.15252481       5.27521802       8.86648084       0.01071231       0.01450575      -0.01573421
H        1.22652687       4.95214938       7.36635312      -0.00858509       0.01872757      -0.00472504
S       11.08749810      10.84280835       8.16923411       0.00555491       0.00335956       0.00274397
O       12.14972136      11.71401999       8.78209814       0.00397897       0.00756562      -0.00078374
C       11.72322162      10.30846455       6.57390373       0.00507382      -0.00043325       0.00386882
C        9.78974637      11.92290272       7.54127742       0.00266510      -0.00127459       0.00073534
H       12.49939528       9.56948246       6.76685333       0.00746229       0.00235062       0.00547598
H       12.14295019      11.17319347       6.05973952       0.00175448      -0.00142574      -0.00029026
H       10.91037346       9.85758740       6.00947142       0.00539394      -0.00512420       0.00692526
H        8.99364925      11.31090909       7.11970186       0.00502995      -0.00409409       0.00029582
H       10.17042836      12.57719445       6.76234129       0.00152196      -0.00068879       0.00053498
H        9.41686478      12.51034001       8.37856849      -0.00019559      -0.00172716      -0.00021705
S        6.29763017       7.77929008       4.81365736       0.00677466       0.00442159      -0.00183430
O        7.44181910       7.08631509       4.13227723       0.01110458       0.00392973       0.00573397
C        6.88227988       9.44970618       5.17285865       0.00229239       0.00622016      -0.00243714
C        6.25156938       7.24659634       6.52990441      -0.00167037       0.00897904      -0.00042176
H        6.90782872      10.01880256       4.24725465       0.00385984       0.00547506      -0.00266930
H        7.88451041       9.36134736       5.59274309       0.00122723       0.00814630       0.00076660
H        6.19609772       9.91913056       5.87744389      -0.00062564       0.00528793      -0.00464739
H        5.42474869       7.76706781       7.01620745      -0.00780989       0.00604588      -0.00764704
H        7.21120966       7.47493650       6.99203576      -0.00613698       0.01560825       0.00565184
H        6.02499833       6.18383805       6.50589883       0.00455647       0.00765678       0.00133497
S        3.22798691       4.56467002       5.30593558       0.01036048      -0.00949848       0.01409924
O        4.68563209       4.88618062       5.40355610       0.00970221      -0.00767803       0.02116231
C        3.12432435       2.77073366       5.32151896       0.01317467      -0.00971669      -0.00239334
C        2.75119186       4.83390017       3.59316816       0.01651886       0.00433360       0.01431054
H        3.30532634       2.46423532       6.35139738       0.01009114      -0.01948282      -0.00476009
H        3.89698933       2.38272005       4.65846733       0.01592548      -0.00222013      -0.00371005
H        2.14043193       2.45372038       4.98538420       0.01479298      -0.00802229      -0.00895547
H        1.71865290       4.50875769       3.46576654       0.01671936       0.00622443       0.00638889
H        3.42061950       4.26033220       2.94774456       0.01836371       0.00849605       0.01300296
H        2.83964306       5.90621315       3.42246156       0.01808503       0.00558911       0.02345695
