193
Lattice="14.131985239777402 0.0 0.0 0.0 14.131985239777402 0.0 0.0 0.0 14.131985239777402" Properties=species:S:1:pos:R:3:forces:R:3 energy=-392489.96875 stress="-0.0004400261677801609 0.000356458273017779 3.797954923356883e-05 0.000356458273017779 0.00017208419740200043 -0.0001512424132670276 3.797954923356883e-05 -0.0001512424132670276 -0.00034705002326518297" pbc="T T T"
Pm      12.95957617      13.31646038      -2.56645972      -0.00004172      -0.00728840      -0.01244116
Cl      13.01890736      11.72040462       8.89986112       0.02156246      -0.00136542      -0.04093796
O       13.48348983      11.30940304      10.29861379      -0.04513311      -0.01425961      -0.01502782
O       14.04156982      11.38070339       7.93729458      -0.00169677      -0.00745368       0.01993006
O       12.94626174      13.23906817       9.05835071       0.03410691       0.00373483      -0.00821296
Cl       4.56844375      12.86634766       1.16156144      -0.00041234      -0.00006810      -0.00133327
O        3.46274362      11.97273127       0.76456189       0.00085092       0.00145161       0.00775886
O        4.35133918      14.30999714       0.94768071      -0.00135317       0.00240004      -0.00461499
O        0.16796099      13.48550458      -1.43120785       0.01582289      -0.01234202      -0.03210759
Cl       7.36904358      12.79794394      13.04023546      -0.00355440       0.00260746      -0.00500822
O        7.01506714      14.21207168      12.81839171      -0.00870305       0.00107837      -0.00600049
O        6.16574512      12.08074445      13.61960717      -0.00089061      -0.00105143      -0.00471461
O        8.48192816      12.70925804      14.00855094      -0.00367498       0.00725968      -0.00429308
C       11.23068563       3.20242336       3.63285840       0.00302081       0.00088018       0.00119856
C       10.21546229       3.04430849       4.75763194       0.00147682       0.00074404      -0.00015241
C       11.83452959       1.88651344       3.15792918       0.00177252       0.00068092       0.00057204
C        9.63011940       4.37184044       5.22695421       0.00160178       0.00057614      -0.00006291
C       12.85443702       2.07994048       2.04400587       0.00446707       0.00058845       0.00318861
C        8.55719715       4.21590043       6.29591223       0.00097334       0.00012486      -0.00083035
H       10.75177064       3.70067422       2.78214557       0.00468712       0.00277463       0.00133097
H       12.03394273       3.87470548       3.95743682       0.00350100      -0.00078365       0.00299279
H       10.68520366       2.53388975       5.60629202       0.00022148      -0.00006890      -0.00007841
H        9.40598005       2.38507566       4.42395564       0.00155658       0.00133058      -0.00167798
H       12.30440109       1.37672685       4.00517861      -0.00058955      -0.00122406       0.00067651
H       11.03060575       1.22691313       2.81541176       0.00146887       0.00234410      -0.00182454
H       10.44046243       5.00373544       5.60670098       0.00148296       0.00024095       0.00070703
H        9.20995874       4.90367830       4.36588078       0.00225812       0.00104944      -0.00015166
H       12.40220924       2.59244754       1.19178166       0.00677364       0.00092997       0.00211923
H       13.25934382       1.13200118       1.68816070       0.00467321       0.00039381       0.00406731
H       13.69228259       2.69261614       2.38386206       0.00418721      -0.00022963       0.00521782
H        7.71084792       3.63713541       5.91885610       0.00141087      -0.00005294      -0.00155291
H        8.94574181       3.69444043       7.17380348       0.00063315      -0.00010106      -0.00076893
H        8.17789264       5.18479128       6.62665223       0.00056098      -0.00015479      -0.00072605
C        6.67881928       3.30823434       2.73216589      -0.00109434      -0.00165695      -0.00169341
C        6.79493955       4.72645201       2.18709031      -0.00010487      -0.00145432      -0.00079419
C        5.48386504       3.10935190       3.65734899       0.00055277      -0.00082263       0.00054158
C        8.03506978       4.94004546       1.32848253      -0.00145325      -0.00283056      -0.00308667
C        5.44573066       1.72346760       4.28586819       0.00044637      -0.00098044       0.00009842
C        8.19030140       6.37050626       0.83220074       0.00038013      -0.00252622      -0.00135538
H        6.62318475       2.59326790       1.90391171      -0.00377862      -0.00084180      -0.00219843
H        7.59685921       3.06622898       3.28074090      -0.00038081      -0.00342542      -0.00381140
H        6.80842171       5.43408004       3.02363033       0.00269897      -0.00211723      -0.00034738
H        5.90127204       4.97224454       1.60070532      -0.00084683       0.00041114       0.00115964
H        5.51023669       3.86962647       4.44470837       0.00284974      -0.00111768       0.00077602
H        4.56031772       3.28308869       3.09585135      -0.00038174       0.00033497       0.00255005
H        8.91986627       4.65894790       1.90865293      -0.00092825      -0.00556454      -0.00538842
H        8.00228856       4.25363785       0.47813193      -0.00476929      -0.00154018      -0.00401169
H        5.39576672       0.95242339       3.51606235      -0.00188782      -0.00065696      -0.00012667
H        4.58129720       1.59979469       4.94001544       0.00192125      -0.00049799       0.00189497
H        6.34246725       1.53869885       4.88213929       0.00170195      -0.00218994      -0.00207322
H        7.31605796       6.68432105       0.25840577      -0.00013474       0.00002116       0.00077627
H        8.29809950       7.06806142       1.66529087       0.00324567      -0.00398857      -0.00049327
H        9.06587599       6.48266103       0.19034215      -0.00068048      -0.00322119      -0.00284609
C       12.61083697       2.96893047       9.60139753       0.00025630      -0.00307557       0.00276268
C       11.77854138       2.01179971      10.44642488      -0.00114679      -0.00126876       0.00323357
C       12.29133851       2.88499301       8.11351666      -0.00118673       0.00025174       0.00290935
C       12.19267414       1.98496087      11.91578112       0.00545099      -0.00676742       0.00100774
C       13.08960283       3.87536853       7.27686637       0.00189108      -0.00145733       0.00371678
C       11.28012367       1.13472491      12.80952526       0.00616542      -0.00364941       0.00408027
H       12.44853236       3.99394396       9.95547285       0.00390734      -0.00316799       0.00442029
H       13.67692629       2.76340137       9.75321656      -0.00035003      -0.00664980       0.00132151
H       11.86061074       1.00208512      10.01177194      -0.00790168      -0.00069351       0.00063484
H       10.71922118       2.26899129      10.36613009      -0.00008109       0.00418849       0.00897362
H       12.48317533       1.86492862       7.76558516      -0.00455388       0.00017741       0.00123999
H       11.22009502       3.06194024       7.96832490      -0.00049859       0.00412650       0.00365708
H       13.23964521       1.64416462      11.98998338       0.00397071      -0.01175514      -0.00524822
H       12.22073109       3.00648109      12.30614459       0.01264759      -0.00781426       0.00276862
H       12.88200074       4.90391600       7.58078457       0.00301220      -0.00086999       0.00247163
H       12.84905957       3.78766959       6.21647068       0.00373802      -0.00200289       0.00347403
H       14.16300353       3.70911620       7.38895657       0.00134970      -0.00299771       0.00584213
H       10.38305369       1.67999776      13.09640529       0.00413834      -0.00446655      -0.00075960
H       10.88950116       0.24742208      12.29636122       0.00939956      -0.00807404       0.00954835
H       11.77891759       0.81202236      13.72637155       0.00548573       0.00312445       0.00647302
C        8.81657817       8.39124675       7.81867193       0.00118184       0.00078844      -0.00031741
C        9.58106314       8.63178357       6.52338195       0.00208914       0.00015439       0.00011255
C        9.70662142       7.96278790       8.97851402      -0.00009882      -0.00053742       0.00023496
C        8.67716266       9.01946102       5.35945639       0.00309789       0.00095530      -0.00041543
C        8.93361487       7.75891491      10.27411241      -0.00151229      -0.00023588      -0.00059682
C        9.43619103       9.26387940       4.06265883       0.00374395      -0.00038578      -0.00023729
H        8.27605128       9.30426516       8.09505677       0.00190017       0.00130033      -0.00050052
H        8.04625558       7.62784293       7.65131330       0.00054576       0.00156179      -0.00091406
H       10.14197235       7.72740215       6.25785352       0.00107878      -0.00057346       0.00025330
H       10.33117648       9.41640367       6.68354226       0.00296639      -0.00079459       0.00054440
H       10.22801800       7.03821059       8.70765867      -0.00086319      -0.00094762       0.00022814
H       10.48798490       8.71643250       9.12590321       0.00068459      -0.00165853       0.00134952
H        7.93610808       8.22731519       5.20923265       0.00205414       0.00203812      -0.00044427
H        8.10665656       9.91467664       5.62987508       0.00417154       0.00172564      -0.00090712
H        8.42356753       8.67677800      10.57300662      -0.00099058       0.00005734      -0.00074225
H        9.58802817       7.46350635      11.09572394      -0.00239742      -0.00114156      -0.00010857
H        8.17425016       6.98260342      10.15983242      -0.00198704       0.00040179      -0.00156964
H       10.16256714      10.07041544       4.18085276       0.00459665      -0.00128117      -0.00037946
H        9.98608122       8.37055464       3.75814797       0.00274992      -0.00129177       0.00038996
H        8.76475748       9.53694739       3.24736850       0.00427501      -0.00010473      -0.00050181
C        5.01249487       6.83522123       5.09633769       0.00008480       0.00149268      -0.00022072
C        5.00336177       8.23895108       4.50354043       0.00153127       0.00220406       0.00153694
C        4.40688475       6.76179150       6.49369702       0.00143574       0.00065836       0.00027880
C        5.65507547       8.32815748       3.12815039       0.00033365       0.00282612       0.00094450
C        4.39466252       5.35218783       7.07046595      -0.00023926      -0.00002813      -0.00167388
C        5.65334150       9.73951266       2.55695067       0.00174484       0.00342369       0.00268334
H        4.47118175       6.15566439       4.42793979      -0.00163195       0.00308149      -0.00046957
H        6.04324379       6.45992035       5.13394474      -0.00049809      -0.00002047      -0.00178605
H        5.51809611       8.92443142       5.18617341       0.00311409       0.00057210       0.00184660
H        3.96981781       8.59640364       4.44147749       0.00205395       0.00377196       0.00285851
H        4.96746680       7.42483351       7.16076043       0.00318745      -0.00102670       0.00054131
H        3.38690627       7.15846049       6.46518176       0.00202602       0.00231119       0.00187227
H        6.68391131       7.96072391       3.19861723      -0.00015646       0.00111011      -0.00054793
H        5.14335633       7.64862940       2.43807882      -0.00146487       0.00443839       0.00075223
H        3.82267509       4.67210020       6.43544246      -0.00238755       0.00191224      -0.00181341
H        3.95147888       5.32946843       8.06755862       0.00113430      -0.00072165      -0.00107083
H        5.40784649       4.95090169       7.14894142      -0.00091609      -0.00196752      -0.00371963
H        4.63304653      10.10289430       2.42060694       0.00218520       0.00494603       0.00404072
H        6.16222185      10.43416537       3.22969527       0.00325262       0.00195617       0.00308450
H        6.14892358       9.79769301       1.58660389       0.00090466       0.00392624       0.00228703
C        8.94057955      12.11920202       9.83575366       0.00150219      -0.00155312       0.00049280
C        9.94280520      12.24972436      10.97166364       0.00135518      -0.00054121       0.00025845
C        8.59680023      13.47275608       9.21997104       0.00366755      -0.00159544      -0.00053062
C       10.23761150      10.97240911      11.74718530      -0.00114545       0.00166762       0.00435363
C        7.51289441      13.38501043       8.15545289       0.00535172      -0.00035403      -0.00207692
C       11.30002655      11.17031780      12.82880875      -0.00756675       0.00442808       0.00993699
H        9.33307060      11.44636101       9.06324830      -0.00010206      -0.00343411       0.00148903
H        8.02654398      11.65309407      10.21983786       0.00096169       0.00106765       0.00177789
H        9.56865365      12.99460664      11.67936096       0.00228833       0.00248104      -0.00248006
H       10.87435555      12.67648277      10.55119535       0.00254957      -0.00356354      -0.00091269
H        8.26395203      14.14349846      10.01903203       0.00327866      -0.00138544      -0.00098023
H        9.50574764      13.91532444       8.79633633       0.00494775      -0.00231090       0.00133206
H        9.30907800      10.63966368      12.21550963      -0.00340411       0.00245371       0.00027336
H       10.55302675      10.17950840      11.06290565       0.00317322       0.00047377       0.00816871
H        7.79215212      12.69185063       7.35814294       0.00659063       0.00056866      -0.00274281
H        7.31646238      14.35571027       7.69753710       0.00585960       0.00032714      -0.00091997
H        6.57820213      13.02931333       8.59147402       0.00494736      -0.00110729      -0.00379154
H       12.31792070      11.11914132      12.41788182      -0.00439516       0.00448830       0.01755457
H       11.14651543      12.11434368      13.36739803      -0.01120743       0.00452405       0.00793251
H       11.26413181      10.38089598      13.58034026      -0.01215189       0.00562933       0.01077341
C        1.54475561      10.41622492       3.90475687       0.00235552       0.00218496      -0.00194672
C        0.94011499       9.99235331       2.57352849      -0.00177583      -0.00013188       0.00078914
C        1.11825630      11.80898256       4.35456878       0.00292060       0.00253099      -0.00271513
C        1.36779667       8.59985445       2.12340323      -0.00247964      -0.00030372       0.00047633
C        1.87163520      12.26899048       5.59410457       0.00846723       0.00615431      -0.00747371
C        0.83450632       8.24170709       0.74250621      -0.00511222      -0.00065954       0.00162575
H        1.28586137       9.68989004       4.68473705       0.00579348       0.00308214       0.00004065
H        2.63730625      10.39358317       3.81949389       0.00200674       0.00290778      -0.00598123
H        1.23597953      10.71798456       1.81088070      -0.00414422      -0.00100622      -0.00063798
H       -0.15387444      10.03602274       2.63391443      -0.00150472      -0.00042593       0.00393260
H        1.28109643      12.51479054       3.53384406      -0.00176875       0.00103483      -0.00489032
H        0.04135504      11.81029911       4.55346909       0.00409567       0.00183024       0.00223462
H        2.46221189       8.54764023       2.11528219      -0.00251207      -0.00000601      -0.00176113
H        1.03316372       7.85879771       2.85730673      -0.00088446      -0.00010383       0.00124726
H        1.73374579      11.56486835       6.41294888       0.01239398       0.00817758      -0.00527000
H        1.52289227      13.24050105       5.94668251       0.00999844       0.00702216      -0.00865004
H        2.94214301      12.34549265       5.39141387       0.00745428       0.00598161      -0.01272810
H       -0.25661393       8.28495843       0.72061566      -0.00517914      -0.00161847       0.00385967
H        1.20494370       8.94388507      -0.00670592      -0.00727153      -0.00025302       0.00089704
H        1.13409109       7.23823867       0.43533144      -0.00492834      -0.00030120       0.00081549
C        6.05787557       3.48407457      11.94845541      -0.00585762      -0.00305951      -0.00137064
C        4.81049071       4.34927887      11.84168429      -0.00620464      -0.00348312      -0.00053196
C        7.33866907       4.26604449      11.69012052      -0.00635397      -0.00276697      -0.00230633
C        3.51248067       3.56830604      12.00234748      -0.00584296      -0.00369209       0.00114910
C        8.58245167       3.40972118      11.85996677      -0.00576416      -0.00231054      -0.00415096
C        2.27841569       4.45620574      11.91653944      -0.00610372      -0.00406963       0.00172617
H        6.10368615       3.01792074      12.93866819      -0.00503946      -0.00292303      -0.00130358
H        5.99429323       2.64998301      11.24174496      -0.00595500      -0.00325125      -0.00117692
H        4.80589117       4.86195414      10.87103198      -0.00737344      -0.00415932      -0.00090998
H        4.85371226       5.14196905      12.59913709      -0.00566592      -0.00299634      -0.00119317
H        7.30959947       4.68019028      10.67622252      -0.00763866      -0.00219499      -0.00215307
H        7.38545948       5.12713703      12.36617563      -0.00585461      -0.00291640      -0.00210398
H        3.46673094       2.79255151      11.23172220      -0.00641653      -0.00422782       0.00193512
H        3.52717176       3.03690067      12.95804065      -0.00487238      -0.00291936       0.00164202
H        8.61941644       2.98127753      12.86267175      -0.00406123      -0.00304317      -0.00452831
H        9.49882942       3.98213992      11.69723077      -0.00649875      -0.00173038      -0.00556091
H        8.57237392       2.56845618      11.16424813      -0.00647009      -0.00219730      -0.00434279
H        2.29284347       5.22406624      12.69331980      -0.00573051      -0.00359580       0.00119765
H        2.23252712       4.97237704      10.95463086      -0.00691330      -0.00463220       0.00136645
H        1.35714357       3.88262918      12.03221802      -0.00580932      -0.00421233       0.00262356
C        4.74350056       9.21966519      11.40865810      -0.00124961       0.00357240       0.00201190
C        4.30963143       9.44097945       9.96602269      -0.00335544       0.00477743       0.00287724
C        3.87714292       8.19992294      12.13716179      -0.00112960       0.00439212       0.00319083
C        5.17586010      10.45015328       9.22322368      -0.00207692       0.00231522       0.00119945
C        4.28694233       8.01834498      13.59089539      -0.00011989       0.00524643       0.00299191
C        4.68654888      10.71232910       7.80607012      -0.00464286       0.00419736       0.00244322
H        5.78797505       8.88422537      11.42941990      -0.00156739       0.00245091       0.00038357
H        4.72543487      10.17076956      11.95104573       0.00075835       0.00339401       0.00230120
H        3.26754179       9.77913326       9.94657859      -0.00236797       0.00765504       0.00489216
H        4.32638475       8.48499214       9.42692307      -0.00731720       0.00475600       0.00281247
H        2.83025619       8.51579056      12.08583935      -0.00101796       0.00489873       0.00379108
H        3.93027084       7.24129359      11.61119374      -0.00195610       0.00397894       0.00388099
H        5.19442128      11.38586440       9.79126974       0.00189030       0.00220650       0.00129563
H        6.21027926      10.08980014       9.20209361      -0.00332269      -0.00075671      -0.00124004
H        5.33492985       7.71774353      13.66359108       0.00023574       0.00638020       0.00253327
H        3.68561130       7.25845985      14.09411165       0.00091159       0.00502497       0.00371131
H        4.17928710       8.95399378      14.14261314      -0.00056439       0.00550920       0.00260787
H        4.64778485       9.78692225       7.22817215      -0.00924566       0.00443675       0.00246116
H        3.67957629      11.13076391       7.81491595      -0.00324652       0.00735746       0.00487261
H        5.33322127      11.41038609       7.27202338      -0.00366840       0.00209098       0.00095894
