187
Lattice="14.023747923350395 0.0 0.0 0.0 14.023747923350395 0.0 0.0 0.0 14.023747923350395" Properties=species:S:1:pos:R:3:forces:R:3 energy=-360767.53125 stress="0.0003558149910531938 -8.950731717050076e-05 -5.1951294153695926e-05 -8.950731717050076e-05 -0.0002625877386890352 -0.0006020152941346169 -5.1951294153695926e-05 -0.0006020152941346169 9.4680130132474e-05" pbc="T T T"
Pm      16.41640645      13.68201491      -0.93927258       0.00261971      -0.00893870       0.00670243
O        3.98160661      12.56834636      12.53379938      -0.01125315      -0.00650644       0.00582443
H        4.64652567      11.90620020      12.32995255      -0.02608949      -0.02597028      -0.02976699
O       14.68066261      12.78065369      12.52016981       0.00513011      -0.00526267       0.00398332
H       13.81683302      12.55324557      12.16569791       0.00991231      -0.02420053      -0.00493461
O       10.90963099      14.77324577       8.05734276      -0.03064632       0.00371172      -0.01468177
H        9.94881782      14.82897631       8.06918940      -0.02984369       0.01036274       0.00742359
O        9.56815569      12.10668654       0.90898308       0.00016937       0.00430021      -0.00258106
C       10.98139199      12.16092432       0.91325214       0.00000456       0.00573236      -0.00083898
C        9.09062992      10.77839745       0.88752950       0.00016308       0.00423741      -0.00121163
C       11.40433475      13.60861696       0.91578537      -0.00253819       0.00651437       0.00046618
C        7.58497515      10.80049479       0.97879949      -0.00039351       0.00579133      -0.00814798
H       11.37038611      11.63817552       1.80081751      -0.00019765       0.00580968      -0.00069895
H       11.37689171      11.63799340       0.02769749       0.00171021       0.00678000      -0.00071982
H        9.41942156      10.27888402      -0.03752467       0.00394261       0.00181715       0.00146180
H        9.51767289      10.21549289       1.73075998      -0.00364786       0.00618258       0.00201607
H       12.49180293      13.67927238       0.94600101      -0.00275518       0.00889710       0.00255061
H       11.04453597      14.11436508       0.01898219      -0.00187372       0.00610095      -0.00003590
H       11.00128208      14.12028878       1.78948530      -0.00540603       0.00531594      -0.00023627
H        7.18649793       9.78616614       0.91981387      -0.00099020       0.00592871      -0.00624888
H        7.26649748      11.24171531       1.92400729      -0.00408753       0.00933471      -0.01094736
H        7.16523127      11.39045147       0.16281962       0.00380616       0.00361852      -0.01180986
O        5.94082974       9.76825911       6.46170010      -0.00209929       0.00335020       0.00041699
C        7.35346299       9.90695604       6.47025423      -0.00184894       0.00032014      -0.00207628
C        5.28790507      11.02135544       6.55605682       0.00063074       0.00481142      -0.00022384
C        7.97821760       8.54591317       6.64196961      -0.00455160      -0.00125426      -0.00454760
C        3.79493595      10.80446750       6.59616221       0.00013787       0.00783612      -0.00165641
H        7.68625717      10.38223632       5.53457039      -0.00274219       0.00017448      -0.00250047
H        7.65312928      10.57115298       7.29171124       0.00116033      -0.00075704      -0.00215775
H        5.62465146      11.53508131       7.46553483       0.00117980       0.00440294      -0.00016657
H        5.56900718      11.65887433       5.70313074       0.00269155       0.00388542      -0.00031462
H        9.06548024       8.62501240       6.67888706      -0.00435524      -0.00382347      -0.00607611
H        7.63657611       8.08793342       7.57041088      -0.00415064      -0.00166491      -0.00453155
H        7.71144269       7.88434176       5.81917564      -0.00741898       0.00041895      -0.00494781
H        3.28564783      11.74354656       6.81699174       0.00156200       0.00876406      -0.00282448
H        3.42262906      10.43298847       5.64295813       0.00057236       0.00762885      -0.00184204
H        3.54362930      10.08189797       7.37364002      -0.00201361       0.00881903      -0.00137638
O       13.02569331       3.70745173       4.53179220      -0.00533708      -0.00231946       0.00538766
C       12.98278206       4.63111470       3.46633385      -0.00710879      -0.00294602       0.00489412
C       12.95925001       2.36344479       4.08347204      -0.00589795      -0.00280249       0.00695473
C       13.00713655       6.02213996       4.05200618      -0.00567455      -0.00273520       0.00435409
C       13.06096157       1.43250291       5.26621014      -0.00850925      -0.00076482       0.00877839
H       13.84471069       4.46873776       2.79548833      -0.00804454      -0.00367504       0.00367814
H       12.07051553       4.48204778       2.86932219      -0.00809753      -0.00281984       0.00642261
H       12.01651126       2.20999181       3.53624696      -0.00531906      -0.00274198       0.00625530
H       13.78004609       2.18263163       3.36829306      -0.00525171      -0.00497193       0.00806758
H       13.00059966       6.77881836       3.26688000      -0.00699260      -0.00298153       0.00406592
H       12.13065524       6.17129093       4.68107443      -0.00451952      -0.00229156       0.00602704
H       13.90031502       6.16416676       4.66174948      -0.00459962      -0.00277334       0.00270195
H       13.02837667       0.39667829       4.92438481      -0.01052815      -0.00136276       0.01079412
H       14.00491859       1.59069002       5.78977534      -0.00872260      -0.00088796       0.00929164
H       12.24555256       1.57069642       5.98000512      -0.00972128       0.00131752       0.00693765
O        7.17977448       3.18592800       5.42924072       0.00151715      -0.00397575       0.00104105
C        7.94648182       1.99056491       5.36225587       0.00273293      -0.00373049       0.00679025
C        5.99079167       3.01080856       6.16983652       0.00138697      -0.00194722       0.00123399
C        9.23286994       2.26524684       4.62639026       0.00293726      -0.00592770       0.00657263
C        5.26518709       4.33217327       6.25560524       0.00011052      -0.00230008      -0.00454827
H        8.16082628       1.63170482       6.37891275       0.00284687       0.00082552       0.00826919
H        7.35939282       1.21150713       4.85230682       0.00358686      -0.00638193       0.00977358
H        5.35775800       2.25070833       5.68615629       0.00227025      -0.00462151       0.00422364
H        6.23374612       2.63710991       7.17654988       0.00127944       0.00240989       0.00288534
H        9.82360896       1.35064316       4.57410748       0.00343563      -0.00588858       0.01126512
H        9.03289598       2.62228933       3.61501991       0.00359613      -0.00996882       0.00502065
H        9.82705187       3.01278083       5.15219453       0.00227312      -0.00375482       0.00435740
H        4.33516579       4.21816316       6.81408296       0.00008911      -0.00069256      -0.00415476
H        5.87949205       5.07643749       6.76272936      -0.00061400       0.00045002      -0.00762110
H        5.02623666       4.70389768       5.25911215      -0.00008492      -0.00676303      -0.00612439
O        3.38938564       1.86020369      12.67695958       0.00122276      -0.00562149      -0.00028987
C        2.37955562       2.78610168      12.23563367       0.00084940      -0.00558108      -0.00025129
C        4.73492858       2.35665833      12.48412441       0.00062223      -0.00499046      -0.00184622
C        1.04516108       2.10371942      12.40256694       0.00120535      -0.00576948       0.00171953
C        5.69500944       1.49945861      13.26273747       0.00221318      -0.00379263      -0.00221525
H        2.45260980       3.69305377      12.83988880       0.00191408      -0.00493596      -0.00113533
H        2.56581721       3.05360013      11.19165382       0.00010587      -0.00628715      -0.00079274
H        4.94766847       2.34008027      11.41135695      -0.00036674      -0.00537005      -0.00211129
H        4.74999563       3.39758163      12.81973630       0.00033225      -0.00472796      -0.00235607
H        0.22726095       2.78464300      12.16592032       0.00075975      -0.00687470       0.00027633
H        0.92906507       1.24335350      11.72766203       0.00168100      -0.00734843       0.00394441
H        0.88668652       1.78138538      13.44516049       0.00189640      -0.00329657       0.00238767
H        6.71919783       1.78102703      13.01850761       0.00155151       0.00041061      -0.00057557
H        5.55248680       1.62591170      14.33766768       0.00011192      -0.00607472      -0.00220104
H        5.56742806       0.44803925      13.00435929       0.00614794      -0.00402440      -0.00378505
O        9.85383489       6.40460931       2.19467698       0.00457518      -0.00328043      -0.00628800
C       10.41055611       7.39562852       1.35677197       0.00476193      -0.00329787      -0.00617510
C        8.77981266       6.91357052       2.97038295       0.00335613      -0.00424302      -0.00731924
C       11.54112589       6.80195127       0.55238309       0.00632781      -0.00357181      -0.00385682
C        8.21322169       5.80028024       3.81183101       0.00478916      -0.00442034      -0.00665084
H        9.63025059       7.79423832       0.68951635       0.00544706      -0.00440972      -0.00767198
H       10.77198380       8.23793227       1.96666504       0.00325480      -0.00251678      -0.00638440
H        9.14183013       7.74035878       3.60115877       0.00182453      -0.00317484      -0.00775105
H        8.01116849       7.33054411       2.29983084       0.00312674      -0.00594074      -0.00803509
H       11.93152941       7.54314921      -0.14672277       0.00779184      -0.00392202      -0.00348134
H       12.35395049       6.47825770       1.20061615       0.00505112      -0.00327925      -0.00203736
H       11.19558594       5.94035268      -0.01557383       0.00749832      -0.00385720      -0.00404763
H        7.35837163       6.15129453       4.39051577       0.00407235      -0.00516856      -0.00715920
H        7.87470983       4.97414888       3.18798668       0.00624482      -0.00552094      -0.00594601
H        8.95803758       5.41686124       4.50814915       0.00513017      -0.00267724      -0.00598061
O        9.42874338       3.99268790      11.66952538      -0.00048336      -0.00093773       0.00077447
C       10.83100682       3.78660101      11.75714392      -0.00091010      -0.00336730       0.00130850
C        8.98457929       5.02618189      12.52267390       0.00130814       0.00070161      -0.00023961
C       11.23492994       2.74371296      10.74698262      -0.00300710      -0.00556505       0.00273702
C        7.49677083       5.19758013      12.34449435       0.00146794       0.00261389      -0.00016908
H       11.34963165       4.74253267      11.57098736       0.00090440      -0.00454718       0.00013220
H       11.08735182       3.47281754      12.78223318      -0.00165222      -0.00260860       0.00165486
H        9.22040790       4.78549034      13.57035633       0.00124155       0.00154795       0.00002569
H        9.50912321       5.96358472      12.27725387       0.00269514      -0.00043154      -0.00150178
H       12.30202236       2.52714175      10.82269336      -0.00299785      -0.00646042       0.00282598
H       10.68917371       1.81597976      10.90551684      -0.00464898      -0.00410882       0.00533535
H       11.03715350       3.05566106       9.72271761      -0.00302740      -0.00703076       0.00234887
H        7.12951606       5.99232008      12.99383387       0.00272076       0.00425942      -0.00152111
H        7.25708013       5.44857785      11.31063393       0.00175698       0.00125428      -0.00062853
H        6.98009101       4.27371339      12.60499537       0.00008666       0.00390199       0.00142717
O       10.60559636       6.12487658       7.83306327       0.00092620       0.00325218      -0.00101900
C       11.46043713       7.09491597       8.39499958      -0.00196153       0.00474328       0.00077522
C        9.58100272       5.73289540       8.73347696       0.00160128      -0.00084323      -0.00190982
C       12.55417522       7.40554609       7.40366846      -0.00177720       0.00862878       0.00213522
C        8.78287138       4.61792693       8.10842196       0.00401452      -0.00149909      -0.00386077
H       10.88876417       8.00245882       8.64503881      -0.00433442       0.00312904       0.00138362
H       11.88598357       6.71468786       9.33801262      -0.00184956       0.00468570       0.00071788
H       10.02571834       5.40225912       9.68026732       0.00231150      -0.00159830      -0.00241029
H        8.94112890       6.60091895       8.95971677      -0.00021273      -0.00260714      -0.00030007
H       13.22937450       8.16231775       7.80339845      -0.00408020       0.00987370       0.00362752
H       13.12513616       6.50541517       7.17510762       0.00069812       0.01029471       0.00174343
H       12.12932700       7.78134045       6.47302895      -0.00170688       0.00851995       0.00203712
H        7.97951238       4.31629393       8.78221989       0.00478360      -0.00433437      -0.00408360
H        8.34937202       4.93106398       7.15895621       0.00290862      -0.00080308      -0.00308566
H        9.41601278       3.74790687       7.92431435       0.00563204      -0.00000545      -0.00548664
O        2.62978838       7.42066865       0.61050522      -0.00067018       0.00147390      -0.00244405
C        1.22108146       7.57706340       0.65643245      -0.00062019       0.00151557      -0.00240523
C        3.01129500       6.07021829       0.75169337      -0.00051188       0.00149047      -0.00265463
C        0.89342586       9.04675741       0.57683183      -0.00010356       0.00165701      -0.00172169
C        4.51575754       5.97890092       0.68832559      -0.00062239       0.00173433      -0.00449819
H        0.76239369       7.01927730      -0.17505689      -0.00068349       0.00208324      -0.00275499
H        0.83660421       7.14318075       1.59254386      -0.00087181       0.00098059      -0.00273481
H        2.63121794       5.66717142       1.70374125       0.00063510       0.00171652      -0.00210604
H        2.55161247       5.47798009      -0.05608961      -0.00145482       0.00124408      -0.00200373
H       -0.18624886       9.19671434       0.62266088      -0.00002041       0.00218161      -0.00210039
H        1.36170961       9.57439543       1.40759011      -0.00021251       0.00108416      -0.00118463
H        1.26146544       9.46869476      -0.35990394       0.00067713       0.00195606      -0.00126204
H        4.84323397       4.94315031       0.79504666      -0.00023333       0.00196189      -0.00320677
H        4.87562700       6.36702403      -0.26467752      -0.00184472       0.00025737      -0.00556244
H        4.96757437       6.55869992       1.49400619       0.00025034       0.00314346      -0.00599401
O        8.31895322      12.97293929      10.20444643       0.00743304       0.00427279       0.00431377
C        7.24735524      12.66102907       9.34505395       0.00763160       0.00838834       0.00265887
C        9.48802550      12.23272996       9.87028932       0.00693876       0.00429115       0.00249925
C        6.04899311      13.49573026       9.73068276       0.01032966       0.01292604       0.00163402
C       10.60785839      12.65307617      10.79070227       0.00780642       0.00323391       0.00197011
H        7.53436161      12.85493177       8.29994589       0.00991371       0.00762179       0.00317127
H        7.00555634      11.58672666       9.42034554       0.00352526       0.00919253       0.00212425
H        9.26925451      11.15661446       9.96585425       0.00690237       0.00424069       0.00170009
H        9.77595967      12.44485257       8.83101041       0.00623797       0.00608653       0.00265509
H        5.19159743      13.25577848       9.09823016       0.00959724       0.01497239       0.00178327
H        5.77107072      13.30689431      10.76761997       0.01029425       0.01594397       0.00203741
H        6.27801707      14.55645599       9.62196857       0.01407143       0.01215331      -0.00073916
H       11.46116584      11.98485130      10.65512741       0.00605552       0.00058443       0.00378133
H       10.92497218      13.66173296      10.52446612       0.01033394       0.00201494       0.00050655
H       10.28006346      12.61576514      11.83172722       0.00749147       0.00637405       0.00189216
O        3.43171338      10.37460067       2.62009743      -0.00297904       0.00248450       0.00943530
C        3.99851856      11.46140095       1.93121864      -0.00367188       0.00420403       0.01126945
C        4.42029991       9.42662042       3.02048496      -0.00229934      -0.00064778       0.00103676
C        2.87451800      12.41030329       1.55123425      -0.00359103       0.00731001       0.01844677
C        3.74157834       8.26714495       3.70398746      -0.00067934      -0.00203514       0.00044626
H        4.72578587      11.98404348       2.57062861      -0.00123942       0.00087862       0.01125446
H        4.53215096      11.11948318       1.03298202      -0.00772907       0.00753935       0.00818264
H        4.96831089       9.08390734       2.13167637      -0.00742993       0.00174040      -0.00288564
H        5.13985304       9.91409760       3.69445824       0.00175631      -0.00432479      -0.00068170
H        3.31997314      13.37131876       1.23280663      -0.00369909       0.00605544       0.01400330
H        2.24904714      11.96184049       0.75989427      -0.01074159       0.00846859       0.02305638
H        2.23638061      12.60941661       2.41257108       0.00268401       0.01091446       0.02215131
H        4.49153361       7.56102633       4.06329221       0.00007905      -0.00418461      -0.00528709
H        3.16328216       8.60247507       4.56362335       0.00382396      -0.00394100       0.00409153
H        3.07681550       7.76082095       3.00573313      -0.00435056       0.00073443       0.00194773
O        2.62230561       7.93815045      10.53125792      -0.00006971      -0.00261334       0.00268303
C        2.70012261       9.35148273      10.51390399       0.00355494      -0.00290641      -0.00630730
C        1.31732457       7.47231097      10.25479239      -0.00096068      -0.00129420       0.00445535
C        4.14536933       9.75494466      10.67229666       0.00540185      -0.00569282      -0.01516736
C        1.33950402       5.96308805      10.25734347      -0.00412934      -0.00132614       0.00645301
H        2.29483313       9.73323730       9.56445271       0.00115643      -0.00813144      -0.00744802
H        2.08309683       9.77421045      11.32116599       0.00776103       0.00410596      -0.00684720
H        0.61029193       7.85393108      11.00840208      -0.00012633       0.00118442       0.00393030
H        0.98891349       7.85223114       9.27681923      -0.00084518      -0.00247872       0.00371242
H        4.23141636      10.83984381      10.60399078       0.01183040      -0.00787991      -0.03600480
H        4.53078577       9.42214050      11.63836155       0.00641590       0.00913629      -0.01031317
H        4.75517724       9.31264529       9.88402595       0.00185372      -0.02217244      -0.00852746
H        0.34961921       5.56337751      10.03127677      -0.00499241       0.00075982       0.00645042
H        2.04390374       5.59589973       9.51012080      -0.00486189      -0.00392830       0.00706659
H        1.65283087       5.60186468      11.23839045      -0.00563506      -0.00127447       0.00694537
