187
Lattice="14.125986897742447 0.0 0.0 0.0 14.125986897742447 0.0 0.0 0.0 14.125986897742447" Properties=species:S:1:pos:R:3:forces:R:3 energy=-342500.78125 stress="-0.0003744010755326599 -3.616320009314222e-05 0.00011105731391580775 -3.616320009314222e-05 2.1788444428239018e-05 -8.219662777264602e-05 0.00011105731391580775 -8.219662777264602e-05 -0.0004059331549797207" pbc="T T T"
Pm      14.33173183      13.70054341       2.11833965      -0.00409187       0.00233340      -0.00045076
O        6.29650308      13.29042808       8.78368033      -0.00346601      -0.00940984       0.00147232
H        7.03928338      12.81983065       9.18895272       0.00304538       0.00015253       0.00044569
O        6.50715571      12.96823709       7.38584659      -0.00174022      -0.00701779       0.00120863
H        5.76262186      12.37445178       7.22162061       0.00812119      -0.01993129       0.00348696
O        1.12811683      13.05245561       3.75340045      -0.03353406      -0.00072961      -0.00697060
H        1.56272695      12.70282305       4.53809399      -0.04063344      -0.02396622       0.01638210
C       10.34346986       1.42443105      11.77321792       0.00018430       0.00120771       0.00067749
C        9.30275235       2.47896235      11.42303868       0.00059788       0.00065929      -0.00251153
C       11.74694618       1.98003159      11.97380380       0.00052468       0.00101137      -0.00077844
C        7.91723409       1.88538887      11.20039119       0.00051050       0.00040692      -0.00145416
C       12.73771505       0.90528768      12.39859943      -0.00057369       0.00231588       0.00567031
C        6.85393619       2.93200761      10.90426377       0.00025746      -0.00008941      -0.00227605
H       10.02848045       0.90462421      12.68734247      -0.00017849       0.00409417       0.00210890
H       10.36800531       0.66271568      10.98545484      -0.00012819      -0.00115058       0.00292823
H        9.61693504       3.02128825      10.52377593       0.00098111      -0.00155605      -0.00372848
H        9.25512459       3.22417593      12.22660745       0.00047372       0.00263695      -0.00445613
H       12.08897612       2.45204293      11.04750599       0.00184551      -0.00403884      -0.00290030
H       11.72194816       2.77185463      12.72913918       0.00050289       0.00491662      -0.00496235
H        7.96399084       1.16705611      10.37487722       0.00031496      -0.00057556      -0.00064933
H        7.62659815       1.31268232      12.08819329       0.00082047       0.00139889      -0.00075403
H       12.41446764       0.46049704      13.34953321      -0.00161575       0.00803932       0.00809737
H       13.74306112       1.30559254      12.53563598      -0.00031608       0.00221040       0.00386679
H       12.79447942       0.09809203      11.66453190      -0.00104050      -0.00163208       0.01006225
H        6.76387673       3.64694711      11.72549400       0.00009342       0.00042947      -0.00284798
H        7.09688552       3.49568270      10.00033597       0.00000876      -0.00073039      -0.00271091
H        5.87673658       2.47078904      10.75558396       0.00034699      -0.00046700      -0.00190529
C       11.23334547       9.09616205       8.35344437       0.00301319       0.00052854       0.00056913
C       11.04800953      10.52317299       8.85492884       0.00045636      -0.00000778       0.00090569
C       12.46492841       8.41530864       8.93969814       0.00194475       0.00104427       0.00338119
C        9.87569748      11.25691096       8.21378526       0.00275341      -0.00009885      -0.00323015
C       12.67866784       7.00039864       8.41974964       0.00423095       0.00155139       0.00306250
C        9.74433054      12.69204428       8.70906851       0.00011119      -0.00035384      -0.00314267
H       10.33937403       8.50561000       8.58810474       0.00279745      -0.00039025      -0.00224505
H       11.31151151       9.10342421       7.25912380       0.00591604       0.00121522       0.00081044
H       11.96644082      11.09231284       8.66551438       0.00099114       0.00046147       0.00512041
H       10.92175146      10.51388799       9.94415270      -0.00392866      -0.00089544       0.00042874
H       13.34441840       9.02582816       8.71027295       0.00202242       0.00183205       0.00600300
H       12.38495355       8.40089302      10.03165634      -0.00084379       0.00033144       0.00310385
H       10.00086962      11.25474973       7.12591867       0.00702433       0.00052547      -0.00270399
H        8.94814918      10.70541806       8.40969539       0.00218070      -0.00043470      -0.00717355
H       11.84092055       6.35193100       8.68567050       0.00444028       0.00061578       0.00108612
H       13.58666598       6.55316638       8.82845829       0.00391543       0.00223474       0.00444739
H       12.76235877       6.99199696       7.33031061       0.00626200       0.00225354       0.00314334
H        9.52883796      12.72008895       9.78146247      -0.00238106      -0.00092051      -0.00363831
H       10.67693714      13.24112370       8.55868257      -0.00003196       0.00053177      -0.00074112
H        8.96079416      13.23515134       8.17861469       0.00080068      -0.00116872      -0.00495119
C        1.55178073       9.73710806       6.78878532      -0.00021946       0.00361499      -0.00265864
C        1.08239552       9.45753092       5.36690950      -0.00140968       0.00246501      -0.00206834
C        1.05615660      11.06284199       7.35250042       0.00007498       0.00417277      -0.00354710
C        1.55015628       8.10928974       4.82886101      -0.00116947       0.00240815      -0.00161791
C        1.50230763      11.29904461       8.78914897      -0.00046690       0.00458545      -0.00345811
C        1.09498673       7.84928784       3.39921856      -0.00349917       0.00132759      -0.00067124
H        1.21628108       8.92337076       7.44283257       0.00039919       0.00422780      -0.00177595
H        2.64722604       9.71489328       6.82261782      -0.00017589       0.00383742      -0.00364424
H        1.44225146      10.25208399       4.69910182      -0.00271754       0.00187907      -0.00320600
H       -0.01344462       9.50389768       5.33120808      -0.00156268       0.00157096      -0.00077566
H        1.41822795      11.88711785       6.72278009       0.00087380       0.00369903      -0.00313476
H       -0.03698029      11.09516865       7.29142602      -0.00004873       0.00419694      -0.00382610
H        2.64220930       8.06140591       4.88133865      -0.00097093       0.00358639      -0.00346895
H        1.18165988       7.31489455       5.48653262       0.00078543       0.00258814      -0.00045060
H        1.13113787      10.50885588       9.44528253       0.00049980       0.00433375      -0.00352450
H        1.13795901      12.25181010       9.17532551      -0.00164365       0.00433236      -0.00369172
H        2.59233065      11.30198818       8.86472401      -0.00048062       0.00615658      -0.00355214
H        0.00460436       7.86097778       3.32651455      -0.00367256      -0.00029632       0.00155518
H        1.48303107       8.61479564       2.72240846      -0.00609319       0.00187574      -0.00148767
H        1.44120663       6.88116865       3.03338615      -0.00273871       0.00187284      -0.00127159
C       10.35458192       5.57497802       1.22540033       0.00125217      -0.00315726       0.00161303
C        8.84753563       5.76157700       1.10179840       0.00152329      -0.00110140       0.00088384
C       10.77566400       4.11032829       1.25504853      -0.00085276      -0.00375861       0.00074808
C        8.41468440       7.22295588       1.09708802       0.00341159      -0.00057146       0.00165873
C       12.28633305       3.92423709       1.30815287      -0.00114080      -0.00608968       0.00129914
C        6.90593370       7.38983401       0.98216912       0.00373825       0.00144615       0.00016590
H       10.85176275       6.07857361       0.38764750       0.00234511      -0.00322832       0.00227043
H       10.70997608       6.07561150       2.13476262       0.00136272      -0.00434534       0.00215659
H        8.34707626       5.23921007       1.92604793       0.00039160      -0.00104100       0.00016081
H        8.49577055       5.27715718       0.18271501       0.00148524       0.00005887       0.00032273
H       10.31305375       3.61876916       2.11719801      -0.00192320      -0.00373474       0.00015149
H       10.37576752       3.60554873       0.36910881      -0.00111803      -0.00253192       0.00015980
H        8.77382292       7.70661065       2.01253121       0.00298278      -0.00179052       0.00245500
H        8.90596457       7.74107526       0.26639610       0.00492512      -0.00045606       0.00264937
H       12.77406168       4.39829811       0.45309267      -0.00001088      -0.00616045       0.00199047
H       12.55345941       2.86143305       1.28908728      -0.00304604      -0.00669734       0.00034635
H       12.70737756       4.36336286       2.21591285      -0.00084631      -0.00763632       0.00187142
H        6.54018478       6.96038690       0.04767890       0.00416083       0.00247993      -0.00046414
H        6.39062013       6.87929975       1.79897636       0.00226389       0.00165290      -0.00065744
H        6.60792028       8.43955082       1.00386699       0.00509982       0.00176582       0.00045332
C       10.88445311      11.54334937       1.14201889       0.00231294      -0.00030363       0.00519396
C        9.84102653      12.65432482       1.09646991       0.00058006      -0.00212288       0.00594064
C       12.29133146      12.07405982       1.41184757       0.00130321       0.00209293       0.00498014
C        8.41805736      12.15066198       0.88508918       0.00321898      -0.00498682      -0.00422626
C       13.38836015      11.01017735       1.33782076       0.00333851       0.00407070       0.00449736
C        7.41711440      13.29512467       0.81571239       0.00039211      -0.00784028      -0.00896707
H       10.62725136      10.80956053       1.91331738       0.00393970      -0.00135867       0.00468779
H       10.89286429      11.00156994       0.19017661       0.00335644       0.00055318       0.00477031
H       10.09744904      13.35692626       0.29284557       0.00317199       0.00229667       0.01053360
H        9.87247920      13.23182968       2.02916123      -0.00526618      -0.00653289       0.00881758
H       12.48345407      12.87599892       0.66703958      -0.00159432       0.00232533       0.00409882
H       12.27195851      12.55209045       2.42062714       0.00006124       0.00226243       0.00489015
H        8.37275392      11.55478627      -0.03199641       0.01128592      -0.00311413      -0.00579131
H        8.15294119      11.47526153       1.70462674      -0.00042801      -0.00752361      -0.00755230
H       13.25334459      10.25062066       2.10796499       0.00791925       0.00715344       0.00827447
H       14.41803244      11.40742907       1.47009104       0.00328933       0.00595951      -0.00159190
H       13.37514590      10.52431226       0.36179414      -0.00009383       0.00038786       0.00646234
H        7.49206538      13.92668145       1.70198265      -0.00879649      -0.00978155      -0.00684378
H        7.60385936      13.92848831      -0.05392713       0.00553009      -0.00520559      -0.00590286
H        6.39012304      12.93370105       0.75130131       0.00219469      -0.01101609      -0.01834745
C        3.68119121       6.33521503      11.15118844      -0.00149590       0.00346166       0.00313379
C        3.50846942       4.85931378      11.48459208      -0.00163415       0.00342116       0.00284475
C        5.12361135       6.80722202      11.28587706      -0.00116277       0.00302973       0.00043264
C        2.10524546       4.33153260      11.21914214      -0.00203452       0.00430766       0.00346988
C        5.29299223       8.29966802      11.03838084      -0.00179292       0.00334457       0.00235350
C        1.94494916       2.86525862      11.59592450      -0.00276690       0.00433287       0.00303587
H        3.33455176       6.52135540      10.12841396      -0.00336976       0.00398269       0.00391912
H        3.03790677       6.93607340      11.80480795      -0.00006448       0.00341727       0.00461358
H        3.77167711       4.69126460      12.53637838      -0.00111467       0.00307884       0.00263035
H        4.22413789       4.27146006      10.90033687      -0.00224362       0.00329411       0.00223128
H        5.48578084       6.55719142      12.28824743       0.00132734       0.00149547      -0.00075656
H        5.75321632       6.24048085      10.59105532      -0.00297634       0.00405306      -0.00190964
H        1.37449080       4.93805197      11.76484146      -0.00136907       0.00464779       0.00386654
H        1.87342638       4.46169251      10.15772607      -0.00240707       0.00470322       0.00356311
H        4.95232152       8.57090536      10.03696886      -0.00578570       0.00508444       0.00413941
H        6.33544211       8.60891012      11.13208155      -0.00142205       0.00305837      -0.00133777
H        4.70670563       8.88261211      11.75184666       0.00117493       0.00224657       0.00567389
H        2.70045720       2.24861953      11.10548080      -0.00344965       0.00403846       0.00238982
H        2.05744543       2.72236611      12.67459185      -0.00227309       0.00393493       0.00294092
H        0.96710873       2.48129059      11.30248845      -0.00317314       0.00510773       0.00342489
C        5.11620232       2.01927973       4.12497062      -0.00062224      -0.00443763      -0.00343853
C        4.13374854       1.80028058       2.98235492       0.00173874      -0.00433610      -0.00543189
C        6.51429363       1.49003426       3.83797349       0.00147095       0.00042768      -0.00201386
C        2.70026747       2.15024486       3.36739287       0.00019428      -0.01092257      -0.00523180
C        7.46780014       1.70442158       5.00458703      -0.00135997       0.00334762      -0.00027010
C        1.72194879       1.94119039       2.21321536       0.00371157      -0.00575510      -0.00867464
H        5.16845738       3.08725566       4.36421890      -0.00407907      -0.00483286      -0.00111462
H        4.73204447       1.52847877       5.02542538      -0.00072861      -0.00745933      -0.00517291
H        4.17222745       0.74652319       2.67695481       0.00594478      -0.00295836      -0.00941398
H        4.44103529       2.38488420       2.10773281       0.00037187       0.00027789      -0.00280324
H        6.44400855       0.42104888       3.61119336       0.00552231       0.00030917      -0.00255946
H        6.90806336       1.97168975       2.93618897       0.00124504       0.00220691      -0.00114149
H        2.40331417       1.53798142       4.22408214       0.00033468      -0.01743917      -0.01003131
H        2.64149244       3.19210517       3.69461211      -0.00328740      -0.01315358       0.00127702
H        7.55378216       2.76544921       5.24567394      -0.00488422       0.00368676      -0.00037793
H        8.47052997       1.33335013       4.78302553       0.00012973       0.00609046       0.00199753
H        7.11300019       1.18623889       5.89780314      -0.00198501       0.00271006      -0.00089233
H        1.76907737       2.75057419       1.48123715       0.01105670      -0.00624424      -0.00855482
H        1.98999427       1.01994753       1.64499289       0.00119740      -0.00703067      -0.00801751
H        0.66493121       1.89763755       2.55584024       0.00178348       0.00062472      -0.01375909
C        8.72738961       7.99816082       5.15800365       0.00308716       0.00353903       0.00130919
C        8.70311197       6.48013373       5.28390074       0.00325269       0.00351849       0.00077447
C        7.41893651       8.59345698       4.65549558       0.00234017       0.00333500       0.00300443
C       10.00825449       5.91285756       5.82823617       0.00375634       0.00303167      -0.00094829
C        7.47393099      10.10861362       4.52183326       0.00148254       0.00351858       0.00411515
C        9.99992832       4.39749416       5.96660407       0.00333352       0.00293157      -0.00179140
H        8.97175145       8.43760460       6.13223320       0.00405411       0.00321208       0.00117069
H        9.54256577       8.29084569       4.48392283       0.00233124       0.00388033       0.00057009
H        8.48727645       6.03504135       4.30434777       0.00216095       0.00393225       0.00083673
H        7.87628767       6.18311189       5.94074727       0.00396210       0.00332689       0.00152463
H        7.16349776       8.14783537       3.68983313       0.00159534       0.00398995       0.00292957
H        6.61441432       8.31142625       5.34112260       0.00323839       0.00249355       0.00359857
H       10.83202804       6.21909752       5.17364908       0.00307488       0.00312794      -0.00162616
H       10.21154437       6.37065282       6.80051610       0.00492828       0.00241381      -0.00090623
H        7.66841955      10.58211757       5.48717457       0.00364947       0.00258737       0.00409141
H        6.54151330      10.51597554       4.12588218       0.00038278       0.00345535       0.00678694
H        8.27949566      10.40853911       3.84660476      -0.00028487       0.00452724       0.00257152
H        9.20198599       4.06853637       6.63606417       0.00400870       0.00288763      -0.00105473
H        9.83190449       3.91527976       5.00103532       0.00194228       0.00361930      -0.00185136
H       10.94336589       4.02283097       6.36720989       0.00363806       0.00235409      -0.00316419
C        3.97780407       4.77880370       7.69041907      -0.00081623      -0.00193606       0.00065041
C        3.99827896       3.33300263       7.21854884      -0.00398612      -0.00128672      -0.00157022
C        4.42586537       5.77006412       6.62335858      -0.00100385      -0.00072317       0.00176370
C        3.49766211       2.33829479       8.25726247      -0.00353451      -0.00172958      -0.00172120
C        4.45105670       7.20106114       7.13956636       0.00183375      -0.00159058       0.00409372
C        3.51834165       0.90112540       7.75424561      -0.00629899      -0.00137237      -0.00278936
H        2.96515924       5.04283731       8.01829833       0.00018710      -0.00086349       0.00288878
H        4.61852732       4.88400633       8.57388700       0.00081387      -0.00450191      -0.00021920
H        5.01942323       3.06386943       6.92680259      -0.00499305      -0.00249622      -0.00390359
H        3.39010802       3.24196842       6.31094884      -0.00585428       0.00072702      -0.00051808
H        5.41931861       5.48736603       6.25792217      -0.00194216      -0.00148196      -0.00015905
H        3.75357275       5.69725489       5.76099297      -0.00231010       0.00174583       0.00258869
H        4.11862564       2.41929967       9.15462619      -0.00209534      -0.00313909      -0.00257775
H        2.48259053       2.61230271       8.56197777      -0.00272349      -0.00056595       0.00002193
H        3.47810316       7.48268121       7.54790468       0.00260752      -0.00045665       0.00522799
H        4.69648188       7.91647954       6.35332061       0.00262849      -0.00080536       0.00508514
H        5.18893665       7.31515205       7.93696724       0.00252384      -0.00420557       0.00379120
H        2.86152953       0.78517103       6.88704196      -0.00623602       0.00042358      -0.00294015
H        4.52732713       0.61383381       7.45366934      -0.00689587      -0.00372807      -0.00260434
H        3.18815059       0.19719367       8.52051878      -0.00803015      -0.00107522      -0.00325330
