199
Lattice="18.203002641238268 0.0 0.0 0.0 18.203002641238268 0.0 0.0 0.0 18.203002641238268" Properties=species:S:1:pos:R:3:forces:R:3 energy=-1983767.25 stress="-0.0007850008551031351 0.000138813178637065 -0.00014610309881391004 0.000138813178637065 -0.0008159877033904195 0.00026942948170471936 -0.00014610309881391004 0.00026942948170471936 -0.0006790920742787421" pbc="T T T"
Pr      19.28313638      18.26325619       1.42807982       0.03630657      -0.01939946       0.00739089
Br       0.76421109      16.41900924       3.45413144       0.02570779      -0.01299664      -0.00882018
Br       7.49544700      16.66404150      17.39882023      -0.01533477      -0.03293061      -0.02693626
Br       5.16302135      16.73899543      -0.54618011       0.00560671      -0.01196291      -0.00736719
Cl       1.55869587       6.31600691      14.05062714       0.00634745       0.00055606       0.00992563
Cl       1.24270890       8.27400547      16.19437087       0.00825737       0.00120839       0.01066464
Cl       0.62229799       5.46153857      16.67397103      -0.00118768       0.00143027       0.00956470
C        1.64984699       6.59487058      15.79613520       0.00425874      -0.00237944       0.01025948
H        2.67600244       6.42593892      16.09858771       0.00693750      -0.00357477       0.01391325
Cl      13.44595132      15.13040903       0.47315644      -0.02348766      -0.02720487      -0.01675999
Cl      13.29380306      16.94175008       2.74971611      -0.01642552       0.00466800       0.00971654
Cl      15.15858185      14.69048487       2.79651787       0.00527528      -0.02593267       0.01283500
C       14.35119064      15.90140468       1.79080088       0.03157724       0.01797236      -0.02142152
H       15.12382491      16.52330806       1.35214507      -0.00375840      -0.01184106      -0.00761420
Cl       7.93509723       4.13326555       4.96017978      -0.00285342       0.00334796      -0.00100932
Cl       8.89235697       1.38372012       5.21294673       0.00850546       0.00858854       0.01008770
Cl       6.03610415       1.94164850       5.33286909       0.00643802      -0.00671674      -0.01858754
C        7.59116532       2.42420156       4.63998580       0.01048675       0.00040867       0.00082947
H        7.51546398       2.30625016       3.56614081       0.02031302      -0.00015351      -0.00641626
Cl      15.50017841       5.08515750       9.64253943      -0.00753914      -0.00471496      -0.00611933
Cl      14.77852217       7.53549216       8.24689497      -0.00464469      -0.00248981      -0.00389930
Cl      17.57873035       6.73490562       8.44321220      -0.00506891      -0.00530797      -0.00300808
C       15.91099304       6.17373708       8.31188229      -0.00633927      -0.00492251      -0.00748469
H       15.82040426       5.62358177       7.38159367      -0.00593029      -0.00088754      -0.00288709
Cl       4.85056907       3.27277325      14.32732899      -0.00675745       0.01303795       0.01735386
Cl       4.99605350       0.36140403      14.23318255       0.00187190       0.01375011      -0.00083143
Cl       6.83472320       1.86862659      15.93120089       0.00251287       0.00625570       0.00621040
C        5.21262773       1.79831088      15.24632593      -0.00581926       0.00656310       0.01154477
H        4.51121029       1.73624011      16.06942672       0.00605592      -0.00065296       0.00300449
Cl       2.10021455      13.07579836       3.62323331       0.00437035       0.00842488      -0.01448960
Cl       2.48265332      10.56975113       5.09768522       0.00671121       0.01514791      -0.01274669
Cl       1.52253964      10.52552580       2.34871192       0.00634736       0.00958958      -0.00996202
C        2.54802859      11.37177163       3.51481073       0.00766714       0.01186244      -0.00991046
H        3.57060219      11.30321170       3.16226141       0.00054413       0.01495356      -0.01060963
Cl       2.37406859       6.97962580       3.06560578       0.00117891       0.00396012       0.00024104
Cl       4.39057459       4.89382839       3.40088488      -0.00312330      -0.00156221      -0.00657377
Cl       4.53562829       7.32693269       4.99349314       0.00359234      -0.00189902      -0.00224216
C        3.45591853       6.16300745       4.19230842       0.00143085       0.00246455      -0.00444652
H        2.84893160       5.70366278       4.96495160       0.00238574      -0.00027654      -0.00093800
Cl       3.46736581      11.27285958      13.21468085      -0.00516416      -0.00311115       0.00449694
Cl       2.93299541       8.79929951      11.77091150       0.00016495      -0.00319548       0.00383657
Cl       4.50234729       8.74344496      14.23385029       0.01036936       0.00026838      -0.00376172
C        3.17608197       9.53245077      13.35253532       0.00348667      -0.00399082       0.00212752
H        2.27531648       9.38504693      13.93713787       0.00677794      -0.00915541       0.00629213
Cl      15.97184011       7.25205083      14.14929952      -0.00609281       0.00091456       0.00168341
Cl      14.44707859       8.60858504      12.06840591       0.00114375      -0.00870578      -0.00818092
Cl      17.19146420       9.43685068      12.63649891      -0.00210921      -0.00506225      -0.00223826
C       16.04897925       8.07378125      12.59216889      -0.00341474      -0.00127203       0.00334680
H       16.42080305       7.37072337      11.85725984       0.00328603      -0.01122423       0.00058971
Cl       5.87488120      10.83664524       5.13175361      -0.00054367       0.00144778      -0.00308761
Cl       8.10453931      12.34454549       6.24652894       0.00462759      -0.01032914       0.00464754
Cl       8.30890539       9.44604969       5.93293351       0.00387811      -0.00682560      -0.02719755
C        7.64749625      10.94418139       5.27641817       0.00300510       0.00205409      -0.01702617
H        8.03797587      11.08010371       4.27463567      -0.00658844       0.01088304      -0.00255632
Cl       1.06004086       3.37048978       3.13226361      -0.01535753       0.00255229       0.01105669
Cl      -1.27098364      -0.44881731       0.51013256      -0.01052570      -0.00421876       0.01446366
Cl       3.01774022       1.17559491       3.20969487       0.00876015       0.00347739       0.00438537
C        1.27340483       1.65315996       3.35535660      -0.00446730      -0.00350690       0.00335282
H        0.95858427       1.37978474       4.35711723      -0.00777555      -0.02724865      -0.00251988
Cl      14.25971195       1.48809603      14.31495453      -0.00035760       0.00029066       0.01347476
Cl      14.18216748       3.78794220      12.52950693      -0.00061315      -0.01339066      -0.00096938
Cl      16.39992830       3.47744857      14.41081557      -0.00433247       0.00343177       0.00198603
C       15.22359668       2.64156106      13.38483858       0.00013888      -0.00532288       0.00554536
H       15.78128256       2.08902155      12.63935486       0.00048138      -0.00857022       0.01242457
Cl       9.52430819      15.80180546       2.29144266      -0.00219751       0.01144123       0.00046679
Cl       8.52463535      13.06280682       2.31392547      -0.02594750       0.02017976       0.00079086
Cl      11.16655359      13.65697292       3.39061408      -0.01966760      -0.00322095      -0.00520188
C        9.52893441      14.27507555       3.15478525      -0.01122392       0.00946465      -0.00509281
H        9.08775179      14.42405658       4.13187178      -0.01138264       0.01358530       0.00270465
Cl       7.69104443       6.50605334      10.68195285       0.00802091      -0.00858095      -0.01045477
Cl       5.11177907       5.70586437      11.78992508      -0.00088105       0.00239116      -0.00892923
Cl       7.41268225       6.06621413      13.55021985       0.00157638       0.00946987      -0.00246909
C        6.60071677       6.61441859      12.07329878       0.00327026       0.00307981      -0.01131836
H        6.33013238       7.65443947      12.20720058       0.00618133       0.00711119      -0.01817651
Cl      11.77798609      13.88979761      13.55287016      -0.00383491      -0.00188851       0.00017616
Cl      10.45331329      15.99478552      15.08121402       0.00440863       0.00631383       0.00311574
Cl      11.36066634      13.57783017      16.42576446      -0.01601152      -0.00646099       0.00142658
C       11.67619352      14.73006914      15.10715878       0.03885338       0.01419450       0.01155177
H       12.63934645      15.19010556      15.29752460      -0.02904674      -0.02638675       0.00235087
Cl      14.64939329      12.18744166      11.28107168      -0.00287405       0.00078461       0.01519614
Cl      11.90572172      11.20363009      11.10873133      -0.00238523      -0.01149386      -0.00365964
Cl      12.81772108      13.35162282       9.35296287       0.00050893      -0.00195035       0.00630095
C       13.28429259      11.87550115      10.22283931       0.00909236      -0.01924765      -0.01028162
H       13.58258501      11.14290157       9.48255050       0.00506847       0.01278025       0.01636675
Cl      16.10111705      11.04970909       1.41155147      -0.00816719      -0.00390461      -0.00384343
Cl      17.28165948       8.38218778       1.11374059      -0.01044670      -0.00431260       0.01114277
Cl      14.58043930       8.67990466       2.17366093      -0.02002238       0.00227522      -0.02471870
C       15.79573638       9.34869579       1.06925882      -0.00439483       0.00056717      -0.00192984
H       15.39305397       9.27554776       0.06717821       0.00438185      -0.00047804      -0.01796365
Cl      13.14485446       5.00179547      16.02837469      -0.00154921       0.00389723       0.00121556
Cl      11.99532219       6.53149200      13.82020831       0.00012605      -0.00287735      -0.00213987
Cl      10.73662411       4.04576438      14.68191401       0.00146684      -0.00167722       0.00114582
C       11.65246185       5.46646705      15.19107310       0.00142192      -0.00042551      -0.00298447
H       11.04718926       6.02669310      15.89244449      -0.00261687       0.00244124      -0.00150001
Cl      11.92858348      10.24062212      14.72887106      -0.00069278      -0.00211230      -0.00870016
Cl      13.33737954       8.66404907      16.72658905      -0.01708157       0.00229615       0.00481544
Cl      14.71294189      10.85289086      15.36919727      -0.00172323      -0.01123898       0.00121459
C       13.16069714      10.27134454      15.98345368      -0.00828794       0.00507730       0.00358741
H       12.84070848      10.95650327      16.75867579      -0.00510480      -0.00066936      -0.01232564
Cl      18.04880770       0.73677408       7.50479915      -0.00968641      -0.00097948      -0.00288233
Cl      15.98822705       2.56828201       6.53482448      -0.00148867       0.01100872       0.00772300
Cl      15.64946190       1.20855078       9.09831878      -0.00226787       0.00683017       0.00410350
C       16.81365706       1.91030211       7.95893190      -0.00464432      -0.00093278       0.00153641
H       17.30117849       2.73402537       8.46611030       0.00500573       0.00285706       0.00534256
Cl      17.37546574       5.80543455       5.00243286      -0.01387957       0.02193621      -0.00942737
Cl      16.00615236       4.70890456       2.65749688      -0.00584735      -0.00175178      -0.00043365
Cl      14.46140980       5.80909602       4.86683916      -0.01196098      -0.00000650      -0.00766154
C       15.97110640       5.92143049       3.92918963      -0.01552575       0.00305000      -0.00610780
H       15.99536145       6.90156446       3.46958824      -0.02122932       0.00330085      -0.01501095
Cl      -0.52198766      13.38531385      15.75295603      -0.00798982       0.00204043       0.00637214
Cl       2.17208169      14.34583646      15.13953598      -0.00334102      -0.00679037      -0.00606593
Cl       1.80453901      11.86471770      16.63047436      -0.00678527       0.00162402       0.01615468
C        1.14654151      12.92998457      15.37630486      -0.00800382      -0.03043640      -0.03522767
H        1.14027182      12.37462922      14.44578453      -0.00992242       0.00511837       0.04007348
Cl       7.79490691      11.90311216       9.73199064       0.01233760      -0.01260787       0.00889450
Cl       6.34609047      13.54689132      11.66249625       0.00580490       0.00129351      -0.00515618
Cl       7.19126400      10.84345056      12.38668517      -0.00309785       0.00075319       0.00866215
C        7.58102600      12.29174054      11.44220075       0.00884060      -0.00083097       0.00804164
H        8.51881762      12.68573291      11.81549601       0.00127870      -0.00783846       0.00517510
Cl       1.44735924      -0.74306321      12.66073602       0.00651405      -0.00533890       0.00792226
Cl       1.64895853       1.53090040      14.47862868      -0.00651442       0.00270060       0.00508151
Cl      -0.58600889      -0.31543539      14.71574958      -0.00932795      -0.00439551       0.00568774
C        1.11871200      -0.15412596      14.29650350       0.00925428      -0.01711440       0.01904121
H        1.69523943      -0.75151408      14.99467236      -0.01186293       0.00928122       0.00373399
Cl       3.84033051      -0.52659896       9.04972976       0.00333858       0.00538227       0.00485334
Cl       5.70510879       0.86077118      10.80238857       0.01151550       0.01013596      -0.00814044
Cl       6.70028995      -0.57723561       8.46851851       0.00164858      -0.00582325      -0.00116076
C        5.35940779       0.36290039       9.14121218       0.00711414       0.00100487      -0.00389468
H        5.25909119       1.26029826       8.54413480       0.00710003      -0.00149393      -0.00966568
Cl      14.89856172      17.31583718       6.07078334      -0.01784278       0.01041788       0.00422564
Cl      13.39236108      14.81857559       6.02050360      -0.00173354       0.00135535      -0.00227034
Cl      16.22367228      14.79900979       6.70266491       0.00179338       0.01492068      -0.00512102
C       14.72099976      15.71568259       6.78733846      -0.00384684       0.00232369      -0.00353278
H       14.46587180      15.84196569       7.83283539      -0.00787121       0.00336510       0.00392607
Cl       8.31958223      -0.35629911      13.00242684       0.00845659       0.00421765      -0.00257286
Cl       8.79527208       2.38830070      12.13156861       0.00881991       0.00442547       0.00344971
Cl      10.94794001       0.42265129      12.01077590       0.01053834       0.00785148       0.00956453
C        9.19752746       0.68257029      11.87875808       0.01131684       0.00602741       0.00141741
H        8.89341549       0.41534913      10.87385834       0.01669843       0.00769712       0.00256446
Cl       3.55112827      14.27936413       7.56495750      -0.00097087      -0.00466070       0.00014959
Cl       0.90058462      13.14190641       7.29994596       0.00117996       0.00392884      -0.00627021
Cl       1.20954797      15.80204820       8.42556841       0.00324667      -0.00032181      -0.00161490
C        1.84438192      14.63035514       7.25795984       0.00219756      -0.00025915      -0.00114598
H        1.75469205      15.07474627       6.27213631       0.00480606       0.00326811      -0.00647959
Cl       3.39015344       2.99395983      18.36384607      -0.00690766      -0.00566453       0.00359602
Cl       2.34557365      -1.59197554      18.04420429      -0.00969797       0.00521570      -0.00629711
Cl       0.57064648       2.28434223      17.86683283      -0.00124942      -0.00058413       0.01509278
C        2.26079487       1.69287868      18.09083926      -0.00747645      -0.01128811       0.00683481
H        2.53709090       1.19659165      17.16075533      -0.01004019       0.00818275      -0.00351369
Cl      16.92641894      10.87672350       5.00775153      -0.00177115      -0.01222849      -0.00661480
Cl      17.76635644      10.19198570       7.71299774       0.00455898       0.00039190      -0.00409812
Cl      15.11277773      11.28614253       7.25811348       0.00746974       0.00601107      -0.00179954
C       16.40843178      10.28755729       6.58580437      -0.00265004      -0.01111220      -0.00201770
H       16.01613547       9.28629402       6.45802954       0.00073448       0.00644046       0.00758803
Cl       4.12252698      11.27915145       9.48257232       0.01306857      -0.00744864       0.00505757
Cl       5.51765615       8.76809317       8.95508327       0.00542203      -0.00945479      -0.00545548
Cl       2.68937191       9.04446877       8.27185425       0.00663680       0.00203398      -0.00405934
C        4.25525560       9.88336082       8.42562262       0.00909598      -0.00411402       0.00085451
H        4.51707553      10.23435016       7.43548320       0.01073077       0.00009684       0.00046176
Cl       7.48582937       9.80647869       1.72564333       0.00652479       0.00533462       0.00193769
Cl       5.39755274       7.92871294       0.93179099       0.00052616       0.01041599      -0.00730467
Cl       7.66431400       7.00658952       2.53182573       0.00185150      -0.00400859      -0.00973629
C        6.57292113       8.35108946       2.18163357      -0.00006197       0.00385866       0.00101984
H        6.02555783       8.57581597       3.08955724       0.00366479      -0.00109297      -0.00522149
Cl      15.83035197      15.08260370      13.08974905      -0.00928038       0.00557294       0.00234780
Cl      16.27650593      15.59820486      10.25138473       0.01175810       0.00339290       0.00686347
Cl      13.94140282      16.73115478      11.58533062       0.00751871       0.01064743      -0.00815152
C       15.63514179      16.23788135      11.76835901       0.00404063       0.00436856       0.00005167
H       16.21097732      17.11960399      12.02325680       0.00640300       0.00363493       0.00377117
Cl       6.58516298      15.44848065       4.99397951      -0.00585556       0.00013180       0.02665322
Cl       4.09764285      16.90322709       5.35256116      -0.00190556       0.00561291       0.01702461
Cl       4.72291511      15.71785248       2.75907938       0.02600651       0.03691687       0.01022077
C        4.87828944      15.56418305       4.50378483      -0.00397991       0.00062504       0.01953794
H        4.39277249      14.64830571       4.81991253       0.00470087       0.02118534      -0.01437019
Cl       3.37062422       5.65862474       7.93720917      -0.00640553      -0.00809520      -0.00398493
Cl       5.60000703       3.91641155       8.59607322      -0.00140163      -0.00096259      -0.00984702
Cl       3.21226291       2.82170392       7.29780265       0.00281774      -0.00614271      -0.01050279
C        4.28658152       4.22781052       7.46120781      -0.00217627      -0.00310187      -0.00570556
H        4.73216642       4.41207494       6.48946407      -0.00297603       0.00103083      -0.00782508
Cl      10.38843440       4.88680886       7.69823241      -0.01448601      -0.00284515       0.02133894
Cl      11.29988757       5.24899233      10.45402760       0.01357679      -0.00889128       0.01341325
Cl      11.78796605       2.72272464       9.07220681       0.00617760      -0.00169939      -0.00116245
C       11.62675328       4.47640303       8.89597031       0.00014590      -0.00024584       0.00663057
H       12.57468400       4.85859840       8.53730571      -0.00933892       0.00232369      -0.00111677
Cl      11.67132407      11.41002470       6.44049548       0.00427392       0.00356197       0.00302121
Cl      13.46843804      11.47559538       4.13577760      -0.00611809       0.00520942      -0.00524577
Cl      12.57984415       8.92147558       5.22170940      -0.00018954       0.00388151      -0.00263617
C       12.15091839      10.62063959       4.92996295      -0.00781640       0.00441576      -0.00485973
H       11.29358584      10.63523653       4.26796185      -0.00101599       0.00364781       0.00719801
Cl       2.85919925       2.78202549      11.18021235       0.00266001       0.00186265       0.00547259
Cl       1.17205195       5.14424118      10.93757603       0.00122090       0.00241008       0.00989875
Cl      -0.03486454       2.49582747      11.09013538       0.00241920       0.00145864       0.00546992
C        1.32391383       3.51487156      11.61274357       0.00068934       0.00088910       0.01177326
H        1.26715003       3.59428956      12.69122615       0.00197416      -0.00172261       0.00268811
Cl       9.65114890      16.32262333       6.39822415       0.01056610       0.01109852       0.00116703
Cl      11.59425457      16.96916883       8.47264305       0.00116453      -0.01104242       0.01282501
Cl       9.35506094      15.19820445       9.07194284      -0.00360346      -0.00709203      -0.01307714
C       10.49777278      15.73645162       7.83981743       0.01247585      -0.01648706      -0.00845358
H       11.09885492      14.88689757       7.53808413      -0.00766754       0.00993156      -0.00111967
