190
Lattice="13.179903517137756 0.0 0.0 0.0 13.179903517137756 0.0 0.0 0.0 13.179903517137756" Properties=species:S:1:pos:R:3:forces:R:3 energy=-382916.09375 stress="0.0008026522700674832 -0.00030836506630294025 -0.0001977263018488884 -0.00030836506630294025 -0.0004887699033133686 -0.0008626439957879484 -0.0001977263018488884 -0.0008626439957879484 0.0018126948270946741" pbc="T T T"
Pr      12.20182898      13.67337197      -0.31059586      -0.00241761       0.00816299      -0.00374558
P       10.27209709      11.97161946       5.05938431       0.00457820       0.00378710      -0.01412642
O        9.02209891      10.96117130       4.82468567      -0.00017133       0.00580597       0.00350049
O       11.31703999      11.01959612       5.87497180       0.01038688       0.00952518      -0.01689863
O       10.90336914      12.33052557       3.74933414      -0.00580573      -0.00833979      -0.02274275
O        9.75756952      13.00105603       6.00433532       0.01660854       0.01140532      -0.01650679
H        9.21710518      10.31568467       4.13801743      -0.01117991       0.00592690       0.00041215
H       12.13836946      10.97868690       5.37874551       0.00241395      -0.00706220      -0.02891293
P        4.93264841      10.17973331       3.58356172      -0.01421234       0.01256315       0.01345444
O        6.55907879      10.12080528       3.66702094      -0.01378393       0.02065212       0.00947252
O        4.46323229       9.17024929       4.75471356      -0.00823411       0.00311595       0.00695980
O        4.47099332      11.57028519       3.91629403      -0.01855499       0.00943696       0.02412277
O        4.56674099       9.54111631       2.28984161      -0.01412947       0.02133620       0.00961637
H        6.92728979      10.72434777       4.32486827      -0.01510912       0.01892393       0.01184162
H        4.55768407       9.54964303       5.64753673      -0.00599413      -0.00197908       0.00941420
P        8.19462539       5.09936115      11.76253194      -0.01823555       0.03187656      -0.03074259
O        8.45498626       5.75004462      13.20349714      -0.00274515       0.00965691      -0.00316954
O        7.09715336       3.96438654      12.00210956       0.00235981      -0.00785029       0.00454313
O        7.80531762       6.08325933      10.74598317       0.00406310      -0.03648729       0.01296794
O        9.51043131       4.29650673      11.59448237       0.00291425      -0.00532638       0.00160753
H        7.90909414       6.53227780      13.33948697      -0.00222790       0.00548285       0.01619163
H        6.23193439       4.23911060      11.67945282       0.00078148      -0.00921002       0.00929290
O       10.82462980       6.65015620       1.68371441      -0.00042322      -0.00041801      -0.01017229
C       11.02521047       8.04176987       1.42032065      -0.00345281       0.00197458      -0.00284703
C        9.92381102       8.60766305       0.54188830      -0.00374895       0.00358683      -0.00155130
C       11.11735057       8.74583082       2.76055396      -0.00689356      -0.00327435       0.00009894
H       11.98357927       8.15395647       0.88806511      -0.00298333       0.00642756      -0.00126699
H       10.14251331       9.63692145       0.25791124      -0.00690714       0.00672561       0.00710713
H        9.82555195       8.03627232      -0.38369552       0.00012957       0.00972156      -0.00564370
H        8.96756823       8.60583903       1.07256709      -0.00475672      -0.00321048      -0.00328943
H       11.31425545       9.81572802       2.64893323      -0.00885111      -0.00247614       0.00350361
H       11.90952630       8.30914153       3.36982906      -0.00695869      -0.00413726      -0.00054508
H       10.17540945       8.61058140       3.29814097      -0.00732487      -0.00627689      -0.00167138
H       10.21980961       6.29654320       1.02132799      -0.00267582       0.00262634      -0.00857939
O       13.09362397       2.49462479       0.33723031       0.01461696      -0.00244991       0.01135044
C       12.45792689       2.99747599       1.55624797       0.00681250      -0.00112078       0.00683394
C       11.04787440       3.41006664       1.20231694       0.00574046      -0.00963253      -0.00067566
C       12.51846445       1.87719365       2.57572476       0.00733617       0.00264037       0.01086712
H       13.03797033       3.86160865       1.89146065       0.00009207       0.00353929       0.00628407
H       10.50767303       3.75532313       2.08273073      -0.00186684      -0.01473630      -0.00329846
H       11.03885376       4.19301681       0.44845818       0.00361302      -0.00918622      -0.00033753
H       10.48801919       2.55008654       0.79346818       0.01282346      -0.01333254      -0.00358070
H       11.96820445       2.13192107       3.47948636       0.00370668       0.00422648       0.00830041
H       13.54205512       1.61834130       2.85037394       0.00771594       0.00804558       0.01446001
H       12.01459282       0.95929146       2.22440692       0.01325256      -0.00060778       0.01137596
H       13.76822270       3.10736285      -0.14977906       0.01210696      -0.00081098       0.00902254
O        8.11900619       1.77894101       5.24818817       0.00426304       0.00597242      -0.00239617
C        9.00902146       2.56577008       4.48436578       0.00350088       0.00811565      -0.00097746
C        8.22368720       3.74764132       3.95393110      -0.00005430       0.00206363      -0.00926866
C       10.20859117       3.01320443       5.31579517      -0.00341439       0.01720229       0.00390023
H        9.38868962       1.96917736       3.63556949       0.01083618       0.00684124       0.00328279
H        8.83568664       4.39769096       3.32694576       0.00058904       0.00429648      -0.00664882
H        7.36012751       3.40806068       3.38008822       0.00581172      -0.00430754      -0.01433144
H        7.86258145       4.33838480       4.79379732      -0.00919281       0.00217748      -0.01330836
H       10.88020243       3.65245827       4.73667062      -0.00273856       0.01730156       0.00492344
H       10.75877689       2.14170715       5.67374389      -0.00206164       0.02083291       0.01077276
H        9.86199643       3.58660914       6.17809451      -0.01106627       0.01919330      -0.00057888
H        8.63386320       0.99508725       5.56006442       0.00636513       0.00588447      -0.00540218
O        7.73721301      11.73016175      -0.32858777      -0.00447854      -0.00870091       0.00932847
C        8.28275894      12.75289095       0.50614591      -0.00578135       0.00193853      -0.00348216
C        7.54772975      12.85379675       1.82160826       0.00251809       0.00945178       0.00024194
C        9.77203903      12.45670224       0.71200695      -0.00291353       0.01323718      -0.01011878
H        8.19375375      13.68705904      -0.06037731      -0.01489335      -0.00309753      -0.01043659
H        8.00070582      13.58773349       2.48965279       0.00183682       0.01856777      -0.00960939
H        6.50834345      13.13246206       1.65349359      -0.00007245       0.00170499       0.00487626
H        7.55485323      11.88978080       2.33509755       0.01263045       0.01461543       0.00926114
H       10.26388933      13.30031709       1.22656586      -0.00905945       0.02110778      -0.01729080
H       10.21912583      12.23846602      -0.27981463      -0.00649899       0.01284937      -0.01157585
H        9.93004529      11.59968226       1.36792614       0.00720110       0.01902249      -0.00509292
H        7.24389534      11.12215965       0.23419021      -0.00536321      -0.00167839       0.01627514
O        1.63363576       3.64708719      12.14197757       0.00556145      -0.00169915       0.00217724
C        2.58349287       2.71728727      11.59240290       0.00395884      -0.00158072      -0.00091228
C        3.95944267       2.91818282      12.19686738       0.00575328      -0.00213730      -0.00483552
C        2.06839535       1.31032727      11.84835723       0.00507378      -0.00173140       0.00071302
H        2.62687687       2.88862500      10.50979088       0.00064961      -0.00155105      -0.00085920
H        4.68241688       2.24244921      11.73677274       0.00406214      -0.00288548      -0.00659797
H        4.26610805       3.95303797      12.04331379       0.00570051      -0.00203827      -0.00655452
H        3.94322204       2.72756519      13.27097013       0.00885494      -0.00130931      -0.00460230
H        2.69019306       0.57846668      11.33208677       0.00250937      -0.00155166      -0.00252223
H        1.04976666       1.20733548      11.45193313       0.00347657      -0.00144307       0.00442366
H        2.09425900       1.08739336      12.91774541       0.00879444      -0.00212990       0.00034019
H        2.03011473       4.56700500      12.14187082       0.00782020      -0.00221768       0.00646169
O        2.63398851       0.86104609       4.62622921       0.02347398      -0.03392249      -0.00204736
C        3.63890492       1.79873424       4.22338526       0.00655742      -0.02059591       0.00137568
C        4.20327308       1.41809521       2.86500623       0.00483930       0.00151640      -0.00886047
C        3.01184001       3.17713529       4.20815422      -0.00777599      -0.02476072       0.01134061
H        4.45688174       1.78920219       4.95550177       0.01669705      -0.00960513      -0.00705332
H        5.03629884       2.06785203       2.58948189      -0.00295138       0.01645608      -0.00141992
H        4.54813226       0.38352933       2.89675660       0.01520717       0.00424203      -0.01962727
H        3.42163841       1.51256102       2.10382741       0.00022325       0.00000173      -0.00618223
H        3.74214344       3.91402368       3.86842825      -0.01362652      -0.01431212       0.01798017
H        2.65564425       3.47561429       5.19432437      -0.01123647      -0.03628751       0.01330481
H        2.16004924       3.18920725       3.51938995      -0.00753734      -0.02569480       0.01088493
H        3.07034900      -0.00577568       4.61855993       0.03279099      -0.03001538      -0.01888258
O        5.91837409       6.95673620       7.74059339       0.00273001      -0.00436769       0.00225669
C        5.86152209       6.45180504       6.38904293       0.00232311      -0.00183910       0.00027019
C        7.05247719       6.93039986       5.58207060       0.00199002      -0.00097701      -0.00498658
C        5.69763860       4.94449793       6.41782824       0.00201539      -0.00102031       0.00048754
H        4.96279295       6.91639741       5.97916376       0.00041169       0.00020191       0.00720769
H        6.95969194       6.61452149       4.54148085       0.01361884       0.00824395      -0.00888517
H        7.10633090       8.01863217       5.59271291       0.00084386      -0.00164786       0.00667378
H        7.98445520       6.51864366       5.98048230      -0.00114670       0.00180349       0.00381064
H        5.57807299       4.54029503       5.41212312       0.00115515       0.00346108      -0.00066561
H        4.82409181       4.66924932       7.01015469       0.00264572      -0.00358681       0.00065693
H        6.57639399       4.46487609       6.85665072       0.00281598      -0.00185673      -0.00197349
H        6.72331020       6.64456588       8.17064175      -0.00063670      -0.00543426       0.00915018
O       12.00789297       0.63133699      10.83046140      -0.00142324      -0.00204795      -0.00240779
C       12.62662783       0.80838066       9.52637175       0.00665733       0.00066641       0.00203824
C       11.92020977      -0.00612952       8.46898091       0.01372525      -0.00275472      -0.00279203
C       12.66395247       2.28942930       9.19688674       0.00287942       0.00120717       0.00105698
H       13.65076820       0.42853300       9.62212976       0.00841886       0.00451069       0.00650055
H       12.47964188       0.06153972       7.53116272       0.02380756      -0.00162545       0.00247224
H       11.85295901      -1.05806370       8.74502694       0.01918766      -0.00353020      -0.00677768
H       10.91770844       0.36533183       8.25993093       0.01830371      -0.00040407      -0.01952599
H       13.18931960       2.44051341       8.25341477       0.00372250       0.00265603       0.00107183
H       13.16855622       2.86891079       9.97270125      -0.00070656       0.00254033       0.00212753
H       11.65244106       2.68427406       9.07584686       0.00120148      -0.00347846      -0.00154593
H       10.18819329       1.47528868      10.49918725       0.00224623      -0.00185117       0.00168246
O        9.37637160       1.85728071      10.87522574       0.00408083      -0.00155702       0.00127432
C        8.26135764       1.62977000       9.94253150       0.00305830      -0.00283227       0.00104859
C        8.43540517       2.48452453       8.70558585       0.00436664      -0.00482908       0.00034964
C        8.13786936       0.15911138       9.63273567       0.00357610      -0.00315100       0.00381860
H        7.39453239       1.96241441      10.51488846       0.00288945      -0.00186910      -0.00021708
H        7.58542634       2.35688727       8.03410598       0.00432116      -0.00480312      -0.00017686
H        8.52429700       3.54413397       8.95615206       0.00517506      -0.00446428      -0.00141034
H        9.31594156       2.17368706       8.14097937       0.00464481      -0.00647898       0.00039454
H        7.25491813      -0.00428768       9.01487156       0.00542174      -0.00453943       0.00077015
H        8.03543560      -0.42916599      10.54473955       0.00018269      -0.00202537       0.00422539
H        8.99097527      -0.20039803       9.05489095       0.00631386      -0.00475018       0.00726071
H        9.44644119       3.33268581      11.26668297       0.00195406      -0.00072131       0.00106862
O       12.83157555       8.49383981       9.41310832      -0.00173646       0.00532109       0.00247353
C       11.73883064       7.66156414       9.82265972      -0.00095999       0.00326499       0.00064829
C       10.42511086       8.16104405       9.24764306      -0.00162476       0.00264469       0.00192180
C       12.00334155       6.20436325       9.47394911       0.00070080       0.00414777      -0.00210807
H       11.72059567       7.76228357      10.91338605      -0.00118310       0.00106203       0.00096112
H        9.58594525       7.57341419       9.62504718      -0.00122428       0.00013019      -0.00009836
H       10.26499626       9.20918091       9.50274332      -0.00327376       0.00179265       0.00438862
H       10.43565479       8.07785499       8.15667753      -0.00124464       0.00611507       0.00188033
H       11.20742134       5.56669306       9.86320338       0.00167961       0.00247523      -0.00282356
H       12.95346672       5.87611767       9.89755462       0.00126557       0.00474303      -0.00325219
H       12.04435827       6.07431404       8.38908929       0.00024007       0.00611845      -0.00250794
H       12.76114322       8.60742458       8.45959502      -0.00175840       0.00734202       0.00273404
O        3.16511773       5.82681366       1.82473577       0.00390112       0.00193548       0.01029687
C        2.65865617       6.99967306       2.52640655      -0.00139093       0.00022915       0.00958201
C        1.34730425       7.43601483       1.90025700       0.00008106      -0.00172421       0.00480551
C        2.51844242       6.70295325       4.00116749      -0.00640675      -0.00242293       0.00867701
H        3.42263599       7.76615511       2.37840805      -0.00286043       0.00249213       0.01317644
H        0.99593463       8.34625241       2.38771549      -0.00428438      -0.00389299       0.00548566
H        1.46494534       7.63714834       0.83327069       0.00435639       0.00176474       0.00586832
H        0.56951686       6.67614751       2.02227164       0.00149032      -0.00421283      -0.00067813
H        2.26234952       7.61485534       4.53859763      -0.01133491      -0.00416368       0.00933004
H        3.46254287       6.34184115       4.40569583      -0.00704990      -0.00079973       0.01176544
H        1.74167882       5.95233280       4.18132306      -0.00517903      -0.00489775       0.00408097
H        2.68128959       5.06011941       2.15137834       0.00588027       0.00039653       0.00987364
O        4.85803616       9.47346587       7.49967595       0.00175405      -0.00523603       0.00155973
C        5.26193394      10.27205063       8.61146218      -0.00122905      -0.00034344      -0.00069973
C        6.77279863      10.23650220       8.77858005      -0.00116760      -0.00127970       0.00319647
C        4.71910696      11.66731039       8.38556482       0.00014134      -0.00089252      -0.00901836
H        4.79915427       9.86275542       9.52306745      -0.00298041       0.00298545       0.00004792
H        7.07487487      10.76080393       9.68546309      -0.00246447       0.00033055       0.00281192
H        7.12122891       9.20520995       8.86090236      -0.00208578      -0.00123920       0.00621394
H        7.26436341      10.69953402       7.92089726       0.00146487      -0.00355755       0.00321443
H        4.96730836      12.31047270       9.23185123      -0.00495778       0.00131506      -0.00921983
H        3.63490564      11.63825217       8.27022173       0.00116360       0.00223719      -0.02008190
H        5.14489796      12.09738992       7.47773866       0.00680310      -0.00449450      -0.00743733
H        5.27280270       8.59719828       7.61501244       0.00231105      -0.00467704       0.00518943
O        0.32943440      11.88087873       0.59975326      -0.00749113       0.00175047      -0.00843485
C        1.54536380      12.06809090       1.48076577      -0.00984088      -0.00236505      -0.00409216
C        1.27464527      11.47094948       2.83347535      -0.01484168      -0.00685742      -0.00689161
C        2.74050403      11.49284729       0.77371598      -0.00843546      -0.00083390      -0.00323549
H        1.61070826      13.15749205       1.55847577      -0.00900555      -0.00276834      -0.00023302
H        2.18395002      11.57191033       3.43024534      -0.01799047      -0.00815028      -0.00204800
H        0.43171834      11.95795216       3.32596264      -0.01692900      -0.00813033      -0.00918965
H        1.07717705      10.40076816       2.73821029      -0.01499250      -0.00633666      -0.01128873
H        3.62753544      11.63969708       1.38890825      -0.00923637      -0.00385712      -0.00144380
H        2.88737259      11.94273483      -0.20815067      -0.00623292       0.00211033      -0.00161226
H        2.64672195      10.41054741       0.66959576      -0.00854637      -0.00056154      -0.00701106
H        0.21504030      10.92872207       0.50141169      -0.00618246       0.00205076      -0.01362756
O        2.87426443       5.91364349      12.34495019       0.00888360      -0.00584784       0.00976023
C        3.38312173       7.05307959      11.61467762      -0.00284284      -0.00241921       0.00661829
C        4.36587331       7.82570779      12.47327262       0.00401804      -0.00183097      -0.00196916
C        4.01684854       6.54498015      10.33840121      -0.01563346       0.00041267      -0.00076580
H        2.53055995       7.69421937      11.35613967      -0.00741678      -0.00398919       0.01710051
H        4.79743808       8.64805220      11.90008901      -0.00553843       0.00158487      -0.00416525
H        3.92075288       8.24839363      13.37423848       0.01232746      -0.00634510       0.00420117
H        5.18308404       7.16769442      12.78288983       0.00953288      -0.00046231      -0.01464305
H        4.28903696       7.37129950       9.68384169      -0.02410903       0.00224262      -0.00214570
H        3.33358492       5.89534895       9.78900807      -0.02078639       0.00029144       0.00573608
H        4.93778364       5.99551052      10.55180582      -0.01293063       0.00131087      -0.01145361
H        3.02058044       6.01102850      13.31434107       0.00536360      -0.00144395       0.00958046
