199
Lattice="13.300452286415258 0.0 0.0 0.0 13.300452286415258 0.0 0.0 0.0 13.300452286415258" Properties=species:S:1:pos:R:3:forces:R:3 energy=-410040.5 stress="-0.0003816156822722405 0.000598781363805756 0.0003351183549966663 0.000598781363805756 -0.00025102714425884187 0.00013942234363639727 0.0003351183549966663 0.00013942234363639727 -9.508265793556347e-05" pbc="T T T"
Pr      12.30888738      14.33303420       0.13936268      -0.00981393       0.00778089      -0.00308266
Cl       7.91823961      12.46806563       7.70914218      -0.01201648      -0.00749469      -0.01184678
O        9.04813371      13.44773971       7.89370217       0.00342834      -0.00753784      -0.03637820
O        8.05675399      11.49900179       8.86819772       0.00930969      -0.00071990      -0.01118195
O        6.65682878      13.19365216       7.86821893       0.00277615      -0.00336814       0.00437999
Cl       5.46012704      11.17369170       0.38173416      -0.00354958      -0.00630069       0.00216162
O        4.30982178      12.03013476       0.03638438      -0.00704908      -0.00821280      -0.01542515
O        5.39841813      10.84985761       1.82276737      -0.01384512       0.00641584       0.00013804
O        5.26063494       9.85139369      -0.35422287       0.00908104      -0.00723124       0.00563872
Cl      11.65197265      11.59775737       1.29900316       0.03281859       0.00527310       0.00678283
O       10.76347800      12.46926869       0.31368398       0.02317947      -0.00431529       0.00476247
O       13.03409981      12.38650187       1.35176247       0.03133237       0.00703129      -0.01443323
O       11.64503571      15.53545200       1.36329108       0.00795853       0.01221955      -0.00338215
O        4.89894631       7.92518570       3.65852255       0.00606938      -0.00563729      -0.00126952
C        4.36865372       8.98251800       4.45245300       0.00562520      -0.00889517       0.00373855
H        3.27782013       8.93788802       4.51066237       0.00272089      -0.01292831       0.00316237
H        4.66239531       9.95005935       4.04322933      -0.00029103      -0.00674722       0.00250098
H        4.77517553       8.88802469       5.45883340       0.00472626      -0.00798668      -0.00004280
H        4.56045925       8.00827661       2.73073743       0.00679421      -0.00456685       0.00088440
O        7.38060761       4.31199531       8.48896590      -0.01601064       0.00126821      -0.01622478
C        7.76572785       2.94635805       8.27251630       0.00213632      -0.00443919       0.01554571
H        7.76969133       2.69260112       7.21066030       0.00979600      -0.01766027       0.00923362
H        7.10871835       2.24955282       8.79055192      -0.00951615       0.00241098       0.00914475
H        8.77664659       2.82228054       8.65479307      -0.01141965       0.00226065       0.02141486
H        6.51743722       4.44273109       8.04514448       0.00764009      -0.00528061      -0.01922012
O        3.97300641       8.05207579       1.17356800      -0.00285488      -0.00943142       0.00003399
C        2.61698942       8.43448182       0.97223587       0.00303781       0.00160284       0.00656071
H        2.27080332       8.12537482      -0.01903308      -0.00461306       0.01404116       0.00703278
H        2.48564007       9.51522002       1.06487988       0.00714069       0.00193322       0.01896682
H        2.00709253       7.93704781       1.72629853       0.00296859      -0.00275500       0.00599641
H        4.52314160       8.68889681       0.65877288       0.00351377      -0.00687717      -0.00487804
O        1.29433108       1.78789479      13.21667022      -0.00186212       0.00195223      -0.01593843
C        2.29771051       1.02571328      12.51152198       0.00384411       0.00040150      -0.00331867
H        1.79111821       0.38063086      11.79452427      -0.00301449      -0.02298951       0.00962715
H        2.88264649       0.40946946      13.19126048       0.00586355       0.01330167       0.00255331
H        2.96024606       1.70233857      11.96887740      -0.00849380      -0.01350173      -0.02353992
H        1.78252236       2.54392557      13.66880755       0.00371130       0.00317568      -0.01359275
O        7.16322906       9.18425517       7.54968109       0.00942484       0.00426954       0.01205999
C        7.24474918       7.90684216       8.13966624       0.00705548      -0.00310016       0.00707746
H        6.58116935       7.80213665       9.00230515       0.01026303       0.00082051       0.01248729
H        8.26112003       7.66327511       8.46749400       0.01050872      -0.00178766       0.00592355
H        6.95711888       7.17942149       7.37829298       0.00553950      -0.00146230       0.01285744
H        7.46730854       9.86099660       8.18004496       0.00809331      -0.00610980       0.00203528
O        3.03707719       5.08995604       8.65527538       0.01234156      -0.00829005      -0.00531882
C        2.37534301       3.84081190       8.81650235      -0.01498970      -0.00460058       0.01193089
H        3.08837291       3.02500339       8.95270004      -0.01327837      -0.00856188       0.01359979
H        1.74598042       3.59967845       7.95393470      -0.00379306      -0.00671611      -0.00475743
H        1.74741350       3.91124857       9.70527227      -0.01488706      -0.00005046      -0.00824940
H        3.77170887       4.95922924       8.01709562      -0.01552101      -0.00583214       0.01418500
O        2.31533212      10.73664706       6.33162837       0.00512022      -0.00693028       0.01026721
C        0.94042008      10.39456460       6.22256398      -0.00224280      -0.00085784      -0.00710708
H        0.79946329       9.32068078       6.36716632       0.00149953      -0.00505275       0.00244980
H        0.59910531      10.64567932       5.21997647       0.00200290      -0.00772990       0.00164565
H        0.32568151      10.93184570       6.95074081      -0.00128958      -0.00149423      -0.00207004
H        2.61843808      10.35287669       7.18380505      -0.00216262       0.00232087      -0.00657443
O        7.21953582       8.65602279      11.39738056       0.01337636      -0.00884891       0.00449282
C        6.82917668       7.35056212      11.76146821       0.00143819      -0.00119472       0.00246923
H        5.79194491       7.13338155      11.47763222       0.00112391       0.00394001       0.00330299
H        6.92407050       7.17586335      12.84022092       0.00527614      -0.01002475      -0.00008243
H        7.47510638       6.64579910      11.23562066      -0.00186867      -0.00506893      -0.00521684
H        6.61406245       9.25894954      11.86545786       0.00778881      -0.00035854       0.01267269
O        2.73084689       3.69492828       0.85714467      -0.00416339      -0.00387901      -0.00379485
C        3.26498343       4.66429233      -0.03854806       0.00105903      -0.00292949      -0.00204638
H        4.29628138       4.42422462      -0.31293857       0.00158066      -0.00697404      -0.00267038
H        3.24788281       5.66128006       0.40561778       0.00599135      -0.00514436       0.00027029
H        2.65609937       4.66570455      -0.94193999       0.00291577       0.00165013      -0.00255391
H        3.12527273       3.84246527       1.75166406      -0.01153348      -0.00537218      -0.00506029
O        1.54806514       7.19475351       9.42368567      -0.00804323      -0.00149260       0.00084427
C        0.30961668       6.86540214       8.80899269       0.00195840      -0.01482298       0.00051808
H       -0.14920509       5.98867755       9.28065005      -0.00263557      -0.00694540       0.00440799
H        0.42808778       6.65980610       7.74408585      -0.00011888      -0.02013886       0.00039881
H       -0.36689316       7.70638107       8.94305001      -0.00224935      -0.00782254      -0.00822613
H        2.18595509       6.49022790       9.17492796       0.00157129      -0.01260193       0.00423118
O        9.13162521      13.06694130       3.23145326      -0.02234934       0.02195001       0.00471628
C        8.15150999      13.03678279       2.18355360      -0.02241470      -0.00129098       0.00289606
H        8.14716440      13.97986826       1.63284343      -0.03947128       0.00493649       0.00637828
H        7.15914757      12.83825976       2.58449087      -0.00930989      -0.03696287      -0.00488529
H        8.44576042      12.24059622       1.50527354       0.00644204       0.01704660      -0.00938889
H        8.86886883      13.74200149       3.86417081      -0.04718778       0.00479248       0.00561080
O        3.12860345      12.66503115       4.61835226       0.00132434       0.00734274       0.00423211
C        2.49855716      12.14947938       3.43998446       0.00060438       0.00625748       0.00740692
H        1.40947569      12.19632354       3.51090391       0.00033027       0.01053723       0.00629456
H        2.80342083      11.12002792       3.25090350      -0.00034484       0.01007348       0.00479305
H        2.82248926      12.75037894       2.59291207       0.00152867       0.01119339       0.00679022
H        2.94286870      12.03423150       5.34868399      -0.00274434      -0.00106889       0.00916749
O        5.60903765       0.73506098       4.06038509      -0.00935638      -0.01253617      -0.00045824
C        5.08065116       1.19411034       2.82828390      -0.00122541       0.00833216       0.00026417
H        5.77596690       1.93358187       2.42734633      -0.00027156       0.00147390       0.00561243
H        4.11064463       1.68326174       2.96048942       0.00067586       0.01268199       0.00767632
H        4.97609865       0.38534076       2.09706384      -0.01221245       0.01152259      -0.00590843
H        4.92999360       0.16370467       4.45233833      -0.00597347      -0.00080599      -0.00746182
O        9.60677122       4.09846801       4.82898051       0.00014293      -0.00708614       0.00997466
C       10.66777282       3.15087136       4.94257704      -0.00494707      -0.00824133       0.02296071
H       10.97197889       2.86791653       3.93592762      -0.01515087      -0.02818252       0.01885709
H       10.33445623       2.25837062       5.47947704      -0.00449626       0.00340515       0.03744970
H       11.53124053       3.57964196       5.45744125       0.00184616      -0.00662482       0.00489894
H        9.47173209       4.52072340       5.71295505       0.00136524       0.00420353       0.01348446
O        3.18441305       0.61410639       7.74094408       0.01955120       0.00255734       0.00738132
C        2.98821892      -0.27883289       8.81986851      -0.00172301       0.00178653       0.00347930
H        2.26208735      -1.06179372       8.59111544       0.00029728       0.00638962      -0.00665358
H        2.66404326       0.24589210       9.72600631      -0.00586519       0.00057164       0.00090310
H        3.94949783      -0.74717984       9.02584578      -0.00214529      -0.00610325       0.01455184
H        2.33952826       0.89912601       7.37013233       0.02273750       0.00081141      -0.00413398
O       -0.32195046       5.67107002       4.95224879      -0.00578377      -0.00347728      -0.01254784
C        0.28432790       6.93543629       5.11873464      -0.00019768      -0.00091928      -0.01270552
H       -0.37013584       7.63720096       5.64100687      -0.00987944       0.00480765      -0.03144401
H        0.56579008       7.40185595       4.16873676       0.01185648      -0.01270203      -0.01611429
H        1.19283057       6.80089542       5.70825703      -0.01179165       0.00468251      -0.00126860
H       -1.06026411       5.77511378       4.31559174      -0.00058424      -0.00590464      -0.00297350
O        3.56196372       4.27916453       3.27245741      -0.01107240      -0.00663853      -0.00832086
C        2.52370159       5.04185688       3.87661242       0.00375099       0.00388149      -0.00225853
H        2.78646574       6.10200682       3.90799858      -0.00022408       0.00233424      -0.02088278
H        2.31283128       4.68968160       4.88932539       0.01155090       0.01432338       0.00003991
H        1.61820348       4.91733262       3.28801480      -0.00927818      -0.00573746       0.00622170
H        4.39958492       4.61090569       3.65634111       0.00024069      -0.00827540      -0.00758461
O       12.66048917       9.47877500       2.97619807      -0.00301650       0.00659239       0.00629878
C       12.29160546       8.53020919       1.99705903      -0.00015416       0.00341779       0.00200540
H       11.21455520       8.54316156       1.79902179      -0.00702345      -0.00568360       0.01342943
H       12.56402542       7.50980105       2.28463630       0.00452350       0.00391212       0.00419635
H       12.81385279       8.78969995       1.07501399      -0.01383170       0.00242588       0.00223395
H       12.13426942       9.31764315       3.78203976       0.00288135       0.01241400      -0.00204050
O        2.78970203       9.49501080       8.65565219       0.00676501       0.00383551       0.00625197
C        4.12480685       9.08696851       8.93623463       0.00661686       0.00757817       0.00975308
H        4.30998081       8.07271706       8.57053202       0.01209434       0.00791192       0.00652184
H        4.33221731       9.12497863      10.00895755       0.00672974       0.00694533       0.00741726
H        4.80893523       9.75949638       8.42321471       0.00362629       0.01138878       0.00902519
H        2.21123450       8.75311201       8.92792508       0.00538579      -0.00547829       0.00574009
O        9.30069233       5.40518264       7.09687501       0.00876617       0.01176186       0.00976558
C       10.42643729       5.48426003       7.95185338       0.01441389       0.00932593      -0.00307512
H       10.56327367       4.56004742       8.52544966       0.02903980       0.00612471      -0.01411319
H       10.33332047       6.31917843       8.65438117       0.02583826       0.00363800       0.00218439
H       11.30920893       5.64057693       7.33256445       0.00912005       0.01735196      -0.01677588
H        8.52259772       5.09569244       7.63148449       0.01074251       0.00581910       0.01683933
O        5.47928226       5.61673249       4.61436116       0.00881869      -0.00932929      -0.00601600
C        6.85947488       5.34252974       4.36608333       0.01198705       0.01208647      -0.00807429
H        7.50302216       6.06714956       4.86718986       0.00368315       0.01443371      -0.00228208
H        7.07470723       5.35222025       3.29578031       0.01245151       0.02356216      -0.00752267
H        7.08112655       4.35031586       4.75064770       0.02574496       0.01025808      -0.01599754
H        5.25500293       6.53632811       4.26997402       0.00136106      -0.00919196      -0.00263284
O        1.86946015       1.62835348       5.59589125       0.00143540      -0.01392740      -0.00624162
C        0.97756156       2.06639217       4.58684162      -0.00726402       0.00181109       0.00044450
H        0.15946604       1.35813758       4.42815189      -0.00527170       0.00290385      -0.00649643
H        1.50309942       2.21910809       3.63908024      -0.01115856       0.01651141       0.00154832
H        0.55403072       3.02143741       4.89421706      -0.00873522      -0.00342235       0.01546833
H        2.36577695       0.85818542       5.24840607      -0.00923775      -0.00535635      -0.00866698
O       11.67538478       0.61229663      11.16159544       0.00117328      -0.01297483      -0.01015985
C       11.82423207       1.35709848       9.94109193       0.00353626       0.00509871      -0.00008416
H       10.84024055       1.60967625       9.54023056       0.00623137       0.00315519      -0.00838837
H       12.35131465       0.76094355       9.19674280       0.00851032       0.00486249      -0.01124930
H       12.37055474       2.27316526      10.16171088       0.00105950      -0.00840595       0.00748127
H       11.06394900      -0.17444439      10.94338965       0.00286557      -0.00829877      -0.00929447
O        8.91646488      10.58973416       4.29105899       0.00578547       0.01358962       0.00635684
C        7.51668633      10.33611422       4.41180336       0.00756538       0.00569753       0.00027659
H        7.10966789       9.92186381       3.48774254       0.01138675       0.01163885      -0.00353521
H        6.97604504      11.25800852       4.64457100       0.00118762      -0.00235274       0.00931021
H        7.36821146       9.63734569       5.23289447       0.01191447      -0.00499666      -0.00630224
H        9.05555674      11.48739563       3.92915803       0.00315000       0.01381634       0.00464336
O        5.07067065       4.44229234       6.97758738      -0.00295977       0.00293866       0.00192773
C        4.86200736       3.10097585       6.47133643      -0.00425751      -0.00066611       0.00501531
H        4.79456452       2.42217880       7.31655859       0.00742080       0.00369896       0.00305679
H        5.69215493       2.78950433       5.83737687      -0.00749499       0.00431003      -0.00563951
H        3.93280894       3.03903150       5.90496849      -0.00960281      -0.00189175       0.01154430
H        5.16769491       5.02472396       6.18960040       0.00248246       0.00149985      -0.00219762
O       10.16972162      11.99963136      10.48753407       0.00478747      -0.00639972       0.00510460
C       10.40713934      10.65128118      10.87296017      -0.01564437      -0.00710121      -0.01483507
H       10.37266633       9.99419513      10.00212987      -0.00660527      -0.00308910      -0.00665411
H        9.66943950      10.31784372      11.60635976      -0.01059923      -0.01028045      -0.01118156
H       11.40092654      10.58491172      11.30925079      -0.00679070      -0.00846794      -0.00286677
H        9.38683015      12.01638389       9.89719534      -0.01504841      -0.00901501      -0.01423302
O       10.99688277       9.28679217       5.21530591       0.00390075      -0.00895295      -0.00627053
C       10.75356838       9.01349262       6.58399679      -0.00288235       0.00406866      -0.00590307
H       10.54805712       9.92787794       7.15024133      -0.00624316       0.00929993      -0.01542582
H       11.64751802       8.55160324       7.00360232      -0.00389186       0.00877346       0.00240235
H        9.91588646       8.32074777       6.71117130      -0.00275317       0.00536066      -0.00306959
H       10.19337277       9.73583094       4.85977515       0.00499078      -0.00553748      -0.01162182
O       10.79078425       5.91942487       3.35011619      -0.01711503      -0.00071144       0.00635833
C       10.56693423       5.41110848       2.04562206      -0.00633188       0.01877184      -0.00697041
H        9.85318837       6.04018798       1.50210794      -0.00353810       0.02117607      -0.00250916
H       10.18215361       4.39015813       2.08617703      -0.00676347       0.01353604      -0.01705892
H       11.50699422       5.38875504       1.49024401      -0.00324970       0.02243422       0.00313798
H       10.25743064       5.35202556       3.95818160      -0.01162032      -0.00703244      -0.00479303
O       11.26926669       3.43355511      12.37532975      -0.00038379      -0.00284286      -0.02482796
C        9.95298471       3.53147556      11.83528845      -0.00708327      -0.00550292       0.01146922
H        9.34228517       4.23611572      12.40593944       0.00333589      -0.00323457      -0.00652295
H        9.44467516       2.56191498      11.81067466      -0.00383773      -0.00137752       0.00153724
H       10.03660963       3.89752026      10.81359685      -0.00898462      -0.00327252      -0.01454216
H       11.21052686       3.30456459      13.35450216       0.00172698      -0.00592403      -0.00116551
O       11.80847024       7.84069232      11.20213455       0.00449127       0.00440300       0.02072817
C       10.63800880       7.29820183      11.79818072      -0.00796652      -0.00047604       0.00867276
H       10.70719109       7.28711188      12.88989854      -0.01329111      -0.00672783       0.00922334
H       10.43777128       6.28086987      11.45009488       0.00341369       0.00062165       0.00104094
H        9.80401101       7.93625396      11.51130112      -0.00739765      -0.00433761       0.00721423
H       12.54525128       7.24878938      11.37471040      -0.01002289       0.01731847       0.01624018
O       11.61738046      -0.71432231       7.38626609       0.00562117       0.00924315       0.00406981
C       11.74417748      -0.61914689       5.98121948       0.00246026       0.00646421      -0.00680923
H       11.08910423       0.14942643       5.56179171      -0.00190166       0.01310417       0.00647759
H       11.52130372      -1.56890159       5.48256898      -0.01337151       0.01033431      -0.00253719
H       12.77649964      -0.34715895       5.75547124      -0.00239062       0.00075869      -0.01808891
H       10.69213974      -0.50656194       7.61469113       0.02817421      -0.00806116       0.00230487
