183
Lattice="13.386281329229478 0.0 0.0 0.0 13.386281329229478 0.0 0.0 0.0 13.386281329229478" Properties=species:S:1:pos:R:3:forces:R:3 energy=-335649.5 stress="-0.0007074422319419682 -0.00011995837485301308 -0.000480801856610924 -0.00011995837485301308 -0.0013610614696517587 0.0004070748545927927 -0.000480801856610924 0.0004070748545927927 -0.0016825228231027722" pbc="T T T"
Pr      11.84404760      11.86408553      -0.85695232      -0.00091930       0.01657560      -0.02787019
O        1.35958739       9.22489362       9.05726003       0.00477946       0.00006747       0.00225061
O        1.66875425      11.22987863      10.05609845       0.00319386      -0.00203800       0.00736308
C        3.49035832      10.20504551       8.94493007       0.00304019       0.00320077       0.00158468
C        4.19561971      11.38288610       8.71899384       0.00284350       0.00434759       0.00386211
C        4.13665841       8.98079359       8.77701784       0.00355510       0.00430882      -0.00299759
C        5.52790449      11.33984984       8.32360905       0.00140806       0.00530377       0.00176062
C        5.47753126       8.93541020       8.42796247       0.00241819       0.00559080      -0.00503750
C        6.17530195      10.11722580       8.19495103       0.00197753       0.00652384      -0.00320198
C        2.03957091      10.22886885       9.39056453       0.00446796       0.00089183       0.00395834
H        3.68280219      12.32496226       8.86642856       0.00286119       0.00362961       0.00759657
H        3.56061797       8.07835974       8.93989861       0.00398166       0.00364229      -0.00434838
H        6.07236803      12.25899608       8.14245220       0.00147095       0.00636084       0.00379378
H        5.98422603       7.98078572       8.33184711       0.00270348       0.00603585      -0.00840818
H        7.22487470      10.08485089       7.93017890       0.00116952       0.00744215      -0.00528611
O        0.36261478      13.04630841       0.00424637      -0.00620154       0.00614116      -0.01592849
O       -0.00819417      10.94653099       0.56695979      -0.01591761       0.01317529       0.00404274
C        2.14068810      11.79929030       1.06898914      -0.01149875       0.00937169      -0.00696602
C        2.58444657      10.50861547       1.37783968      -0.00779995       0.01094797      -0.00533516
C        2.97424088      12.89511686       1.30256662      -0.01300250       0.01169118      -0.01212487
C        3.84484286      10.31684502       1.91261752      -0.00508583       0.01527260      -0.01150940
C        4.22793537      12.69683472       1.86432771      -0.01123333       0.01565717      -0.01714941
C        4.66350431      11.41180919       2.16993388      -0.00633547       0.01750520      -0.01752650
C        0.78388781      11.95901354       0.52379675      -0.01090862       0.00674529      -0.00452250
H        1.93024095       9.66868012       1.19426283      -0.00727748       0.00917315      -0.00085453
H        2.62922045      13.88998626       1.05619577      -0.01684261       0.01024969      -0.01305857
H        4.18120236       9.31616268       2.15329288      -0.00094559       0.01653434      -0.01174078
H        4.86745802      13.54482579       2.07229253      -0.01281559       0.01796354      -0.02108293
H        5.63516922      11.26024925       2.62328206      -0.00384967       0.02075494      -0.02302167
O       10.03879625      12.11456260      11.43150785       0.00000191       0.01045610      -0.00420348
O        8.71752147      13.87190191      11.05207964      -0.00601486       0.04360771       0.00342032
C        7.67773997      11.74475789      11.33188823      -0.00674415       0.03117648       0.00505076
C        6.41283947      12.27135807      11.59867712       0.00452127       0.00197598       0.00488779
C        7.82887754      10.36321872      11.21071465       0.00411060       0.00970653       0.00027502
C        5.32954853      11.42751510      11.78606675      -0.01175286       0.01196246       0.00779841
C        6.73854062       9.52384091      11.37063736      -0.01767919       0.00854327       0.00524306
C        5.49199528      10.05119452      11.68217029      -0.00076765       0.01027773       0.00346249
C        8.83224125      12.67838134      11.23301750      -0.01477215      -0.03781110       0.00748855
H        6.29929565      13.34325068      11.66191289      -0.00466244       0.01460290       0.00914850
H        8.79772212       9.95069147      10.97996707      -0.01025776       0.01159343       0.00141095
H        4.34756569      11.83684606      11.98538625      -0.00426178       0.01100069       0.00819549
H        6.86204028       8.45475452      11.24536114      -0.00751819       0.01073258       0.00225695
H        4.64014622       9.39657815      11.80917024      -0.00722937       0.01171440       0.00528209
C       11.44722019       7.76097465      11.18880739      -0.00233257      -0.00276396       0.00144560
C       10.09872978       7.06099040      11.30466773      -0.00221473      -0.00295144       0.00367596
C       11.28610630       9.27730076      11.11671705      -0.00242466      -0.00287081      -0.00291333
C       10.18417917       5.54032450      11.30724317      -0.00010169      -0.00294542       0.00201934
C       12.58091714      10.02057747      10.82415301      -0.00089514      -0.00592498      -0.00550257
C        8.81292443       4.87961380      11.32942273       0.00065342      -0.00455250       0.00008599
H       12.09676223       7.47894600      12.02426796      -0.00218150      -0.00018764       0.00209984
H       11.96051758       7.43441224      10.27841708      -0.00284348      -0.00560088       0.00259635
H        9.46199957       7.38222330      10.46993999      -0.00344501      -0.00303433       0.00507671
H        9.58414902       7.39679265      12.21544166      -0.00033647      -0.00402511       0.00466344
H       10.57164007       9.51397795      10.32378860      -0.00234446      -0.00534412      -0.00348678
H       10.78948948       9.61835014      12.05537886      -0.00026015       0.00137692      -0.00421129
H       10.74084723       5.20848724      10.42433354       0.00041753      -0.00080881       0.00185126
H       10.77044266       5.21400967      12.17029081      -0.00029457      -0.00324988       0.00168505
H       13.27093228      10.07616650      11.68037622      -0.00277985      -0.00141272      -0.00447308
H       12.43850538      11.03227009      10.39882042       0.00089722      -0.00789554      -0.01067798
H       13.20024947       9.53558211      10.04698972       0.00057113      -0.00912347      -0.00171408
H        8.23302973       5.21665787      12.19280805      -0.00012344      -0.00721989       0.00037238
H        8.24033956       5.13752531      10.43504658       0.00102341      -0.00398307       0.00055875
H        8.88114345       3.79232109      11.37716750       0.00235992      -0.00467598      -0.00163285
C       10.17763189       6.83002707       6.80353540       0.00208262       0.00019926      -0.00251424
C        9.73757843       8.25077257       7.13275215       0.00179848       0.00008591      -0.00302526
C        9.42190401       5.77114167       7.59636205       0.00157991      -0.00024568      -0.00369984
C       10.49962656       9.32016377       6.35907597       0.00472045      -0.00039520      -0.00075036
C        9.81492555       4.34634407       7.23387211       0.00346524       0.00046936      -0.00380689
C       10.03303565      10.73222339       6.68559288       0.00445850      -0.00014308      -0.00269337
H       10.04986861       6.64772805       5.72917741       0.00353658       0.00022594      -0.00254580
H       11.25087713       6.72874760       6.99751599       0.00174326       0.00036591      -0.00115831
H        9.86421419       8.42686762       8.20853414      -0.00107794      -0.00033671      -0.00293872
H        8.66355730       8.35247698       6.93481144       0.00251406       0.00085115      -0.00609580
H        9.59915422       5.94008448       8.66115761       0.00027879      -0.00041591      -0.00341025
H        8.34660180       5.90397049       7.44492161       0.00195763      -0.00097959      -0.00504843
H       11.56874177       9.22462990       6.57199936       0.00388756      -0.00080807       0.00290218
H       10.38400547       9.13289172       5.28533695       0.00832104      -0.00051780      -0.00095665
H        9.60233292       4.13762486       6.18268931       0.00478170       0.00067316      -0.00400132
H        9.27359454       3.61483996       7.83614320       0.00354612      -0.00048469      -0.00465760
H       10.88301189       4.18114238       7.39051178       0.00329436       0.00150479      -0.00280136
H        8.97872294      10.86670780       6.43226578       0.00593303       0.00083201      -0.00750314
H       10.14412845      10.94555119       7.75181994       0.00005010      -0.00018469      -0.00246027
H       10.60527416      11.48364434       6.13959131       0.00748618      -0.00082944      -0.00041580
C        8.58410616       9.12639685       1.80821504       0.01313552       0.00081140      -0.00179669
C        8.66098594      10.58637683       1.36483798       0.01377374       0.00300545       0.00564764
C        7.36353511       8.38987283       1.26831793       0.00630429       0.00741445       0.00572237
C       10.03460556      11.20461708       1.61642728       0.02131978      -0.00834644      -0.01418132
C        7.34089218       6.91315146       1.63504132       0.00580646       0.00603524      -0.00020252
C       10.13347298      12.68791641       1.26231193       0.02666132      -0.00603166      -0.00307397
H        9.48374555       8.60274685       1.46384492       0.00809672      -0.00009879      -0.01324426
H        8.60295879       9.06879002       2.90385206       0.02322370      -0.00556395      -0.00279564
H        7.89315977      11.17831754       1.87406750       0.02673878       0.00329818       0.02367789
H        8.42769155      10.65114316       0.29804476      -0.00332513       0.01182316       0.01135039
H        6.45054602       8.88088495       1.61950365       0.01109770       0.00804514       0.01689050
H        7.34993045       8.49377999       0.18223141      -0.00342828       0.01272067       0.00695360
H       10.32645139      11.07191014       2.66409625       0.03849583      -0.01915663      -0.02081630
H       10.78475229      10.60499291       1.06414698       0.00592328      -0.00858039      -0.03192267
H        8.22262612       6.40257581       1.24134588       0.00203034       0.00627200      -0.00885332
H        6.46018274       6.41028374       1.22987060       0.00187826       0.00938417       0.00403391
H        7.33803300       6.76966504       2.71519458       0.01350579       0.00152575      -0.00107160
H        9.77017112      12.90851010       0.24897847       0.01395409       0.00421582       0.00397433
H        9.50188528      13.28412000       1.92305168       0.04232164      -0.00728892       0.01055911
H       11.15444738      13.08578378       1.38692601       0.03132214      -0.01549914      -0.01518393
C        3.81059800       4.36037630       4.75234793      -0.00336194      -0.00689662      -0.00078357
C        2.29587625       4.34740614       4.91270601      -0.00242466      -0.00863034       0.00608887
C        4.44356268       2.97432944       4.75440366      -0.00183964      -0.00602627      -0.00026105
C        1.68903968       5.74573165       4.93201312      -0.00486585      -0.00987124       0.00489338
C        5.96249082       3.01961429       4.64632079      -0.00242403      -0.00479698      -0.00490793
C        0.22577048       5.76321213       5.34184967      -0.00116313      -0.01087183       0.01695910
H        4.07805609       4.88124058       3.82463933      -0.00803091      -0.00883827      -0.00311148
H        4.24513188       4.95511910       5.56411397      -0.00060077      -0.00456566      -0.00414512
H        2.04140172       3.83341843       5.84670084       0.00300805      -0.00639607       0.00870031
H        1.84163369       3.75857483       4.10697458      -0.00505176      -0.01194595       0.01016107
H        4.15463705       2.45080785       5.67163820       0.00160112      -0.00465105       0.00150052
H        4.02940017       2.38632843       3.92849455      -0.00371788      -0.00804216       0.00220355
H        2.25727588       6.37362811       5.62130694      -0.00060023      -0.00577718      -0.00255701
H        1.81026779       6.20912280       3.94614487      -0.01413862      -0.01410350       0.00200373
H        6.27393756       3.52541441       3.72908251      -0.00574547      -0.00592071      -0.00662991
H        6.40103886       2.02024686       4.64016222      -0.00146806      -0.00424628      -0.00472240
H        6.39774156       3.56824551       5.48501170      -0.00046450      -0.00306936      -0.00722393
H       -0.38952045       5.17205969       4.66041039      -0.00560053      -0.01581301       0.02560921
H        0.10130938       5.34680083       6.34329122       0.00841574      -0.00574766       0.01997870
H       -0.17288422       6.77872732       5.35485809      -0.00332885      -0.01188549       0.01510045
C       11.36600312       6.19234658       1.52677284       0.00254847      -0.01830562       0.00884378
C       10.73666057       5.04625098       2.29986991      -0.00492739      -0.01511695       0.00657386
C       11.90213203       7.29202458       2.42773543       0.00242673      -0.02156599       0.01189512
C       10.14084835       3.96518666       1.41180518      -0.00682191      -0.01197413       0.00431538
C       12.54965035       8.41549392       1.64859120       0.01094651      -0.02558923       0.01394698
C        9.50658518       2.83936126       2.21215438      -0.01365452      -0.01053327       0.00053224
H       12.17656355       5.81375938       0.89230727       0.00422499      -0.02139039       0.01299821
H       10.62524361       6.61901581       0.83933954       0.00758314      -0.01580597       0.00515015
H        9.95419412       5.44510271       2.95721873      -0.00527340      -0.01155463       0.00371347
H       11.48860124       4.60177460       2.96182794      -0.00929347      -0.01838638       0.00906026
H       11.08341461       7.68678994       3.03965334       0.00217891      -0.01630627       0.00745538
H       12.62487529       6.87006474       3.12793861      -0.00055555      -0.02178952       0.01313698
H        9.39126361       4.41173219       0.75200988      -0.00318831      -0.00831875       0.00279465
H       10.91945091       3.56642208       0.75221213      -0.00690979      -0.01465210       0.00590369
H       13.43559074       8.07351153       1.10892672       0.01123708      -0.02845280       0.01620812
H       12.84968399       9.24693438       2.28444715       0.01159752      -0.02450687       0.01189138
H       11.86410502       8.80967647       0.89298296       0.01852459      -0.02202478       0.01162490
H       10.25606007       2.31505704       2.81060489      -0.01800212      -0.01424500       0.00217111
H        8.75502869       3.23069447       2.90127207      -0.01500112      -0.00932059      -0.00184697
H        9.01501756       2.11508154       1.56197266      -0.01353618      -0.00791872      -0.00295278
C        3.78884728       9.51393011       5.36412969      -0.00360870       0.00357455      -0.00766967
C        4.46873758       8.15683481       5.26030917      -0.00327069       0.00358397      -0.00543630
C        2.27547465       9.42505914       5.52465816      -0.00335988       0.00250196      -0.00602600
C        5.97888887       8.22320288       5.05967941      -0.00332168       0.00374916      -0.00534131
C        1.61810700      10.79618152       5.59729341      -0.00452559       0.00184903      -0.00602636
C        6.64166516       6.86600446       5.24865687      -0.00293110       0.00438291      -0.00322452
H        4.20740462      10.05950706       6.21273108      -0.00325489       0.00530571      -0.00903401
H        4.02103343      10.10983972       4.47720857      -0.00484781       0.00190087      -0.00913504
H        4.02495091       7.57706520       4.44257435      -0.00326996       0.00213747      -0.00425616
H        4.26081296       7.59061243       6.17558640      -0.00312826       0.00543737      -0.00440088
H        1.85642093       8.85816754       4.68425294      -0.00373304       0.00151834      -0.00500080
H        2.03701021       8.86910287       6.43741978      -0.00159498       0.00295188      -0.00545502
H        6.20005766       8.61010078       4.05838090      -0.00340305       0.00212982      -0.00579032
H        6.40410772       8.94164712       5.76540104      -0.00382918       0.00494023      -0.00649643
H        1.99614984      11.35889005       6.45248153      -0.00426650       0.00305952      -0.00706938
H        0.53576206      10.71620991       5.71075621      -0.00412536       0.00088995      -0.00410894
H        1.82407316      11.37875932       4.69543578      -0.00638781       0.00109924      -0.00695640
H        6.45621583       6.48915058       6.25741468      -0.00268824       0.00594393      -0.00274026
H        6.23822922       6.12693541       4.55505166      -0.00253329       0.00331612      -0.00228667
H        7.72342788       6.90688307       5.10553600      -0.00303137       0.00471792      -0.00323790
C        5.09184555       3.52292966      10.96324573      -0.00121069       0.00597557       0.00616066
C        3.74044425       3.92751466      10.38805351      -0.00058132       0.00175223       0.00192612
C        4.98279933       2.56695879      12.14688560      -0.00198647       0.00722581       0.00648522
C        3.84029268       4.86097035       9.18639334       0.00016111       0.00118609       0.00165835
C        6.32310971       2.31877091      12.82780116      -0.00331461       0.01250130       0.01173213
C        2.48293410       5.36165507       8.71168717       0.00016350       0.00039285       0.00100209
H        5.70679691       3.06109882      10.18201106       0.00200455       0.00605567       0.00795496
H        5.63149941       4.42422766      11.27693770      -0.00417602       0.00738373       0.00569898
H        3.15129498       4.41652946      11.17233102      -0.00349636       0.00099188       0.00016701
H        3.17750531       3.03076093      10.10413134       0.00240166       0.00042519       0.00146975
H        4.26870860       2.97350568      12.87091042      -0.00513810       0.00645794       0.00411129
H        4.55243307       1.61982551      11.80229921       0.00207256       0.00588176       0.00732918
H        4.47520268       5.71474602       9.44876418      -0.00045069       0.00134292       0.00154801
H        4.35420390       4.34199642       8.36923526       0.00050379       0.00092356       0.00231832
H        7.07034830       1.96166658      12.11700467      -0.00048834       0.01316659       0.01467504
H        6.23972881       1.57370842      13.62242707      -0.00364605       0.01464009       0.01263978
H        6.70738172       3.24001063      13.27205870      -0.00747351       0.01459819       0.01033178
H        1.82841778       4.52508564       8.45662358       0.00057884       0.00013450       0.00148593
H        1.98587864       5.95173477       9.48383227      -0.00003103       0.00072703       0.00049609
H        2.56882300       5.99884724       7.83080621       0.00016749      -0.00016104       0.00066717
