197
Lattice="13.429582432526 0.0 0.0 0.0 13.429582432526 0.0 0.0 0.0 13.429582432526" Properties=species:S:1:pos:R:3:forces:R:3 energy=-336726.375 stress="-0.0007983132381923497 -9.628607585909776e-05 -0.0002565993054304272 -9.628607585909776e-05 -0.0006785664008930326 -0.0001889191407826729 -0.0002565993054304272 -0.0001889191407826729 -0.0011947284219786525" pbc="T T T"
N       11.32156314      11.22929869       0.47966383      -0.00841266       0.00267383       0.02554468
C       10.02150613      11.44509962       0.22384939      -0.00777766      -0.00026092       0.02033027
C       11.81284131      10.00370940       0.72173542      -0.00453442       0.00390655       0.02048123
C        9.14373073      10.38605147       0.18816341      -0.00342229      -0.00368062       0.00950924
C       10.97282277       8.91292989       0.70078736       0.00002590       0.00069135       0.00918574
C        9.61971181       9.10497912       0.45230408       0.00072511      -0.00325406       0.00288489
H       11.90271453      12.06281900       0.77676822      -0.01113313       0.00555497       0.02458414
H        9.73523652      12.48121491       0.10388773      -0.01049748      -0.00080693       0.02452123
H       12.86009265       9.95320486       0.97800051      -0.00555684       0.00649474       0.02544847
H        8.09856822      10.56301280      -0.01858616      -0.00335237      -0.00738411       0.00564767
H       11.36827247       7.93013338       0.90119742       0.00260402       0.00100578       0.00530232
H        8.95037884       8.25478128       0.46885164       0.00386985      -0.00588229      -0.00639213
I       11.88156189      12.48015284       3.45056889       0.01148484       0.02414364       0.01593786
O       10.10465961      12.32443957       3.32010569       0.01043075       0.02639787       0.04035597
O       12.58297174      10.83866508       3.55975232       0.01672474       0.02428252       0.00270082
O       12.44754949      13.17334229       1.86208978      -0.01162031       0.02315959       0.00632823
O       12.42552461      13.50547987       4.79957089       0.03671464       0.02104104       0.00825328
O        6.36762427       9.30900036       9.07742285      -0.00581720       0.00301378       0.00328231
O        7.22951027      10.88774274      10.29675820      -0.00350092       0.00368433       0.00149252
O        6.93182032      11.26474789       8.08569371      -0.00830542       0.00005674       0.00642985
C        5.88973541       8.85008461       7.78153359      -0.00464602       0.00209183       0.00310370
C        5.38299081       7.44374325       7.93154157      -0.00525069       0.00244427       0.00542212
C        6.85074820      10.54998269       9.05390453      -0.00534824       0.00837392      -0.00389868
C        7.77829465      12.21492939      10.38416955      -0.00286555       0.00404269      -0.00069049
H        5.10597465       9.53631547       7.45453479      -0.00386906       0.00158995       0.00138307
H        6.71768942       8.90932519       7.07610243      -0.00397062       0.00033076       0.00423452
H        4.97135063       7.10501840       6.97991349      -0.00526498       0.00128107       0.00590318
H        6.18889887       6.77185165       8.22356651      -0.00581145       0.00259586       0.00679613
H        4.58835845       7.37916952       8.67554179      -0.00554904       0.00427343       0.00528060
H        8.68007747      12.29306007       9.78022648      -0.00973961       0.00624119      -0.00983106
H        8.01479060      12.36048473      11.43361423       0.00774782       0.00040190      -0.00258598
H        7.05944391      12.96067128      10.04999692      -0.00667611       0.00455268       0.00933187
O        1.57143481       8.66312826       4.96354646      -0.00158245      -0.00692080       0.00193475
O        1.53744379       6.93449129       3.67249753      -0.00046868      -0.00855942       0.00469611
O        2.64157329       6.78417058       5.64640310       0.01769328       0.00106788      -0.00385869
C        1.91206876       9.30818608       6.21066632       0.00459546      -0.00213814      -0.00238562
C        1.03950449      10.52753996       6.34018176      -0.00297055      -0.00834507       0.00326930
C        1.98422863       7.40550996       4.84572863       0.00507063      -0.00276172      -0.00106370
C        1.89003915       5.56704936       3.41477867       0.00457065      -0.00685744       0.00428909
H        1.74032528       8.60076530       7.01943750       0.01758528      -0.00205225       0.00035959
H        2.97885982       9.55063574       6.18801249       0.00248480       0.00569707      -0.01234098
H        1.22989873      11.01496596       7.29842038       0.00093573      -0.00574905       0.00108755
H        1.21498726      11.24421604       5.54050710      -0.01495071      -0.00857373       0.00039998
H       -0.00840075      10.23825658       6.29596273      -0.00088274      -0.01672436       0.01266659
H        2.96324267       5.42382947       3.52604861       0.00586993      -0.00130780      -0.00210610
H        1.59083146       5.38385295       2.38590630      -0.00090184      -0.01012476       0.00669289
H        1.35358154       4.90518141       4.09433296       0.01190196      -0.00841646       0.00852349
O        4.19745971       2.52921217       9.56456972      -0.00317324      -0.00635029       0.00102052
O        5.20356239       4.38042897      10.02764927      -0.00368552      -0.00629017       0.00242164
O        6.38122926       2.44740584      10.16891761      -0.00217950      -0.00545293      -0.00426096
C        4.19748375       1.09098687       9.45900017      -0.00210941      -0.00631918      -0.00180689
C        2.77568832       0.66897286       9.19802159      -0.00142896      -0.00677306      -0.00422566
C        5.36833176       3.06428430       9.94107107      -0.00245136      -0.00673246      -0.00063856
C        6.35672500       5.08858831      10.52517703      -0.00295232      -0.00628068      -0.00020634
H        4.87356359       0.79478647       8.65367842      -0.00094548      -0.00443871      -0.00106907
H        4.58398009       0.67255740      10.39073055      -0.00312445      -0.00762220      -0.00189158
H        2.71885347      -0.41709537       9.12630898      -0.00060458      -0.00675724      -0.00505529
H        2.12362331       0.99624579      10.00849313      -0.00300301      -0.00782903      -0.00516780
H        2.40470152       1.09544282       8.26640496      -0.00014495      -0.00653301      -0.00452460
H        6.64656566       4.70017379      11.49708925       0.00077998      -0.00758919      -0.00205946
H        6.05181365       6.12278374      10.62009624      -0.00371455      -0.00683159       0.00261024
H        7.18535690       4.98964724       9.82748079      -0.00513557      -0.00412916      -0.00331536
O       12.85843899       7.62648122       7.34720345       0.00497350       0.00387444       0.00151736
O       11.83635317       7.65087697       5.45623587       0.00187853       0.00674399       0.00386338
O       12.50261734       5.64983423       6.29129019       0.01159161       0.00082099      -0.00519674
C       13.28310078       6.92903788       8.54241731       0.00859364       0.00186825      -0.00151938
C       13.59839950       7.98948160       9.56293116       0.01295494      -0.00193700       0.00079957
C       12.41518045       6.85079137       6.35947897       0.00587556       0.01470673       0.00043108
C       11.32237654       6.97281328       4.30319890       0.00501674       0.00990942       0.00110389
H       12.46414176       6.28800477       8.87137773       0.00954616       0.00104877      -0.00040378
H       14.14348922       6.30314821       8.29886388       0.00777414       0.00177190      -0.00570743
H       13.79068730       7.53067013      10.53049795       0.01539642      -0.00482914      -0.00153428
H       14.47641929       8.56952165       9.27622600       0.01261237      -0.00192165      -0.00015431
H       12.75305523       8.66897975       9.65891416       0.01411395      -0.00110132       0.00560525
H       12.13197313       6.45978205       3.78952552       0.00702202       0.01329127       0.00048257
H       10.89586726       7.74897934       3.67560914       0.00369553       0.01011872       0.00296915
H       10.55152416       6.25832723       4.58881973       0.00637585       0.00665176      -0.00196461
O        4.97536630      12.55178630       3.66530959      -0.00213505      -0.00080891      -0.00154950
O        5.91025535      12.48821288       1.71801983      -0.00026243      -0.00349004      -0.00077849
O        3.85574979      11.57770654       1.95209190      -0.00527775       0.00514293      -0.00285420
C        3.90925560      12.16268046       4.57024058      -0.00398028       0.00213905      -0.00230619
C        4.40912841      12.42082535       5.96644741      -0.00520945       0.00331892      -0.00226676
C        4.81343087      12.15445092       2.40783714      -0.00174057       0.00146985      -0.00107241
C        5.79552290      12.26223733       0.31034532      -0.00293657      -0.00100497      -0.00112927
H        3.02266756      12.75124111       4.32763121      -0.00334007       0.00216973      -0.00432332
H        3.67734794      11.11056965       4.39927722      -0.00470570       0.00185513      -0.00086615
H        3.62667367      12.16915549       6.68389124      -0.00597651       0.00507716      -0.00268401
H        5.29461974      11.82851367       6.19424621      -0.00600880       0.00305855      -0.00066185
H        4.66313411      13.47332661       6.09652194      -0.00442304       0.00334743      -0.00299178
H        5.60112202      11.21179131       0.09636097      -0.00603778      -0.00044447      -0.00186470
H        6.74761078      12.57309430      -0.10901688      -0.00293438      -0.00333599      -0.00257632
H        4.99368259      12.87299149      -0.10447464      -0.00214320       0.00133570       0.00100022
O       10.81311159       3.22338800       1.21921695       0.01544374      -0.01202886      -0.00044568
O        9.08854975       1.93785568       1.15760570       0.01081887      -0.00773998       0.00074227
O        9.94710594       2.48616152       3.18303707      -0.00421900       0.01390779      -0.00547945
C       11.81510503       4.00546130       1.90852279       0.01066820      -0.00517550      -0.00191551
C       11.88897958       5.33978850       1.20793539      -0.00162960      -0.00227079       0.00186047
C        9.95898905       2.53538785       1.97949414       0.00608437      -0.00099652       0.01018584
C        8.06355693       1.16435449       1.81180886       0.00593868      -0.00070162       0.00215629
H       11.53277696       4.09893943       2.95586293       0.01536269      -0.01131993      -0.00090593
H       12.75180588       3.44686613       1.85051118       0.01505288       0.00266191      -0.00848237
H       12.69242383       5.94400192       1.63311052      -0.00216913      -0.00056837       0.00135611
H       12.07950856       5.22031693       0.14125591      -0.00245626       0.00048988       0.00136110
H       10.94143030       5.86647822       1.33355623      -0.00327402      -0.00571869       0.00538997
H        8.45121524       0.18303767       2.07770937       0.00403273       0.00282350       0.01638036
H        7.24773773       1.10142090       1.10112149       0.01223470      -0.00986552      -0.00453514
H        7.72280536       1.66254009       2.71624785      -0.00244227       0.00935255      -0.00737539
O        8.93977699       3.35419576       6.73149083       0.00015822      -0.00094035      -0.00485105
O       10.75171935       2.68597213       7.69208570       0.00499673      -0.00522431      -0.00650568
O        9.53778133       1.18018658       6.50336279       0.00561404       0.02570713       0.00049108
C        7.90380439       3.17747096       5.74106178      -0.00544779      -0.00702637       0.00130320
C        7.32633795       4.54538628       5.47619839       0.00092749      -0.00414145      -0.00341040
C        9.72321586       2.28891719       6.92912764      -0.00431851      -0.04134226      -0.02250201
C       11.75430776       1.67832806       7.88909057      -0.00112379      -0.01130559      -0.00748131
H        8.35981725       2.74321529       4.85262008      -0.01309484      -0.01343411       0.00292480
H        7.16265941       2.47613621       6.13140344      -0.00603077       0.00117633       0.01135343
H        6.59796459       4.50181975       4.66791175      -0.00395337      -0.00632608       0.00063854
H        6.82723725       4.94879131       6.35797459       0.00785840       0.00382346      -0.00397474
H        8.10913157       5.24641655       5.18543133       0.00278401      -0.01136456      -0.01298305
H       11.36505400       0.87173097       8.51083670      -0.00270841      -0.00613987      -0.00312965
H       12.57226450       2.18548498       8.39386794       0.00180493      -0.01123090      -0.01012398
H       12.07763566       1.27359333       6.93108661      -0.00416403      -0.01512496      -0.00584665
O        1.90778671       5.53062777      12.17780069       0.00369487       0.00518872      -0.00284425
O        2.56970970       7.56321479      11.89404225       0.00757600       0.00550669       0.00686241
O        4.10920469       5.99759735      12.45469274       0.00444651       0.00082260       0.00452030
C        2.19962493       4.12098731      12.32847467       0.00189131       0.00417553      -0.00689621
C        0.88525650       3.39574370      12.21148979       0.00133997       0.00594984      -0.01087421
C        2.97843825       6.32701550      12.20377359       0.00336695       0.00412199       0.00243025
C        3.61691517       8.54145909      11.84231685       0.00862274       0.00448307       0.01425087
H        2.90023543       3.83408632      11.54313653       0.00252938       0.00573979      -0.00706500
H        2.68466941       3.96023320      13.29425212       0.00045925       0.00041591      -0.00683022
H        1.04958840       2.31934764      12.20243800       0.00009004       0.00585870      -0.01220302
H        0.23034202       3.62768225      13.05020661      -0.00004800       0.00563828      -0.01187688
H        0.37443827       3.67469137      11.29068380       0.00358886       0.00823620      -0.01148225
H        4.08249295       8.65231762      12.81926934       0.00908788      -0.00336186       0.01558641
H        3.12883623       9.46594031      11.54689060       0.00999154       0.00665504       0.02096754
H        4.37107045       8.25764079      11.10934912       0.00823556       0.00883019       0.01257415
O        3.24644156       2.16370006       3.82466035      -0.00990132       0.00568884      -0.00160168
O        2.19839475       1.26701387       2.17702986      -0.01342522       0.00795181      -0.00076951
O        4.37734477       1.83144563       1.88561960      -0.00948721      -0.00617328       0.00108784
C        4.43660287       2.72040825       4.42509457      -0.00817925       0.00232161      -0.00225526
C        4.07472400       3.08076326       5.84323669      -0.00707522       0.00641415      -0.00324452
C        3.37555876       1.75822890       2.55936302      -0.01094693       0.00163990      -0.00041854
C        2.16154242       0.70684187       0.85473037      -0.01330428       0.00350644       0.00099580
H        5.23286127       1.97377984       4.37066552      -0.01070341      -0.00039208      -0.00085571
H        4.74728222       3.58954703       3.84191081      -0.00509162       0.00018302      -0.00393689
H        4.95247880       3.44127307       6.37730489      -0.00637785       0.00686009      -0.00469164
H        3.31920021       3.86516231       5.87183561      -0.00573714       0.00757051      -0.00505571
H        3.69128143       2.20686532       6.37006637      -0.00799561       0.00844495      -0.00071464
H        2.65481966       1.37424280       0.14942769      -0.00970805      -0.00082844      -0.00068614
H        1.10541512       0.59228648       0.63333789      -0.01329112       0.00677518      -0.00034357
H        2.65123918      -0.26499960       0.85764386      -0.01654786       0.00186288       0.00511272
O        6.60681152       7.55626542       3.11453151      -0.00198154      -0.00483727       0.00037096
O        6.40062705       5.59725157       2.24479793      -0.00196303      -0.00496662      -0.00037599
O        8.43432394       6.59589924       2.18210875      -0.00358200      -0.00270951      -0.00443596
C        7.40187998       8.71875489       3.46456195      -0.00152230      -0.00271440      -0.00233048
C        6.45445373       9.70803716       4.08021144       0.00026613      -0.00416216       0.00033644
C        7.26159740       6.58825230       2.48832317      -0.00274909      -0.00378960      -0.00163727
C        6.98378487       4.45360834       1.59944961      -0.00223300      -0.00321653      -0.00360472
H        8.18825535       8.41314874       4.15137635       0.00061929      -0.00363308      -0.00603858
H        7.85814183       9.11429370       2.55663581      -0.00654034      -0.00456308      -0.00504738
H        6.98070055      10.63199449       4.31834047       0.00189131      -0.00488515      -0.00254217
H        5.64563505       9.93139356       3.38513080      -0.00233674      -0.00451266       0.00272579
H        6.01703854       9.30675223       4.99349961       0.00422665      -0.00328471       0.00248207
H        7.44383907       4.74411165       0.65652766      -0.00954787      -0.00144900      -0.00660747
H        6.16467252       3.75861296       1.43806758      -0.00116640      -0.00543819       0.00170666
H        7.73766003       4.01428545       2.25189132       0.00339955      -0.00013688      -0.00836733
O       10.63270179       5.19420227      11.29065776       0.00042474      -0.00129470      -0.00178454
O       10.82912747       7.33713906      11.11801075       0.00460862      -0.00212088      -0.00241834
O        8.76537597       6.46065114      11.47738728       0.00166130       0.00215539      -0.00473936
C        9.81345254       4.00557264      11.46984129      -0.00086612       0.00055233       0.00127424
C       10.72235461       2.81217274      11.36989140      -0.00420049      -0.00132421      -0.00533679
C        9.95633925       6.34436232      11.30880232       0.00346100       0.00019903      -0.00332242
C       10.26588404       8.63747983      10.86105105       0.00923908      -0.00008265      -0.00193049
H        9.32549831       4.06399605      12.44271458       0.00512089       0.00035393       0.00438946
H        9.04860780       3.99308171      10.69339953      -0.00573063       0.00321131       0.00610924
H       10.11991179       1.90489158      11.42710556      -0.00516145      -0.00006945       0.00027826
H       11.25445217       2.81684976      10.41971263      -0.01203462      -0.00275677      -0.00991720
H       11.43494186       2.79430288      12.19090383       0.00250559      -0.00215475      -0.01152566
H       10.28107927       8.81244338       9.79211715       0.01747939       0.00323457      -0.00151360
H       10.90586476       9.35527476      11.36619130       0.00611913      -0.00296517       0.00525296
H        9.24691808       8.69412918      11.23400856       0.00627297       0.00038938      -0.00957727
O       10.09442726       9.33530934       7.60224842       0.00002082      -0.00028327      -0.00691479
O        9.93410792       7.26088172       8.13324604       0.00345743      -0.00023988      -0.00493473
O        8.87328320       7.97050970       6.26353844      -0.00346857      -0.00171761      -0.00335979
C        9.99111969      10.43128917       6.65130204      -0.00490674      -0.00079101      -0.00776210
C       10.66266096      11.60990404       7.29743792      -0.00349763       0.00072286      -0.01353061
C        9.57037745       8.17725370       7.22959195       0.00150478       0.00118329      -0.00284904
C        9.48481455       5.92813860       7.85202899       0.00375529       0.00040286      -0.00350145
H       10.48811547      10.12023233       5.73089841      -0.00894204      -0.00165023      -0.00980017
H        8.93755857      10.62177963       6.44918596      -0.00616056      -0.00254665      -0.00353520
H       10.62192219      12.47385889       6.63711650      -0.01058204       0.00010920      -0.01418659
H       10.14846530      11.87499590       8.22178184       0.00165798       0.00129144      -0.01062915
H       11.70423278      11.38481106       7.52840166      -0.00159405       0.00410569      -0.02002212
H        8.39869219       5.89398916       7.81727148       0.00347534      -0.00042262      -0.00091784
H        9.86598602       5.30983989       8.65871461       0.00588973       0.00042363      -0.00455585
H        9.89523246       5.58158225       6.91026343       0.00106788       0.00013277      -0.00495249
