197
Lattice="13.00632827597381 0.0 0.0 0.0 13.00632827597381 0.0 0.0 0.0 13.00632827597381" Properties=species:S:1:pos:R:3:forces:R:3 energy=-119855.7421875 stress="-0.0024214773438870907 0.0003539861645549536 2.0005633359687636e-05 0.0003539861645549536 -0.001753479242324829 -0.0002702838974073529 2.0005633359687636e-05 -0.0002702838974073529 -0.0028706295415759087" pbc="T T T"
N       10.15564086      11.89602302       0.05213501       0.02286199       0.00666481       0.00594229
C        9.68901760      10.65165443      -0.15943271       0.02461472       0.00819269      -0.00447365
C       11.42568301      12.23747687      -0.20575626       0.02077204       0.01217690       0.00495550
C       10.53197930       9.67298936      -0.62342370       0.02505364       0.01537861      -0.01786783
C       12.30292385      11.30228055      -0.71236080       0.02146607       0.01996241      -0.00774378
C       11.85871619       9.99949157      -0.89298192       0.02352244       0.02188605      -0.02052033
H        9.55697819      12.52362718       0.61777336       0.01910359       0.00277054       0.00679266
H        8.65290186      10.47922866       0.09358444       0.02552216       0.00385238      -0.00331871
H       11.71805090      13.24042164       0.05874199       0.01916590       0.01046142       0.01231633
H       10.16555308       8.66249308      -0.73026683       0.02582334       0.01617868      -0.02903900
H       13.32978011      11.57941217      -0.90808731       0.01951823       0.02366351      -0.01114551
H       12.54446620       9.23462783      -1.22626737       0.02161924       0.02677743      -0.03390222
B       12.31137549      11.17158669       2.77687779      -0.00264180      -0.00161426       0.01040500
F       12.62144752      11.11321734       4.12399639      -0.00011137      -0.00715569       0.00967586
F       12.70068573      12.39551343       2.21850785       0.00182369      -0.00163311       0.01396641
F       12.94582530      10.12581375       2.07452515      -0.00916702      -0.00201303       0.00608665
F       10.90838457      11.01461105       2.60979953      -0.00358367       0.00592250       0.01298007
O       12.92727641       5.95003732       7.45673974      -0.00453362       0.00443435       0.00081517
N       12.56623535       7.94837898       8.50788812      -0.00420268      -0.00781403       0.00577962
C       12.49042618       7.35461057       9.81627693       0.00824744      -0.01014388       0.00668266
C       12.27429305       9.35476837       8.36161000      -0.00555392      -0.00776403       0.00994329
C       12.86304224       7.16372373       7.43736952      -0.00749688      -0.01528990       0.00349285
H       11.56528261       7.64569188      10.31755795       0.01229182      -0.01180856       0.01471294
H       13.34523048       7.66120223      10.42857830       0.01304898      -0.00934273      -0.00144604
H       12.52636866       6.27375918       9.70133908       0.00871461      -0.00883341       0.00464372
H       11.22051859       9.56002903       8.57824042      -0.00330973      -0.00927490       0.01890146
H       12.45645905       9.66054638       7.33238710      -0.01420485      -0.00740895       0.00885418
H       12.89202949       9.96353586       9.02964791      -0.00046942      -0.00866255       0.00504974
H       13.02052454       7.76319563       6.53338391      -0.01708267      -0.00341362       0.00374854
O        3.84687457       7.30155280       5.20927063       0.01981267       0.01618218       0.00124371
N        2.92153477       9.31654241       4.63748849      -0.00637853       0.00387718       0.00325143
C        1.57729621       8.79671740       4.49295397      -0.00067237      -0.01098659       0.00643877
C        3.12748124      10.72438242       4.37091525      -0.02159011       0.00531647       0.00058234
C        3.92822354       8.49748553       4.97639802       0.00359611       0.01484740       0.00142124
H        1.22973633       8.93241174       3.46914797      -0.00271818      -0.01820885       0.00622636
H        0.89513585       9.35412549       5.13481753      -0.00526935      -0.01518434       0.00486979
H        1.59084296       7.74606730       4.76599583       0.00989685      -0.00959706       0.01017915
H        2.93410327      10.94109477       3.31952030      -0.02199773       0.00082554      -0.00002640
H        4.16091287      10.98103399       4.60800150      -0.02485101       0.01679436       0.00151637
H        2.46018143      11.33587897       4.98214624      -0.02935266      -0.00131738      -0.00190559
H        4.89411421       9.03281291       5.02501122      -0.00353235       0.02807373       0.00078784
O       10.82697149       8.30234910       5.75485816      -0.00907826      -0.00377664      -0.00177324
N       11.29697705       7.44316268       3.67767167      -0.00653048      -0.00140965      -0.00194027
C       12.02938061       6.26793620       4.11273849      -0.00684828      -0.00130062      -0.00184709
C       11.12319606       7.59551828       2.25051115      -0.00448684      -0.00057215      -0.00205243
C       10.78661884       8.35211261       4.53121072      -0.00787637      -0.00250711      -0.00223589
H       13.04444712       6.28696998       3.70880226      -0.00737843      -0.00177713      -0.00279839
H       11.53769401       5.36821133       3.73905952      -0.00723496      -0.00124860      -0.00090265
H       12.07942020       6.22273611       5.19609192      -0.00601969      -0.00054410      -0.00196666
H       12.09552195       7.63188498       1.75674323      -0.00394371      -0.00157915      -0.00068870
H       10.62199816       8.54026070       2.05125143      -0.00315544      -0.00006917      -0.00244862
H       10.53635592       6.76196183       1.85287665      -0.00462639       0.00036290      -0.00341579
H       10.31123495       9.19067327       4.00035557      -0.00741515      -0.00233305      -0.00135392
O       13.29057486       1.17083079       4.89233766       0.00430477       0.00561345       0.00913548
N       11.34071333       1.75952252       3.86146110       0.00672358       0.00126946       0.00199744
C       10.51370345       0.87241478       4.64989425       0.00626320      -0.00540398      -0.00671424
C       10.68121710       2.69153869       2.98159403       0.00839211      -0.00108150      -0.00143190
C       12.66770106       1.83598214       4.08115158       0.00479960       0.00690174       0.00935119
H        9.68946062       0.52021841       4.02978225       0.01308852      -0.00864687      -0.01365915
H       10.13062477       1.39304624       5.53263235      -0.00298369      -0.00977716      -0.00855884
H       11.11318446       0.02178084       4.96657502       0.00846580      -0.00264266      -0.00413260
H        9.93539763       2.17486458       2.37292218       0.01511270      -0.00421727      -0.00685975
H       11.41512879       3.15709739       2.32308340       0.01038888       0.00284184       0.00389129
H       10.16820277       3.48520267       3.53112673       0.00071910      -0.00409222      -0.00462642
H       13.15806335       2.57582961       3.42419684       0.00417203       0.01252669       0.01589751
O        2.22951396       4.06040616       2.75346445      -0.01447058       0.00850362      -0.02805901
N        2.84067285       2.13374560       1.67412142      -0.00791185       0.00147203      -0.00917064
C        2.60097399       1.24503537       2.79414639       0.00055140       0.01340976       0.00153480
C        3.24898793       1.53159772       0.42533378      -0.01277106      -0.01095472      -0.00425170
C        2.64767073       3.46028762       1.77149975      -0.01476863       0.00118810      -0.02294141
H        3.51550167       0.68893581       3.01296970       0.00264302       0.01710926       0.00135805
H        1.80509728       0.53556670       2.55915076      -0.00031647       0.01063985       0.01451840
H        2.32259173       1.81742046       3.67230876       0.00580628       0.02265319      -0.00319874
H        4.18525803       0.98448188       0.55784471      -0.01179367      -0.00828268      -0.00200862
H        3.42191517       2.29724398      -0.32631454      -0.01535594      -0.01862374      -0.01223257
H        2.49524151       0.82583852       0.06893596      -0.01408428      -0.01452515       0.00608256
H        2.92096055       3.98042072       0.83610563      -0.02109273      -0.00744963      -0.02938455
O        8.65351459       5.05252589       2.06905447      -0.00757504      -0.00579274      -0.01137513
N        6.80259363       4.78180590       3.39319483      -0.00280066      -0.01102330      -0.00665739
C        7.01597499       3.37517990       3.66892475       0.00052448      -0.01121822      -0.01138914
C        5.58506070       5.36476886       3.91796658      -0.00146714      -0.01410374      -0.00041257
C        7.63843400       5.47822759       2.61485474      -0.00645041      -0.00828739      -0.00790000
H        6.52908489       2.75190015       2.91250213      -0.00434394      -0.00994012      -0.00905240
H        6.57676009       3.14891115       4.63869372       0.00780050      -0.01371514      -0.00889519
H        8.07836333       3.15545459       3.66897705       0.00052825      -0.01008381      -0.02029029
H        4.70072165       4.88793907       3.49043591      -0.00223944      -0.01349640       0.00083469
H        5.56247841       6.42615883       3.69441800      -0.00366258      -0.01339933       0.00420685
H        5.53137928       5.23762475       4.99774519       0.00297690      -0.01838804      -0.00073615
H        7.31534813       6.53110604       2.50434331      -0.00845182      -0.00877905      -0.00523871
O       11.32065164       2.92247167       6.98568134      -0.00504422      -0.01920295      -0.00948358
N       12.06840391       1.60281001       8.68944067       0.00655788      -0.00191453      -0.00284635
C       12.33198737       0.46187172       7.83476588       0.00725855      -0.00886518       0.00681718
C       12.17193222       1.39791963      10.11019644       0.01236892       0.01182971      -0.00165801
C       11.57911623       2.75005401       8.16153790       0.00018516      -0.00826299      -0.01182663
H       11.49862387      -0.24970019       7.86304758       0.00926286      -0.01052395       0.01554254
H       13.23400234      -0.04249521       8.18400334       0.00904569      -0.00335853       0.00977285
H       12.48552169       0.80065402       6.81270307       0.00465929      -0.01784514       0.00371158
H       11.43844274       0.65489252      10.44319219       0.01582995       0.01329336       0.00808895
H       11.98445072       2.33364719      10.63658271       0.01068301       0.01585674      -0.01006498
H       13.16718908       1.03314579      10.37932468       0.01443201       0.01756552      -0.00202765
H       11.43293564       3.53619305       8.92421040       0.00090189      -0.00260741      -0.01683152
O        5.27658777       2.95847449      11.44952155      -0.00144207      -0.01719320       0.00239754
N        7.51674035       2.56916527      11.70062867      -0.00011760      -0.00621945       0.00360784
C        7.87485062       3.96712903      11.76224538      -0.00417140      -0.00481287      -0.00242587
C        8.58629146       1.60644679      11.70060462       0.00293307      -0.00271294       0.00677792
C        6.22632182       2.20377383      11.55196020       0.00101674      -0.01174349       0.00532731
H        8.43708507       4.25062949      10.86749044      -0.00578023      -0.00721893      -0.00411355
H        8.47360641       4.16145496      12.65532343      -0.00367528      -0.00002842      -0.00394180
H        6.95393537       4.54124434      11.80442662      -0.00515896      -0.00668432      -0.00356619
H        9.22735803       1.74118993      10.82346800       0.00140812      -0.00506708       0.00545999
H        8.16789419       0.60108634      11.67922988       0.00583483      -0.00380023       0.01251287
H        9.19302657       1.71364345      12.60408817       0.00327840       0.00302758       0.00551018
H        6.11561919       1.10276445      11.54153842       0.00699257      -0.01289988       0.01021294
O        7.73916711       3.62542569       7.51687860      -0.00376356       0.00505722       0.02366447
N        8.06976481       5.68284456       6.58133394      -0.00607359      -0.00492889       0.00254907
C        9.44467540       5.43311992       6.19299988      -0.00562534      -0.00734026       0.00600405
C        7.53721515       6.99087769       6.28218443      -0.00683712      -0.00818798      -0.00925347
C        7.33258849       4.73068652       7.18646829      -0.00523644       0.00036359       0.01129907
H       10.11046778       6.15808996       6.66172378      -0.00690472      -0.00174230      -0.00146738
H        9.53365869       5.55708380       5.11030688      -0.00526152      -0.01863854       0.00491887
H        9.73750595       4.42761001       6.47920149      -0.00471877      -0.00419900       0.01523772
H        8.07112375       7.76207311       6.84719421      -0.00782175      -0.00331649      -0.01536563
H        6.47172229       7.02065690       6.50825264      -0.00713354      -0.00681141      -0.01130082
H        7.66984732       7.21780062       5.22026023      -0.00586471      -0.01759648      -0.01085907
H        6.28811689       5.04546963       7.35765156      -0.00605410       0.00032336       0.00580145
O        3.32305311       9.74166046       1.37108509       0.00557232      -0.00475174       0.01022357
N        2.49472932       7.64195647       1.03523186       0.00177129      -0.00118707      -0.00019628
C        3.56839657       6.97086828       1.73598898       0.00291052      -0.00668129      -0.00748275
C        1.50259034       6.79191868       0.41670475       0.00045507       0.00407171      -0.00519647
C        2.45975677       8.98171217       0.94262363       0.00267345      -0.00136113       0.00801767
H        4.14662334       6.35280920       1.04172271       0.00321855       0.00066692      -0.01343611
H        3.15544346       6.33113422       2.51673573       0.00325042      -0.01428953      -0.01408690
H        4.20876149       7.72882404       2.17655053       0.00227559      -0.01061073      -0.00026313
H        1.94672925       6.21511767      -0.39990469      -0.00111684       0.01127584      -0.01083606
H        0.69866514       7.40610874       0.01555391      -0.00029995       0.00743879       0.00184143
H        1.09340445       6.09690034       1.15387816       0.00249262      -0.00226705      -0.01038450
H        1.56268663       9.35000014       0.42492104       0.00176501       0.00331306       0.01390696
O        2.69329162      11.96877679      10.88679620      -0.02220094      -0.00958958       0.01988063
N        4.60917275      10.72472546      11.01657563      -0.01067522       0.00801466       0.01297839
C        3.94013226       9.45466676      11.22097606       0.00007433       0.00178394       0.00799019
C        6.04992540      10.69875772      11.06596824      -0.01033151       0.01966084       0.01374857
C        3.91272105      11.87407636      10.88072392      -0.02051103       0.00227672       0.01875215
H        4.26987584       9.01459121      12.16098211       0.00079951       0.00240988       0.00777295
H        4.17487035       8.75949693      10.41951193       0.00843020       0.00635812       0.00696275
H        2.86988656       9.63341894      11.25329363      -0.00145784      -0.00789962       0.00484866
H        6.39427843      10.43440335      12.07190346      -0.00814612       0.02942703       0.01551148
H        6.45480856      11.67307869      10.79466489      -0.01829823       0.02087498       0.00699028
H        6.44246538       9.95103171      10.37055124      -0.00539103       0.01775818       0.01884486
H        4.56947829      12.75035191      10.73832162      -0.02784231       0.00839970       0.02319948
O        2.77709951       7.10455190       8.47953011       0.01531792       0.02519423      -0.00414813
N        3.83341613       9.05527482       7.93622603      -0.00066546       0.00923288       0.00481405
C        2.62080788       9.83473107       8.03185239      -0.00104083       0.01236138       0.00346377
C        5.06805456       9.75356624       7.70620764       0.00091414       0.00767358       0.00670200
C        3.77648138       7.71030533       8.15891631      -0.02648711      -0.00327581       0.01183239
H        2.40994850      10.33702608       7.08513201       0.00548965       0.01641291       0.00468394
H        2.69039400      10.58558126       8.82187049      -0.00133236       0.00869346       0.00647050
H        1.81812066       9.13986126       8.25786955      -0.00187697       0.01360038      -0.00277290
H        5.06136117      10.27578450       6.74524091       0.00020666       0.01135409       0.00982431
H        5.89701818       9.04612806       7.70652078      -0.00253437       0.00410299       0.00189363
H        5.23916712      10.50541037       8.48030736       0.00395737       0.00224647       0.01006034
H        4.75785034       7.22541854       8.02433231      -0.00536543       0.00897834       0.00677850
O        5.31746007       6.64029244      10.77304435       0.00415599       0.00293131       0.01210833
N        7.54988990       7.06362735      11.01597941       0.00234992       0.00001347      -0.00034350
C        7.45971220       7.31987343      12.43700623       0.01119694       0.00700166      -0.00079104
C        8.84776227       7.10724394      10.38823910      -0.00144453      -0.00387913      -0.00757179
C        6.44017562       6.72131907      10.31465784      -0.00591469      -0.00082377       0.00923125
H        7.69488072       8.36390379      12.66388092       0.01894589       0.00668421      -0.00783077
H        8.14630614       6.67376983      12.99084949       0.01061833       0.00537440      -0.00207610
H        6.43848989       7.11526304      12.75142663       0.01209530       0.01421049       0.00573787
H        9.21622148       8.13391311      10.29529178       0.00013337      -0.00515404      -0.01101044
H        8.79304261       6.67337534       9.39005562      -0.00801316      -0.00456168      -0.00657815
H        9.56613700       6.52685125      10.97378222       0.00014007      -0.00465855      -0.01127778
H        6.67703423       6.52164267       9.25400971      -0.00807258      -0.00464452       0.00684407
O        8.28239574      12.86023677       1.83100542      -0.00432425       0.00426984      -0.02636056
N        6.75672711      11.20275779       2.18532841      -0.00025561       0.00457726      -0.00702108
C        5.61550775      12.03538484       1.86023052      -0.00361910      -0.00384313      -0.01508329
C        6.50996649       9.80416260       2.46197202       0.00484769       0.00765043       0.01079678
C        7.99292746      11.71670825       2.20384605      -0.00182760       0.00764608      -0.01420381
H        5.00199790      12.17643894       2.75093866      -0.00750506      -0.00271623      -0.01804084
H        4.99179234      11.55511312       1.10668679       0.00112993      -0.01139894      -0.01381727
H        5.98600214      12.99850586       1.52239236      -0.00794458      -0.00412124      -0.02004822
H        5.88278557       9.68080030       3.34551218       0.00270630       0.01774847       0.01024410
H        7.45760811       9.29169942       2.62009668       0.00685486       0.01465832       0.01952922
H        5.97336947       9.35407677       1.62384011       0.00875640      -0.00597888       0.01612747
H        8.76300466      11.01413322       2.55132460       0.00011423       0.01344976      -0.00769806
O        4.89294383       2.48699736       6.30608094       0.01117301       0.00165898      -0.01122653
N        6.35836139       0.95641010       7.15930815       0.00248031      -0.00126913      -0.00327228
C        6.80864264       0.55021770       5.84655086       0.00064869      -0.01042220      -0.00083538
C        7.25058699       0.67425827       8.25850458      -0.00169510      -0.00263701      -0.00056930
C        5.46390934       1.97847692       7.25364293       0.00696754       0.00286281      -0.00865728
H        7.07813408      -0.50719249       5.86126918      -0.00483298      -0.01155406       0.00499275
H        7.68575411       1.12789104       5.53921670       0.00367412      -0.01707625      -0.00408858
H        6.00687318       0.72265098       5.13226739       0.00183436      -0.01030214      -0.00185308
H        7.41635768      -0.40295591       8.34940711      -0.00714302      -0.00305822       0.00230351
H        6.80551215       1.04526881       9.18041722      -0.00207174       0.00182998      -0.00270557
H        8.21151629       1.17862673       8.11731383       0.00096738      -0.00770235       0.00086126
H        5.28009048       2.28246997       8.29736542       0.00702390       0.00774941      -0.01026839
