199
Lattice="13.162579933582544 0.0 0.0 0.0 13.162579933582544 0.0 0.0 0.0 13.162579933582544" Properties=species:S:1:pos:R:3:forces:R:3 energy=-301097.03125 stress="-0.000863435270730406 0.0005044727877248079 0.0005502690619323403 0.0005044727877248079 0.00019296846585348248 0.0010166820138692856 0.0005502690619323403 0.0010166820138692856 0.0006053365068510175" pbc="T T T"
N       11.44574473      10.34324904       2.45387603      -0.01404433      -0.04659181      -0.00355304
C       11.78862550      11.38577750       1.67768609       0.00304009       0.03044114       0.00093123
C       11.30907594      10.44111849       3.79081574       0.00863654       0.03886859       0.00198346
C       11.97554886      12.62670182       2.25520410      -0.00995740      -0.03828971      -0.01416284
C       11.50524018      11.65796034       4.41137934      -0.00799451      -0.04346039      -0.01950403
C       11.82507162      12.77045666       3.63399331       0.00098193       0.00993052      -0.00332943
H       11.21642737       9.44180593       2.00091264       0.00068428       0.00232482      -0.00018933
H       11.93971871      11.20087528       0.62120714      -0.00583783      -0.01237325      -0.00907501
H       11.00356363       9.53828189       4.30093165      -0.00413991      -0.01987874       0.00106283
H       12.25472381      13.46118702       1.62795355      -0.00241283      -0.00292371      -0.01062089
H       11.40457149      11.73214569       5.48565566      -0.00017276      -0.00390415       0.00042391
H       11.97166560      13.73930497       4.09853195      -0.00306343      -0.01229021      -0.00914914
I       14.09009057      11.43429807      -1.17892230       0.00195058      -0.00287690       0.00247106
O        9.30114884       8.27370922       4.71397309      -0.01050822       0.00400266       0.00330132
C        9.03859278       9.12980626       5.82563125      -0.00484876       0.01228470      -0.00212646
H        8.27801460       8.71861449       6.49033335      -0.02083835       0.03107736      -0.00891036
H        8.70949458      10.12112849       5.49861318       0.01912253       0.01836717      -0.00775146
H        9.95761525       9.23323506       6.40407658      -0.00918490      -0.00449838       0.00713997
H        8.67625842       8.52753017       4.00657112      -0.00891083       0.00355329       0.00164978
O       12.09325277       7.60456207      10.32638427      -0.00016314      -0.00357097      -0.00546667
C       10.75428893       7.77611725      10.79995186       0.00197492       0.00336017      -0.00199704
H       10.73916407       8.24314956      11.78630924       0.00611913       0.02202085      -0.01082700
H       10.22704357       6.82201340      10.85163801       0.00383452       0.00392640       0.01907635
H       10.24268780       8.41398077      10.08247710      -0.00297387      -0.01087649      -0.01074788
H       12.62878333       7.22376946      11.02687891       0.00498953       0.01475815       0.00022689
O        6.06034289       2.84443931       5.75712183      -0.00405401      -0.00217871      -0.00589639
C        7.33555807       3.48407805       5.84669517      -0.00437263      -0.00146544      -0.00291310
H        7.22181733       4.50780786       6.20834853      -0.00488901      -0.00520501       0.00724588
H        7.84041307       3.49501026       4.87679942      -0.00658526       0.00884623      -0.00391549
H        7.93723778       2.91606889       6.55498329      -0.00170618      -0.00757562      -0.01021625
H        5.42548862       3.44797340       5.30514767      -0.00610015       0.00313139       0.00366758
O        2.47873678       7.53387578       7.11489743       0.00011575      -0.00160700       0.00336557
C        1.70134998       8.41613451       7.92157187      -0.00125670      -0.00072929       0.00085049
H        2.30111223       9.24702725       8.30194816      -0.00223768       0.00072581      -0.00061560
H        1.25636828       7.88645389       8.76673099      -0.00186998       0.00107962       0.00147918
H        0.89624439       8.80817144       7.30396341      -0.00092426      -0.00234751      -0.00088671
H        3.18008447       7.17327802       7.67972120       0.00135276       0.00127616       0.00425331
O        5.54424839       1.01660920       3.79576092      -0.00885671       0.02827676      -0.03306425
C        6.77476753       1.09024769       3.07928617       0.00701267      -0.00193753      -0.00886881
H        7.63021453       0.94357525       3.74456149      -0.01099803      -0.01513284       0.01023033
H        6.86756203       2.05204967       2.56540925       0.03848191      -0.00653329      -0.01149720
H        6.77930162       0.28804365       2.34571112       0.00477280      -0.00626802      -0.00428070
H        5.66090949       1.55829776       4.60264982      -0.01050712       0.02447113      -0.02957557
O        9.35902589      11.62956854       8.93061569      -0.00231288      -0.01503325      -0.01131403
C        9.31736244      11.64895560      10.35783465      -0.00191317      -0.00969337      -0.01126349
H       10.32480044      11.64912975      10.78646167      -0.00185978      -0.01346452      -0.01146832
H        8.74725842      10.80236422      10.74806396      -0.00598629      -0.00552922      -0.00834807
H        8.80903550      12.56912176      10.64624864       0.00289573      -0.00613813      -0.01419164
H        9.56070914      10.73096235       8.64896186      -0.01052931      -0.01775488      -0.00797042
O       10.85520297       7.80127893       1.38159785       0.00666881      -0.01078378      -0.00456983
C       11.49018903       6.96972227       2.36089620      -0.00400104      -0.00809168       0.00314499
H       11.54836993       5.93548509       2.01934506       0.00895590      -0.00742781       0.00433889
H       10.96192333       7.01738885       3.31715578      -0.01775742      -0.01211745      -0.00476885
H       12.50320314       7.34710492       2.48689629      -0.00818077      -0.00126378       0.01882274
H       10.12653949       7.29860478       0.99185860       0.01985499      -0.02371556      -0.02418896
O        9.80910787       5.37963613      12.99459185       0.00981182       0.01264415       0.01372515
C       11.07560224       4.88199416      12.58421374       0.00297728      -0.00003264       0.00664583
H       11.12533543       4.75977119      11.49757459      -0.00491541      -0.00213116       0.00688127
H       11.31165624       3.92405702      13.06051242      -0.00305220      -0.00087416       0.00774921
H       11.83366520       5.60547056      12.88799774       0.01113999      -0.00610614       0.00091764
H        9.14390631       4.88306924      12.49177592       0.00199818       0.01464659       0.02146789
O        5.14853465       6.18604305       1.51965043      -0.00997215      -0.01707977       0.00191963
C        4.55376869       7.25054439       2.24807525       0.00957992      -0.00275424      -0.00395328
H        3.69170071       7.68148670       1.72405930       0.01232344       0.00509682      -0.00226632
H        5.31386563       8.02057076       2.38238452       0.02168155      -0.01282163      -0.01683614
H        4.22078916       6.94553439       3.23877708       0.01168594       0.01096830       0.00108638
H        4.59695454       5.40699628       1.64487280      -0.02049311      -0.00781334       0.01283756
O        8.38294361       3.93120862      10.91585656      -0.00534046       0.00751781       0.02401572
C        8.28275701       2.50626332      10.79514936       0.00235440       0.00811267       0.01106454
H        7.92383025       2.21540250       9.80595075       0.00488982       0.01478012       0.00826240
H        7.60535076       2.09335658      11.54888071       0.00346249      -0.00199677       0.00671709
H        9.28162871       2.10263159      10.95264393       0.00428960       0.01188155       0.00881898
H        7.56603560       4.30770084      10.57390291      -0.00651470       0.00602670       0.02529520
O        5.68722170       9.80298284       0.05630126       0.01455584       0.01278934      -0.00425398
C        4.35012776      10.34108541      -0.01285559       0.01110059       0.00579618       0.00292783
H        4.30100675      10.95841486      -0.90587060       0.00139812       0.00170636       0.00076443
H        4.13998539      10.95166658       0.86441442       0.01350825       0.00849745       0.00188333
H        3.60270447       9.55143367      -0.09896681       0.01492444       0.00141072       0.01166169
H        5.77748075       9.30659328       0.87733811       0.02611499       0.02454314       0.00075841
O        1.51527165       4.80632980      13.51152614       0.00110614      -0.00410140       0.00398260
C        2.61678844       4.80571202      12.58621229      -0.00475439      -0.00162849      -0.00306884
H        3.19821849       3.88832278      12.67116154      -0.00300393      -0.00092143      -0.00842343
H        3.24109475       5.65499497      12.85686499      -0.00405164      -0.00134969      -0.00584162
H        2.27457433       4.91968547      11.55693418      -0.01170599      -0.00074681      -0.00070941
H        1.01259532       3.98983615      13.41827239       0.00113155      -0.00427386       0.00737424
O        7.85165130       8.29481166       8.84976396       0.01451026       0.00632662       0.00620064
C        7.71407821       6.90857613       8.62109877       0.02318067       0.00668305      -0.00443244
H        6.70573277       6.55095596       8.86351489       0.02156019       0.00091351      -0.02111549
H        8.43887209       6.31329357       9.19224548       0.01792249       0.00594561       0.00133258
H        7.87187721       6.70940519       7.56119310       0.03917458       0.01512753      -0.00348863
H        7.46127766       8.46535310       9.72853402       0.00628417      -0.00149364       0.00406576
O        1.60952145       2.49280039      10.62735855      -0.00315022      -0.00435469       0.00021347
C        0.23387966       2.52727901      10.98108813      -0.00177366      -0.00596650       0.00502700
H        0.03397359       1.91206092      11.86551905       0.00123071      -0.00984049       0.00313053
H       -0.40145638       2.16530248      10.16623047      -0.00452262      -0.00230038       0.00558957
H       -0.02837965       3.56459475      11.19799962      -0.00108897      -0.00690126       0.01025847
H        1.75779094       1.62906468      10.16090988      -0.00368664      -0.00396209      -0.00064829
O        2.89166411       8.75869352       4.70781076       0.00213081       0.00158980       0.00471672
C        1.66208583       9.40669555       4.48080832       0.00362545       0.00202349      -0.00019199
H        0.80350599       8.75372844       4.69433702       0.00223860       0.00208598      -0.00421149
H        1.61737057       9.69397964       3.42901800       0.00826516       0.00215573      -0.00055611
H        1.55180332      10.31824644       5.08255564       0.00111298       0.00180224      -0.00079364
H        2.84568424       8.33302339       5.58752694      -0.00118219       0.00102192       0.00473725
O        6.71396679       8.24521672      11.29629730      -0.00991115      -0.00931746      -0.00307942
C        7.24191344       7.19079552      12.09138896      -0.00314011      -0.00249889       0.00193116
H        6.47351591       6.45703587      12.35353400      -0.00107706       0.00028655       0.01528170
H        7.67416749       7.56660516      13.02348259       0.00560704       0.00609756      -0.00550997
H        8.03430963       6.70481088      11.52573749      -0.00825086      -0.00757024      -0.00075069
H        6.26339279       8.86876550      11.90717874      -0.00090185      -0.00216048      -0.00413838
O        1.87731052       4.08369120       8.48124440      -0.00447899       0.00349608       0.00618112
C        0.67340099       4.77833711       8.29237987      -0.00561893       0.00171182       0.00594720
H        0.80300720       5.44705294       7.43779366      -0.00402936       0.00693880       0.01045549
H        0.40332844       5.41005926       9.14976652      -0.01049279      -0.00426352       0.00877109
H       -0.17665532       4.10525871       8.09694650      -0.00329351       0.00096276      -0.00139029
H        1.80003209       3.51863799       9.28384254      -0.00508893      -0.00000447       0.00331687
O        8.68182625      11.78571592       1.86821764      -0.00503469      -0.00001127      -0.00869444
C        8.48410469      12.10922753       0.49080649      -0.00044996       0.00098985      -0.00963865
H        9.38397677      11.91120039      -0.09596707       0.00071827      -0.00156999      -0.00705972
H        8.19922906      13.15791907       0.36908701       0.00344425       0.00210527      -0.00980970
H        7.67320987      11.47506347       0.13652383      -0.00119221       0.00378084      -0.01185955
H        9.41940549      12.30527888       2.20257026      -0.00171426      -0.00548619      -0.00782606
O        4.08524841      11.96092111       2.99692605      -0.00845343       0.00141224       0.01098597
C        2.79170898      12.49838060       2.80883033      -0.00692934       0.00243508      -0.00010671
H        2.81365983      13.41895624       2.21819692       0.00104627       0.00778085       0.00926501
H        2.29686531      12.70627063       3.76506292      -0.01821819      -0.00648132      -0.00392482
H        2.19562368      11.76837100       2.26085478       0.00007591       0.00678888      -0.01345377
H        4.61734381      12.64395180       3.43732006      -0.00787872       0.00808596      -0.00088494
O        4.37532659       2.42975456       1.42305510      -0.00253952       0.00147545       0.01991791
C        4.52903330       1.48066807       0.36848703      -0.00890814       0.00802511       0.01404342
H        3.56408824       1.21387574      -0.07405402      -0.01285374       0.00768305       0.02321239
H        5.00751319       0.56177426       0.71589198      -0.00399391       0.00604856       0.00427832
H        5.15283115       1.92167656      -0.41306816      -0.01831447       0.01118638       0.00823468
H        4.49496277       1.97065029       2.26545034       0.04468313       0.00641641       0.01317638
O       12.28450314       3.69184510       4.95546785       0.00199017      -0.00120169      -0.00817078
C       10.89198001       3.99334141       5.06352052       0.00220051      -0.00179954      -0.00551926
H       10.68612415       5.04770514       4.86570356       0.00115093      -0.00223926      -0.00697708
H       10.50339451       3.72667967       6.04944659       0.00423659      -0.00028428      -0.00433275
H       10.38488461       3.39064320       4.31223631       0.00072441      -0.00327788      -0.00344937
H       12.75888905       4.16718271       5.64611016       0.00304121      -0.00035545      -0.00920081
O        1.72742884       0.27170327       9.24122649      -0.00252581      -0.00439522      -0.00069718
C        2.91799727      -0.11826071       8.57310111       0.00161844      -0.00488577       0.00665554
H        2.72743434      -0.95380351       7.89247655       0.00478883      -0.00209439       0.00242996
H        3.70951417      -0.39663624       9.27427158      -0.00456661      -0.00943993       0.01183170
H        3.26363218       0.73902552       7.99730156       0.00834168      -0.00385290       0.01221822
H        1.45911429      -0.42828181       9.87044008      -0.00447899      -0.00338933      -0.00075013
O        2.48749443       5.05415961       2.82072199       0.00888751       0.00061443      -0.00086623
C        1.60881380       5.97442851       3.45692163       0.00806201       0.00192428      -0.00404544
H        0.59656007       5.56461346       3.52356137       0.00944641      -0.00080146       0.00122228
H        1.58601319       6.92800221       2.92574448       0.00330994      -0.00150302      -0.00999059
H        1.98550419       6.16731669       4.46098914       0.01034079       0.00913631      -0.00642109
H        2.12753665       4.86158892       1.92204906       0.00715864      -0.00441412       0.00077699
O        4.04099043       4.21766005       4.76891827      -0.00232116       0.00504270       0.00909668
C        3.00480106       3.79988269       5.67195887      -0.00611240       0.00132832       0.00301979
H        2.15155460       3.40771696       5.11541112       0.00166827      -0.00860879      -0.00172977
H        2.69272115       4.62709686       6.30720360      -0.01746299       0.00226018      -0.00394282
H        3.39635866       3.01605110       6.31833099      -0.00482501       0.00825828       0.01045230
H        3.61285431       4.45749069       3.91474509       0.00216140       0.00116695       0.00569034
O        3.82778062       7.04487516       9.64628126       0.01641631       0.01199684      -0.00383279
C        3.58803251       7.98443388      10.69399372       0.00114192       0.00446330      -0.00081462
H        4.04626888       8.95241433      10.47981486      -0.01405890       0.01219836       0.00267149
H        3.97266528       7.61906643      11.64951698       0.00595090       0.00724775      -0.00165638
H        2.51207847       8.12561701      10.77387912      -0.00076413      -0.01218372      -0.00131518
H        4.78054903       6.93356864       9.57564349       0.01820886       0.02755887      -0.00235908
O       11.54061654       8.14320877       7.68972823      -0.00292283       0.00272793      -0.00429434
C       11.28326603       6.86218179       7.15026959      -0.00131515       0.00202459      -0.00351903
H       10.35249094       6.89866025       6.58381107       0.00766358       0.00611741      -0.01750998
H       11.19026985       6.10237111       7.93328820      -0.01808728       0.00524460      -0.00240371
H       12.08424027       6.55260121       6.46281113       0.00682282      -0.00549860       0.00987601
H       11.99245162       8.01924503       8.53822191       0.00039498       0.00351536      -0.00564865
O        5.20429154       6.19738839       6.42915009      -0.00089249      -0.00236773       0.01691996
C        5.74717390       7.33146001       5.76095375      -0.00254780      -0.00127357       0.01787901
H        6.57614109       7.05683514       5.09510216       0.00022534       0.00100361       0.02030867
H        6.12927421       8.00697702       6.52510726      -0.00654276       0.00028567       0.01860017
H        4.99153830       7.86071797       5.17767803      -0.00252852      -0.00379652       0.01557839
H        4.78145890       5.63363273       5.76131006      -0.00276729      -0.00065133       0.01637266
O       -0.20406817       2.94539111       2.28116579       0.00267464       0.00478938      -0.01185396
C        0.95466894       2.12287048       2.35916683      -0.00163248      -0.00152448      -0.00797014
H        1.08536544       1.63883191       1.39016777      -0.00550380      -0.00779752      -0.00539979
H        0.84803003       1.34039003       3.11617454      -0.00586952       0.00369206      -0.00348866
H        1.85723634       2.69723327       2.58038733       0.00229493      -0.00605884      -0.01248343
H       -0.35926042       3.30694308       3.16831202       0.00178199       0.00505647      -0.01203698
O       11.38724419       0.29816087       8.31886457      -0.00257707      -0.01568979      -0.01917613
C       10.90942433       1.43470908       7.64303617      -0.00253887      -0.00912946      -0.00899944
H       10.39596748       2.14224009       8.31232593      -0.00269672      -0.01547050      -0.00264129
H       10.21771282       1.17881041       6.82881088      -0.00194424      -0.00156444      -0.01161411
H       11.76968550       1.94627574       7.20686174      -0.00212651      -0.00527459      -0.00357628
H       10.64398413      -0.30308090       8.50100030      -0.00286158      -0.01422982      -0.01855422
O        7.64049655       9.42760836       2.82679918      -0.01012146       0.00585639      -0.00043237
C        6.61295602      10.19970122       3.46435169      -0.01078384      -0.00070561       0.00719158
H        5.91429681      10.61422840       2.73778933      -0.01191744       0.00509772       0.01172966
H        7.03776780      11.02538932       4.04124148      -0.01139764      -0.00593245       0.01505774
H        6.06450600       9.54290790       4.13425153      -0.01000403      -0.00745153       0.00112550
H        8.19249826      10.08064723       2.36529755      -0.01321411       0.00944145       0.00114664
O        5.59365390       2.38097902       8.51549950       0.00706506       0.00187302       0.00104529
C        5.29422788       3.65907257       9.04915776      -0.00232449      -0.00163993       0.00447828
H        4.34228055       4.05998439       8.68869089      -0.00428635      -0.00658342       0.00442889
H        6.07960875       4.38977751       8.80878903      -0.00694683       0.00437573       0.00851888
H        5.22339078       3.55211847      10.13393421      -0.00330677      -0.00590584       0.00404191
H        5.65321818       2.47707900       7.55152711       0.00263677       0.00279343       0.00075865
