194
Lattice="13.364158015047563 0.0 0.0 0.0 13.364158015047563 0.0 0.0 0.0 13.364158015047563" Properties=species:S:1:pos:R:3:forces:R:3 energy=-66925.5859375 stress="-0.0008244401542469859 -0.00020763067004736513 -5.185671216167975e-05 -0.00020763067004736513 -0.0010945784160867333 -0.00045916564704384655 -5.185671216167975e-05 -0.00045916564704384655 -0.00165157753508538" pbc="T T T"
N       12.38308654      10.59758131       3.55804622       0.03412385       0.00283873      -0.01308935
C       11.23775209      10.10177935       4.08784249      -0.01013139       0.02997330      -0.01111624
C       12.47799603      11.82208266       3.00771330      -0.00354624       0.03347957       0.00013316
C       10.11493538      10.88605912       4.09048651       0.02561175       0.00974209      -0.00152686
C       11.36012602      12.63678172       2.99285492       0.02335104       0.01981254       0.00570915
C       10.17696103      12.16995125       3.53957272       0.00148080       0.02350534       0.00832306
H       13.20108053      10.00332211       3.53821146      -0.00314236       0.02564338      -0.01659106
H       11.27474754       9.09815714       4.48386124       0.00913202       0.01239813      -0.01865235
H       13.40230221      12.13199515       2.53953252       0.01329661       0.03069916       0.00051388
H        9.19359620      10.49039141       4.49165796       0.01175359       0.01746969       0.00636370
H       11.45932980      13.58300847       2.48398564       0.01118011       0.02825741       0.01863305
H        9.28376188      12.78176662       3.51615437       0.01545374       0.02294147       0.01691247
O       13.02046243      13.03396959       0.83151645       0.03608404      -0.00066246       0.01563567
H       13.23779128      13.07923087      -0.10433041       0.04083326      -0.01925585       0.01824033
C        2.53023156       4.84053457       4.70116842      -0.01224774      -0.00139186      -0.00700536
C        2.86649038       3.35534624       4.68205467      -0.01050234      -0.00116424      -0.01166882
C        3.74399298       5.74368405       4.53705122      -0.01380086       0.00097175      -0.00781198
C        1.63767119       2.46617636       4.83303813      -0.00956452      -0.00234504      -0.00798110
C        3.39533742       7.22026075       4.62333313      -0.01544407       0.00011045       0.00442653
C        1.96996375       0.98193979       4.85684242      -0.00910794      -0.00203240      -0.00182306
H        1.80675987       5.06054222       3.90726375      -0.01552984      -0.00015333      -0.00370729
H        2.02672858       5.08442135       5.64482373      -0.00925589      -0.00490005      -0.00449935
H        3.57820383       3.13684769       5.48719973      -0.00809926      -0.00246629      -0.01402047
H        3.38376917       3.10897701       3.74677367      -0.01298903       0.00156870      -0.01390108
H        4.48246812       5.49265064       5.30335151      -0.01023698      -0.00377878      -0.01275241
H        4.22609518       5.53334531       3.57726336      -0.01784142       0.00711411      -0.01115271
H        1.10927666       2.73948052       5.75151037      -0.01067738       0.00246184      -0.01031557
H        0.94768215       2.67240208       4.00932803      -0.01306486      -0.00537381      -0.00516582
H        2.66808064       7.48343166       3.85400283      -0.02283448       0.00449858       0.01293813
H        4.27015033       7.85654909       4.47687375      -0.01902014       0.00449471       0.00213294
H        2.95936881       7.46896730       5.59444693      -0.00799759      -0.00771333       0.00939713
H        2.43712485       0.67664752       3.91907456      -0.02210044      -0.01022503      -0.00477459
H        2.66257033       0.74488427       5.66904719       0.00268814       0.00621941      -0.01000786
H        1.07635650       0.37107199       4.99698249      -0.00682439      -0.00244280       0.01147633
C        4.40931464       4.87335555       8.10634141      -0.00473107       0.00348170       0.00455236
C        5.39779219       5.77942600       8.82812250      -0.00521854       0.00405703       0.00489467
C        3.53571227       4.07109373       9.06223409      -0.00485714       0.00486186       0.00614864
C        6.29704794       6.58926506       7.90316581       0.00017338      -0.00052125       0.00562370
C        2.55308177       3.14503830       8.36228869      -0.00352812       0.00197709       0.00784168
C        7.29462402       7.44611856       8.67155449       0.00319690      -0.00530434       0.00729960
H        3.76905100       5.47739413       7.45406742      -0.00402059       0.00204755       0.00249408
H        4.95594483       4.18912520       7.44493403      -0.00406201       0.00209740       0.00644995
H        6.02727119       5.17266397       9.48853295      -0.00871290       0.00430538       0.00862925
H        4.84603807       6.46319689       9.48416498      -0.00568147       0.00703239       0.00140442
H        4.17539615       3.48709001       9.73069591      -0.00380017       0.00734080       0.00740243
H        2.98808106       4.76781161       9.70494210      -0.00471552       0.00564107       0.00534476
H        6.83542896       5.90773835       7.23446537      -0.00265878      -0.00381783       0.00694133
H        5.67954065       7.22455737       7.25763067       0.00446340       0.00183296       0.00417714
H        1.88554905       3.70835848       7.70793332      -0.00467075      -0.00106969       0.00649866
H        1.93562790       2.59901311       9.07774560      -0.00351043       0.00114638       0.00709695
H        3.07438282       2.41066257       7.74419175      -0.00204907       0.00161576       0.00968213
H        6.78058910       8.16551316       9.31330471       0.00546558      -0.00236240       0.00552759
H        7.92716714       6.82798649       9.31255527      -0.00261265      -0.00853652       0.00941645
H        7.94978096       8.00677533       8.00403213       0.00963096      -0.00834158       0.01088275
C        4.43801380      10.37987871       7.91247901      -0.00026667       0.00157607       0.00362228
C        3.28803776      10.86333708       8.78486323       0.00079096       0.00223589       0.00477389
C        5.51173074      11.44026566       7.69835524      -0.00210564       0.00283229       0.00119844
C        2.21832742       9.80730703       9.03545566       0.00052051       0.00216919       0.00424764
C        6.66582054      10.94560261       6.83909187       0.00178578       0.00252576       0.00644723
C        1.12779400      10.30201369       9.97484972       0.00612867      -0.00087819       0.01337373
H        4.89163758       9.49200251       8.36926386       0.00099331       0.00253981       0.00435175
H        4.04993100      10.05263409       6.93993337      -0.00135703       0.00005591       0.00457186
H        2.82524325      11.74258316       8.32054662       0.00060189       0.00270346       0.00569965
H        3.68557934      11.20642807       9.74741575       0.00117445       0.00105575       0.00513038
H        5.05813206      12.32340002       7.23513940      -0.00361006      -0.00033101      -0.00325432
H        5.89087390      11.76979141       8.67132604      -0.00610611       0.00806848       0.00092965
H        1.77968177       9.50105703       8.07870731      -0.00433072       0.00745819       0.00515908
H        2.68804857       8.90995128       9.45416068       0.00139399       0.00004688      -0.00163399
H        7.16832032      10.09648072       7.30639964       0.00459030       0.00776725       0.01230061
H        7.41230213      11.72513440       6.67430014      -0.00005941       0.00353846       0.00271564
H        6.30116272      10.61587737       5.86431362       0.00591102      -0.00409629       0.00726067
H        1.53892513      10.55527870      10.95346263       0.01442805      -0.01075801       0.01132210
H        0.65451639      11.20331184       9.57955966       0.00763312       0.00346148       0.02484155
H        0.34703979       9.55463204      10.12501084       0.00312552       0.00271191       0.01533966
C        4.77747723       4.51523119      12.57554276      -0.00265008      -0.00266853       0.01306345
C        3.66447258       3.47516257      12.62774063      -0.00249410      -0.00233744       0.01618524
C        4.27504358       5.95370076      12.59725394      -0.00288349      -0.00251153       0.01504713
C        4.17638397       2.04074299      12.55540051      -0.00494158      -0.00284892       0.00854939
C        5.39670632       6.98363626      12.57622276      -0.00239378      -0.00264844       0.01078509
C        3.06103639       1.00345618      12.53121945      -0.00623193      -0.00176880       0.00417090
H        5.46295954       4.35835061      13.41749229       0.00135477      -0.00271531       0.00987008
H        5.37487505       4.35983568      11.66968711      -0.00776576      -0.00319541       0.01006877
H        2.96767188       3.64919718      11.80079674      -0.01010446       0.00164366       0.02338737
H        3.07979752       3.60804613      13.54531169       0.00432043      -0.00391964       0.02009237
H        3.61246097       6.11506681      11.73999409      -0.00566930      -0.00335311       0.01737213
H        3.65638193       6.10222015      13.48812711       0.00007723      -0.00207063       0.01714626
H        4.80021619       1.93100052      11.66084305      -0.00628580       0.00356657       0.00706449
H        4.83979504       1.85423707      13.40717145      -0.00375880      -0.00776797       0.00647464
H        6.04473465       6.87790249      13.44943934      -0.00151299      -0.00007910       0.00999899
H        5.00635239       8.00324863      12.57524437       0.00051668      -0.00152831       0.00810125
H        6.02244444       6.86604550      11.68852540      -0.00370800      -0.00523548       0.01034515
H        2.41308115       1.07558478      13.40754432      -0.00608408      -0.00798390       0.00485817
H        2.42953535       1.13426493      11.64883099      -0.00641857       0.00462633       0.00548442
H        3.46188210      -0.01166490      12.50061619      -0.00995968      -0.00299425      -0.00329967
C       11.95685789       7.81450639       7.67190792       0.00010371       0.00063223       0.00490560
C       10.99114824       8.98966031       7.56720643       0.00066918       0.00208360       0.01427895
C       11.26635843       6.46929235       7.87074277      -0.00087428       0.00042192       0.00166309
C       11.68759910      10.33566944       7.40787728       0.00152129       0.00223555       0.01822180
C       12.24939444       5.31920292       8.04808404      -0.00145921      -0.00126442      -0.00519327
C       10.72177454      11.51069087       7.34602510       0.00219703       0.00375453       0.03402042
H       12.58440077       7.76958365       6.77164886      -0.00420651       0.00408305       0.00190163
H       12.64719674       7.99159268       8.50467247       0.00397053      -0.00421720       0.00269938
H       10.35644606       9.01631843       8.46045707       0.00370780      -0.00163374       0.01682901
H       10.30749217       8.82789108       6.72388676      -0.00174859       0.00798855       0.01502120
H       10.61097283       6.53250864       8.74576044       0.00160287      -0.00157880       0.00332600
H       10.61040904       6.26795335       7.01598272      -0.00384419       0.00495130       0.00304037
H       12.38266951      10.47699680       8.23790198       0.00856560      -0.00577823       0.01351467
H       12.30859140      10.31690286       6.50551179      -0.00620179       0.00731955       0.01283666
H       12.89791244       5.21976022       7.17449950      -0.00411489       0.00146046      -0.00721206
H       11.73757780       4.36637816       8.19325785       0.00088283      -0.00248933      -0.00623843
H       12.89106097       5.48535401       8.91665600       0.00125543      -0.00456451      -0.00653833
H        9.95916107      11.35081337       6.58431051      -0.00308576       0.01060934       0.03745890
H       10.20530040      11.64661236       8.29748594       0.00926663      -0.00386926       0.03855203
H       11.23474161      12.44269525       7.10244303      -0.00144050       0.00728017       0.04045090
C        2.90684582       9.87859395       2.18102308      -0.01092488       0.00395179      -0.00352678
C        3.59079623      11.21487621       2.42298270      -0.00541718       0.00184131      -0.00621149
C        1.94084876       9.87431619       1.00276056      -0.00221679       0.00271878      -0.01010957
C        4.59459198      11.17420791       3.57020080      -0.01000795       0.00086653      -0.00185898
C        1.25620495       8.52515647       0.82444982      -0.00736666       0.00516403      -0.00897065
C        5.27284833      12.51645126       3.79171986      -0.00531855      -0.00131297      -0.00085603
H        3.66887717       9.10353404       2.02739439      -0.01431686      -0.00108814       0.00717317
H        2.37580304       9.58445727       3.09655336      -0.01907542       0.01214288      -0.00531375
H        2.83484477      11.98350156       2.62008197      -0.00262493       0.00664464      -0.01391665
H        4.10188426      11.53264377       1.50719647       0.00028737      -0.00490546      -0.00538337
H        1.19765078      10.67245608       1.11364259       0.00209567       0.00785905      -0.01789077
H        2.49571378      10.12342496       0.09216278       0.00564739      -0.00315243      -0.00724086
H        4.08883809      10.85149583       4.48763644      -0.01499577       0.00402892      -0.00375423
H        5.34950765      10.40841316       3.35576622      -0.01238573      -0.00255361       0.00222458
H        1.98587302       7.73720055       0.62307006      -0.00971575       0.00094047       0.00043222
H        0.54051864       8.53642757       0.00167486      -0.00228453       0.00156436      -0.01355250
H        0.71156623       8.23184897       1.72770665      -0.01489015       0.01296008      -0.01112112
H        5.73555362      12.86500233       2.86950165      -0.00398825      -0.00213847      -0.00054559
H        4.55089325      13.27345597       4.09958726      -0.00267425       0.00053103       0.00018902
H        6.04882334      12.47040439       4.55701969      -0.00506216      -0.00238167      -0.00108787
C        8.94020147      10.00043457       0.80859130      -0.00746703      -0.00559211      -0.00630688
C        9.19199445       8.50680124       0.95219458      -0.00880575      -0.01013300      -0.01691098
C        7.47217876      10.40006029       0.77171413      -0.01085040      -0.00698733      -0.02119048
C       10.67310318       8.17914570       1.10460373      -0.00760800      -0.00502309      -0.02400675
C        7.29658375      11.91055425       0.68385541      -0.00492545      -0.00689286      -0.02372199
C       10.94864440       6.69630642       1.28797722      -0.00051400      -0.00227347      -0.01188371
H        9.40696773      10.51119661       1.65241477       0.03291181       0.02206460      -0.02637300
H        9.44671436      10.37604859      -0.08721397      -0.00614664      -0.00764148      -0.01015219
H        8.78446169       7.97101042       0.08770507      -0.00916237      -0.01404008      -0.01699504
H        8.64648845       8.13021653       1.82634264      -0.00428458      -0.01058694      -0.01789427
H        6.97438579       9.91380907      -0.07253565      -0.01262783      -0.00643480      -0.02374327
H        6.97739378      10.02413604       1.67524040      -0.01261241      -0.00605918      -0.02533600
H       11.22005269       8.55719641       0.23603897      -0.01445490      -0.01115570      -0.03156173
H       11.06826068       8.73178789       1.96149329      -0.00612849       0.00566444      -0.03165641
H        7.73077358      12.40206485       1.55726451       0.00359287      -0.01147888      -0.02643283
H        6.24658239      12.20099701       0.62986614      -0.00233364       0.00335170      -0.01742299
H        7.80280213      12.31438701      -0.19502945      -0.00655895      -0.01128339      -0.02759326
H       10.46840175       6.31598306       2.19233980       0.00571716       0.00378135      -0.00642581
H       10.56009876       6.12177018       0.44583319      -0.00199062      -0.01189752      -0.00432640
H       12.01725530       6.48937814       1.36624584       0.00014526      -0.00049908      -0.01537247
C        7.92154566       5.61476583       4.13019804       0.00751495      -0.00379208      -0.00272495
C        7.05801181       4.47254309       3.62377827       0.00738311      -0.00465609      -0.00175679
C        7.16243326       6.92532173       4.26812407       0.00781101      -0.00305768      -0.00701463
C        7.81429686       3.16541721       3.44903653       0.00982362      -0.00321040      -0.00477168
C        8.04161293       8.05083881       4.78202229       0.00606847      -0.00169683      -0.00596510
C        6.90576268       2.04811889       2.96691753       0.01214722      -0.00520352      -0.00494204
H        8.35430075       5.34313299       5.10104603       0.00695737      -0.00156038      -0.00188211
H        8.76910587       5.75788182       3.45104348       0.00798386      -0.00591628      -0.00264117
H        6.60269449       4.75908116       2.66754632       0.00570038      -0.00431533      -0.00078699
H        6.22499400       4.31218235       4.31580570       0.00834811      -0.00600743      -0.00073117
H        6.72996587       7.20002027       3.29920915       0.01148399      -0.00471842      -0.00907710
H        6.31906323       6.78390784       4.94653168       0.00487718      -0.00183676      -0.01014215
H        8.64008444       3.31047584       2.74521439       0.00708520       0.00059856      -0.00708503
H        8.27119789       2.88546286       4.40434803       0.01352458      -0.00330275      -0.00657699
H        8.44034291       7.80894327       5.76968893       0.00175341       0.00103935      -0.00378415
H        7.48997369       8.98785202       4.86731965       0.00700858      -0.00080128      -0.01058993
H        8.88870801       8.21212160       4.11117337       0.00880027      -0.00291624      -0.00296058
H        6.08391454       1.88930547       3.66775340       0.01391694      -0.00904730      -0.00410697
H        6.46605907       2.28892284       1.99608344       0.01009943      -0.00428769      -0.00349350
H        7.43933579       1.10332117       2.86217282       0.01299250      -0.00434002      -0.00905278
C        9.35034788       2.65223063      10.71324673       0.00581066      -0.00450253      -0.00167245
C       10.29726456       3.64971250      11.36851830       0.00732018      -0.00622445      -0.00043136
C        8.08405006       3.28318873      10.14891296       0.00528997      -0.00346565      -0.00013473
C       11.58691621       3.00252972      11.86190025       0.00963131      -0.00818837      -0.00935761
C        7.15035772       2.26195938       9.51295240       0.00604668      -0.00263613      -0.00289984
C       12.55073275       3.99004252      12.50437173       0.01170251      -0.01368999      -0.00402638
H        9.87944300       2.12855040       9.90833219       0.00510332      -0.00344020      -0.00294462
H        9.07581767       1.88148244      11.44268011       0.00627870      -0.00577426      -0.00256407
H        9.78458644       4.14014994      12.20538442       0.01034978      -0.01123705       0.00430971
H       10.53839112       4.44565724      10.65187511       0.00418708      -0.00189787       0.00331661
H        7.56039532       3.81567916      10.95054171       0.00540090      -0.00528581       0.00104952
H        8.35830175       4.04330968       9.40837210       0.00544438      -0.00152600       0.00220430
H       11.35306281       2.20784544      12.57668609       0.01279974      -0.01370797      -0.01486447
H       12.07706583       2.51068207      11.01503904       0.00671183      -0.00069849      -0.01511881
H        7.64920771       1.72964818       8.70014926       0.00691202       0.00021176      -0.00412887
H        6.25449621       2.73025222       9.10220644       0.00503582      -0.00461583      -0.00300954
H        6.83005012       1.51697274      10.24437675       0.00619144      -0.00432217      -0.00474340
H       12.82005983       4.79097116      11.81046645       0.00916622      -0.00731604       0.00248539
H       12.10158499       4.45634239      13.38133428       0.01464942      -0.02243564       0.00185663
H       13.46797646       3.49632087      12.82741851       0.01347999      -0.01487991      -0.01089539
