192
Lattice="13.334126530951153 0.0 0.0 0.0 13.334126530951153 0.0 0.0 0.0 13.334126530951153" Properties=species:S:1:pos:R:3:forces:R:3 energy=-455552.78125 stress="-0.0009103936608880758 3.5944907494922518e-06 -0.0005795592733193189 3.5944907494922518e-06 -0.0007308544591069221 0.00038698090065736324 -0.0005795592733193189 0.00038698090065736324 -0.0028430961538106203" pbc="T T T"
Rb      13.18449229      14.83204182       2.33427543       0.00662370       0.02548569       0.02552515
I       12.81264103      11.81821063       0.72792862      -0.00065544       0.03216272       0.01786276
O        1.60287515       2.32629841      13.43136721       0.01571074      -0.01501402       0.00227031
O        0.53111065       2.95212573      11.59664100      -0.01485354      -0.03119858       0.01596417
O       -0.05772355       3.81464002      13.59930812      -0.00466779      -0.04070505       0.02038366
C        2.26988637       1.61018489      12.34801988       0.01012456      -0.01196712      -0.00303731
C        1.26996891       1.75222713      11.21865034       0.00028220      -0.01879138       0.00444621
C        0.64059392       3.10676539      12.91447726      -0.00276005      -0.03136730       0.01494938
H        2.43366898       0.59054425      12.67615996       0.01724366      -0.01066583      -0.00413501
H        3.21984159       2.10206030      12.15305122       0.00677177      -0.01052776      -0.01316807
H        1.71432383       1.91019748      10.24485309      -0.00968875      -0.00592390       0.00240019
H        0.55716806       0.92746320      11.18000739       0.01122785      -0.02743623       0.00539885
O        4.11279327       0.87811399       1.45150772       0.00532052       0.02171661       0.00950822
O        4.49764355       1.51949064       3.53737846       0.01658896      -0.00108042       0.01408646
O        2.39909329       1.12640985       2.87543561       0.01183116       0.01364088       0.01950926
C        5.55310441       0.87815428       1.56689431       0.00557029       0.01031694       0.00510269
C        5.79129503       1.55252422       2.91212562       0.01419857      -0.00174105       0.00934687
C        3.58112669       1.16274487       2.64606237       0.01222783       0.01156040       0.01419693
H        5.96245889       1.41311756       0.71326237       0.00689805       0.01268631       0.00758651
H        5.89068304      -0.15065149       1.57034113      -0.00284544       0.00784844      -0.00340977
H        6.48436615       1.00551833       3.54489919       0.01434761      -0.01036638       0.00148997
H        6.09111813       2.59742432       2.83097434       0.01924206      -0.00289398       0.01668242
O        9.35156184       6.26801536       1.86186746       0.00102679       0.00231656      -0.01297799
O        7.62529564       4.90282051       2.18020854       0.01119065      -0.00624607       0.00350606
O        7.25794705       7.05051085       1.60622298      -0.00312349      -0.01581323      -0.01303655
C        9.92122555       5.06492090       2.42019805       0.00973535       0.01096558      -0.00319493
C        8.79486957       4.05807639       2.22816152       0.01717523       0.00188905       0.00436111
C        8.01350515       6.16271833       1.86858926      -0.00075555      -0.00400114      -0.00909761
H       10.15196961       5.26159239       3.46780527       0.00766826       0.02141640      -0.00481579
H       10.82625099       4.83447091       1.86496173       0.01145253       0.01297333      -0.00063267
H        8.86459995       3.51876788       1.28025037       0.01854264      -0.00139394       0.00667313
H        8.67494137       3.35830631       3.05158083       0.02414438       0.00516930       0.00786564
O        8.94752417       0.76809701      11.85949704      -0.00337270      -0.01603781      -0.01798287
O        9.61851842       2.88121464      11.97095732      -0.03267363      -0.00988404       0.01861269
O        7.43687889       2.41566978      11.66353335      -0.02485734      -0.03478223       0.02277867
C       10.33030737       0.69861192      12.28279144      -0.00202093      -0.00297368      -0.01629992
C       10.83794924       2.09204753      11.96638419      -0.02179581       0.00664622      -0.00378390
C        8.57089011       2.04844396      11.80993643      -0.02514797      -0.01976740       0.00849493
H       10.82905923      -0.09014089      11.73127080       0.00591877       0.00748587      -0.02319491
H       10.33726810       0.46233695      13.34563014      -0.00167314      -0.01348823      -0.01932365
H       11.49604806       2.50731772      12.72297495      -0.01991951       0.01039694      -0.00810567
H       11.29022152       2.16812446      10.98074806      -0.03396276       0.02407113      -0.00770950
O        9.58384713       5.30171898       6.71783381       0.00670607      -0.00461251       0.00224851
O       11.27958330       6.73035655       6.87272903      -0.00530308       0.00907853       0.00108624
O        9.16390880       7.49673773       6.99954978      -0.01058125      -0.00947368       0.00124539
C       10.77658749       4.48975428       6.82370704       0.01286626       0.00462162       0.00135669
C       11.86313474       5.47663020       6.45487369       0.00547123       0.01368627       0.00293124
C        9.95113798       6.60490832       6.87627456      -0.00511762      -0.00096238       0.00170892
H       10.67769169       3.64454482       6.14561357       0.01979157       0.00545779      -0.00032964
H       10.86373100       4.13205224       7.84884200       0.01549967       0.00346689       0.00069797
H       12.79451075       5.32959048       6.98698916       0.00575605       0.02159001       0.00395602
H       12.05617676       5.53667918       5.38335000       0.00722662       0.01484543       0.00339901
O        5.90682776      12.49351488      10.20137741      -0.00021705       0.00960620      -0.00336464
O        5.03964514      12.94143536      12.19386128      -0.00993538      -0.00460289      -0.00456429
O        4.10923399      13.83376537      10.34432394      -0.01527023      -0.01020354      -0.00528920
C        6.62667111      11.64572095      11.11618535       0.00596118       0.01414773      -0.00390857
C        6.27964299      12.24567678      12.46501823      -0.00525142       0.00503865      -0.00299627
C        4.94667636      13.15835451      10.86689861      -0.00761700      -0.00325286      -0.00350147
H        7.68347884      11.70712811      10.87758059       0.00585455       0.02771875       0.00063187
H        6.26900941      10.62471186      10.98467340       0.01818207       0.01098534      -0.00968783
H        6.09304706      11.50849577      13.24177943      -0.00196759       0.00057954      -0.00667939
H        7.01905650      12.96988252      12.79392906      -0.01281124       0.00991148       0.00289658
O        3.10142001      10.37234631       2.30844577       0.00128014       0.00791740       0.00132847
O        4.94880259       9.76020309       1.23732334      -0.00455550      -0.00009373      -0.00379366
O        5.03849445      11.42998500       2.74307683       0.00621146       0.00291181      -0.00779665
C        2.73335665       9.16665157       1.61121564      -0.00552154       0.00853054       0.00395620
C        3.89994051       8.97471609       0.64621523      -0.00844616       0.00123730       0.00192565
C        4.41109225      10.59619118       2.15884096       0.00121179       0.00290442      -0.00427911
H        1.77501924       9.34164476       1.12723335      -0.00542355       0.01226735       0.00520943
H        2.65739522       8.37150770       2.35349141      -0.00833813       0.01023287       0.00514114
H        4.25195646       7.94700691       0.57793169      -0.01197595      -0.00004128       0.00522878
H        3.69260313       9.36522202      -0.35281740      -0.00940038      -0.00216860       0.00087306
O        5.14246606       4.27469505      11.66255331      -0.01015414       0.01311288       0.00544974
O        6.98841695       5.28999544      10.94973635       0.00787846      -0.03388017      -0.01378438
O        5.70044835       4.18129732       9.48606863      -0.01919755      -0.02048400       0.01070940
C        5.81032104       4.67497087      12.86236560       0.00623105       0.01402232      -0.00298655
C        6.94890586       5.56165933      12.35141356       0.01206768      -0.00785550      -0.01805726
C        5.93688552       4.53663991      10.59906082      -0.00906755      -0.01640826      -0.00904185
H        6.17085800       3.78156792      13.36844670      -0.00380111       0.01174638       0.00121424
H        5.10504692       5.20986119      13.49468536       0.01796214       0.02790047      -0.00156912
H        6.76109222       6.62281281      12.50729685       0.02195847      -0.00308341      -0.03805454
H        7.91575495       5.29141555      12.77131603       0.01067483      -0.00828189      -0.01443182
O        5.46276303      10.04020887       8.80602379      -0.01030504       0.00553301       0.00486018
O        4.32978686       8.17872835       8.39477246      -0.00757939       0.00167221       0.01572639
O        6.53596213       8.06696373       8.82493040      -0.01016247       0.00736886       0.02507231
C        4.09158139      10.46626935       8.71225832      -0.01077507       0.00273013       0.00223798
C        3.37563333       9.23969670       8.15850866      -0.00695908      -0.00018832       0.00461647
C        5.53197687       8.70121812       8.67946632      -0.00750607       0.00420943       0.01625809
H        4.05177005      11.33259088       8.06102591      -0.01205008       0.00109211       0.00035685
H        3.74766686      10.74186142       9.71054125      -0.01218797       0.00455433       0.00109953
H        2.45602078       8.99591439       8.68664674      -0.00966594       0.00197344       0.00033069
H        3.20548376       9.30192672       7.08641174      -0.00046804      -0.00574014       0.00323379
O       10.69884477       7.61898907       9.76592630       0.00839233      -0.00197865       0.00423174
O       12.07604903       7.58174340      11.51339626       0.00718278      -0.01469079       0.00546724
O       12.69110184       8.65745927       9.62956367       0.00826037       0.00151521       0.01221353
C        9.94507831       6.99899889      10.81599218       0.01018292      -0.01822346      -0.00467309
C       11.01456001       6.67900022      11.85531797       0.00796771      -0.01711589      -0.00170898
C       11.91127563       7.99494810      10.23858573       0.00535178      -0.00662643       0.01002532
H        9.43510963       6.12649754      10.41733341       0.02182548      -0.02059793      -0.01406369
H        9.20023454       7.71654629      11.17088884       0.00066596      -0.02940831      -0.00309038
H       10.70601513       6.88624778      12.87908718       0.00296395      -0.02077168      -0.00254798
H       11.39092619       5.66002577      11.77001187       0.01212099      -0.01501465      -0.00374258
O        8.95450328      11.27017110       0.09078871      -0.00280528       0.00226769      -0.00926534
O        9.00540384      10.85333356       2.26940189       0.00327317       0.00743514      -0.00853287
O        8.46465669      12.91315048       1.55195324       0.00183111       0.00522661      -0.01215968
C        9.29099429       9.86918668       0.19263762      -0.00365369       0.00255549      -0.00758898
C        9.62551120       9.69558488       1.66454689      -0.00276166       0.00404337      -0.00757849
C        8.78438799      11.77776332       1.32812783       0.00085907       0.00566041      -0.01021272
H       10.14265538       9.68033326      -0.45782835      -0.00432682       0.00088811      -0.00766543
H        8.41985629       9.28426872      -0.10803582      -0.00365734       0.00260387      -0.00667161
H        9.19978284       8.80095774       2.10464231      -0.00624716       0.00646412      -0.00602542
H       10.69792028       9.75339347       1.85379075      -0.00249070      -0.00068636      -0.00824261
O        8.84190905       2.19986875       7.99392434      -0.00165740       0.00058579      -0.01119523
O        8.30516574       0.12567573       8.57379330       0.00762659      -0.00276300      -0.01492184
O       10.33347805       0.93497003       9.10513838       0.00237012       0.00337270      -0.02079141
C        7.43411943       2.06924050       7.66678354      -0.00175570      -0.00451607      -0.00916362
C        7.21028835       0.57077377       7.73082987       0.00513247      -0.00586110      -0.01284344
C        9.25329726       1.07638381       8.60173307       0.00947440      -0.00041169      -0.01277986
H        7.27419550       2.48229254       6.67492400      -0.00512323      -0.00264767      -0.00741607
H        6.86150683       2.62629341       8.40658082      -0.00288567      -0.00919610      -0.00683466
H        6.27591418       0.28453495       8.19616701       0.00729150      -0.01145068      -0.01323205
H        7.30020487       0.07638555       6.76663788       0.00745538      -0.00239623      -0.01404291
O        4.77088284       4.95728461       6.82876813       0.00116072       0.02318367       0.00602677
O        5.67890554       3.72928991       5.21084441       0.00775793       0.01670858       0.01480055
O        3.71764013       3.09551034       6.14424912       0.01117778       0.01724923       0.01408000
C        6.06875630       5.53616846       6.62277774       0.00477533       0.01761919       0.01113099
C        6.51324558       4.89701844       5.31393026       0.00198776       0.02157939       0.00883991
C        4.62578514       3.86065311       6.07068023       0.00343353       0.01535106       0.01175641
H        6.70027294       5.27875836       7.47018230       0.00208265       0.00772956       0.01014024
H        5.95876840       6.61505646       6.57573426       0.01184424       0.01821977       0.01825386
H        6.32947729       5.53318040       4.44866307      -0.00807087       0.02010530       0.01023394
H        7.55540019       4.58298483       5.33428079       0.00343594       0.02783178       0.00277244
O        1.29980739       4.04627831       9.00772987      -0.02491948      -0.00703967       0.00470753
O        1.63513330       6.12890881       9.69606029      -0.02429816      -0.00855672       0.00800069
O       -0.46845535       5.34273069       9.51963192      -0.01907587      -0.01282175       0.01992549
C        2.73110952       4.15360043       9.21391267      -0.02287196      -0.00336814      -0.00969350
C        2.93137785       5.65031871       9.25911782      -0.02657521      -0.00277859      -0.00523114
C        0.71749342       5.18856543       9.42054172      -0.02948684      -0.00894069       0.01235794
H        3.23774398       3.65569630       8.39544009      -0.03088647       0.00156900      -0.01730376
H        2.98554643       3.67840985      10.16194753      -0.01248481      -0.00677122      -0.01455295
H        3.67297941       5.98039676       9.97983326      -0.02133027      -0.00453559      -0.01079014
H        3.15186411       6.07047184       8.28376395      -0.03747595       0.00224823      -0.00528848
O       11.40050863      10.65001459       7.67039833       0.00110015      -0.00420064       0.00340943
O       11.88885385      11.51920359       9.65359503       0.00392018      -0.00411840       0.00333482
O       13.45414036      11.46596651       8.03800026       0.00241971      -0.00685957       0.00141484
C       10.17022672      10.53407297       8.40484050       0.00138760      -0.00262240       0.00385541
C       10.54663944      11.03914786       9.79963818       0.00158134      -0.00086470       0.00293744
C       12.34979118      11.21980942       8.43355863       0.00276792      -0.00410073       0.00609358
H        9.85379353       9.49487686       8.37585208       0.00303073      -0.00268376       0.00659361
H        9.42421133      11.17093768       7.92881306       0.00123748      -0.00489885       0.00133458
H        9.92769778      11.87270960      10.12300633       0.00277120       0.00006396       0.00002095
H       10.54730529      10.24748479      10.54702534      -0.00149597      -0.00165766      -0.00052559
O        5.93907908       8.09246711       4.09275878      -0.00097421       0.01462804      -0.01195921
O        5.53309094       9.34552239       5.87893220      -0.00141141      -0.01069506       0.00527269
O        3.81458658       8.43531497       4.73469557      -0.00038815      -0.00387588      -0.00138253
C        7.24276942       8.42069570       4.62691772      -0.00092542       0.01480535      -0.01280397
C        6.93754855       9.54879746       5.59647742      -0.00323582      -0.00030410       0.00384283
C        4.98847249       8.61718762       4.89291498      -0.00054747      -0.00030601      -0.00272903
H        7.88785325       8.70903633       3.80623279      -0.00625992       0.03005177      -0.01121053
H        7.65531084       7.55034514       5.13615536       0.00651579       0.01021561      -0.02710140
H        7.49120462       9.46587638       6.52700687      -0.00042978      -0.01033948       0.00106776
H        7.04642545      10.53666758       5.15042742      -0.00945289       0.00625068       0.01737648
O        1.61849305       5.69051465       2.82858592       0.00019036       0.00192893       0.00764537
O        3.38496304       5.43555535       4.15982282       0.00532568      -0.00380352      -0.00095969
O        1.34597847       5.77267924       5.06473853       0.00814849      -0.00539646       0.01123202
C        2.69014918       5.29113725       1.96275772      -0.00400651       0.00189458       0.00219229
C        3.92502322       5.49701607       2.83456985      -0.00030237      -0.00060578      -0.00318360
C        2.05384334       5.64946067       4.11830821       0.00787908      -0.00301223       0.00256890
H        2.66466707       5.91667821       1.07120893      -0.00738967       0.00328761       0.00328296
H        2.54038675       4.24777507       1.67982307      -0.00669081       0.00247210       0.00150026
H        4.66817583       4.70761184       2.73608657      -0.00073388      -0.00038704      -0.00874558
H        4.40008944       6.47150206       2.70303598      -0.00083755      -0.00040162      -0.00314634
O        2.94762458      13.50901158       5.77769239       0.01075494      -0.00184017       0.01596615
O        3.43609166      11.35497369       5.55822036       0.00594647      -0.00004703      -0.01129095
O        5.08604107      12.83037608       5.93246701       0.01099706      -0.00672334      -0.00628912
C        1.67231072      12.86553628       5.65468034       0.00899783       0.00316089       0.00990349
C        2.02414404      11.41653219       5.30938730       0.00399441       0.00349569       0.00281371
C        3.92474729      12.59315171       5.76040686       0.00806475      -0.00342691      -0.00121965
H        1.12583960      13.37004009       4.86064437       0.01235282       0.00889580       0.01130489
H        1.14401891      12.95062911       6.60217281       0.00721571       0.00021355       0.00898129
H        1.52747579      10.69936702       5.95913313       0.00859770       0.00307113       0.00573796
H        1.85653135      11.16199045       4.26459720      -0.00662934       0.00617248       0.00410926
O       12.13601560       9.59549355       4.39895581      -0.00334722      -0.01239330      -0.00684275
O       10.00924008      10.04224027       4.86168181       0.00036052       0.00044906      -0.00339617
O       10.60792714       7.94954271       4.28822975      -0.01354954      -0.00237501      -0.00523189
C       12.12615601      11.00307747       4.70419388       0.00671363      -0.01390210       0.00072867
C       10.64155251      11.33495021       4.83585858       0.00902015      -0.00367659      -0.00320389
C       10.90057401       9.08936925       4.51048559      -0.00628461      -0.00497103      -0.00531359
H       12.60420503      11.51254907       3.86756063       0.01282583      -0.01284605       0.00536048
H       12.66416571      11.15551674       5.63694012       0.00469282      -0.02337372       0.00326580
H       10.40694581      11.84635541       5.76583753       0.00975756      -0.00137551      -0.00457749
H       10.25079900      11.88992255       3.98418493       0.01581304      -0.00181666      -0.00511527
