199
Lattice="19.2237101597924 0.0 0.0 0.0 19.2237101597924 0.0 0.0 0.0 19.2237101597924" Properties=species:S:1:pos:R:3:forces:R:3 energy=-2051988.625 stress="0.0003054878325201571 -0.00016177132783923298 5.587410487351008e-05 -0.00016177132783923298 9.327609586762264e-05 5.646883664667257e-06 5.587410487351008e-05 5.646883664667257e-06 0.0004208434547763318" pbc="T T T"
Rb      20.46750119      16.59904401      -1.35159227       0.00104490       0.00148135       0.01065028
S       14.38202547      13.16874031       1.15548063       0.00999266      -0.01273859      -0.03612375
O       15.55084743      12.97664124       0.29471233      -0.02711511       0.00193813       0.00753570
O       13.17743763      12.50390893       0.65329599       0.00069928       0.02780128      -0.00481558
O       14.14790802      14.57057942       1.50579074       0.01187003       0.01471686       0.00583738
C       14.78118668      12.36229137       2.70401527      -0.01275727      -0.00860715      -0.01140714
H       15.49559628      12.98857328       3.23226255       0.00747411      -0.02990027      -0.01623398
H       13.86984122      12.25991459       3.28693378      -0.00917702       0.01197802      -0.00582227
H       15.21402568      11.38840235       2.49390247      -0.03883163      -0.01729752      -0.02064105
Cl      11.41932042       6.23570965      14.15294877      -0.00110444      -0.00004578      -0.00704002
Cl      10.94233125       6.97578685      16.91615011      -0.00148491      -0.00140041      -0.00679177
Cl      11.20979203       4.17872158      16.18734198      -0.00505845      -0.00126451      -0.00858645
Cl       8.85468409       5.66851621      15.38448893      -0.00263464       0.00270596      -0.00881109
C       10.60838920       5.76561981      15.66797098      -0.00253703       0.00002117      -0.00779776
Cl       8.14316102      14.69720759       0.05218938       0.01719910       0.00771472      -0.00524920
Cl       7.97444907      12.13618395       1.41223986      -0.02158156       0.00826508      -0.01045820
Cl       8.44195525      14.55909813       2.93179367       0.01201405       0.00046909      -0.01337123
Cl      10.52376287      13.48418376       1.19753641      -0.00225759      -0.02628206      -0.00876355
C        8.80007083      13.71474962       1.39570302       0.00338404      -0.00567836      -0.01047336
Cl       2.94086286       0.25373211      19.22451447       0.00023760      -0.00197472       0.00443196
Cl       0.31829464       1.50980858      19.37113252       0.00144280       0.00349486      -0.00192889
Cl       2.70352524       3.03483915      19.97978572       0.00306416      -0.00098257       0.00102169
Cl       1.80996498       0.95724525      21.79780535      -0.00468880       0.00370918       0.00164030
C        1.93416488       1.45243237      20.10320130       0.00007354       0.00055258       0.00135919
Cl       9.62969880      11.07708102      13.35991204      -0.00341702       0.00317990      -0.00016195
Cl      11.31087504       9.54006289      11.57135399      -0.00125316      -0.00072870       0.00492710
Cl      11.07231061      12.41014810      11.22297365       0.00070259      -0.00120303      -0.00015898
Cl       8.82322127      10.68837430      10.60346253       0.00070670      -0.00106815      -0.00071883
C       10.20678235      10.92323607      11.69514115      -0.00086274       0.00008143       0.00101146
Cl       2.41666255       3.05101420      15.94776233       0.00326654       0.00491035       0.00490177
Cl       3.25690888       5.57645509      17.11890487      -0.00357038       0.01049149      -0.00119819
Cl       0.45012829       4.85317018      17.09646205      -0.00131750       0.00268255       0.00201064
Cl       1.78733528       5.55124474      14.61732534      -0.00455807      -0.00012095      -0.00063410
C        1.97525049       4.76542778      16.19227255      -0.00160261       0.00466368       0.00146645
Cl       4.66985206      14.95666354       4.69315479       0.00620306       0.00764994      -0.00960854
Cl       3.49860119      15.90838912       2.22273149       0.00440270       0.00283985      -0.00890365
Cl       1.96737733      14.17844944       3.99094649       0.00694796       0.00415485      -0.00807878
Cl       4.21954820      13.10662719       2.50311374       0.00255929       0.00516111      -0.01345037
C        3.58905159      14.51954732       3.36119789       0.00630523       0.00378639      -0.00905137
Cl       7.42357274       8.73349244       0.42566598      -0.00915965      -0.00334979      -0.00210281
Cl       4.97691235       9.27713791       1.88757882      -0.00624834       0.01116198      -0.00744769
Cl       5.36473731       6.70228342       0.60925402      -0.01174369       0.00292924       0.00898899
Cl       4.92122442       9.07624616      -1.00633377      -0.01600061      -0.00983228      -0.00589114
C        5.66959495       8.44891072       0.47979330      -0.01013039       0.00132860      -0.00355476
Cl      -0.20156764       9.91489746      14.27610234       0.00249173      -0.00265387       0.00151956
Cl       0.67624484       8.74306844      16.78794663       0.01360482       0.00626960       0.00238436
Cl      -2.03319591       8.32684013      15.85272721       0.00730386      -0.00058740       0.00553068
Cl      -1.21036639      10.94736030      16.79053886       0.00435206      -0.00069436       0.00004047
C       -0.69593858       9.48443733      15.93045865       0.00822024      -0.00089750       0.00362654
Cl      11.07943034      18.95118073       1.37623325      -0.00338334       0.00406520       0.00406086
Cl      12.20785416      18.97074073       4.04925032      -0.01113780      -0.00074382      -0.00130856
Cl      13.78655969      19.89533541       1.79285340      -0.00682348       0.00541663       0.00158712
Cl      13.17934983      17.07651793       2.07100929      -0.00478935       0.00368631      -0.00124449
C       12.57261339      18.70343246       2.31939161      -0.00404234       0.00154734       0.00031056
Cl       2.41935847      18.05005729       5.57091632       0.00272390       0.00901863      -0.00508028
Cl      -0.12168683      16.78816042       6.17178258       0.00562522       0.00346792      -0.00426899
Cl       0.87566479      18.90999606       7.87333988       0.00659423      -0.00120717       0.00119159
Cl       2.17944327      16.31820882       7.88210448       0.00985411       0.00040805      -0.01075733
C        1.32718498      17.51915308       6.88029363       0.00617328       0.00285679      -0.00469473
Cl       5.49520646       0.24171191       3.43227437      -0.00921866       0.00475669       0.00562099
Cl       7.34901793      -1.46549582       1.99302660      -0.01391178       0.00308990       0.00261523
Cl       8.34906733       0.73496116       3.57959153      -0.00840425      -0.00086029       0.00495210
Cl       6.90860032       1.26406207       1.11495024      -0.00754808       0.00469488       0.00602919
C        7.03235549       0.19111901       2.53267278      -0.00969981       0.00273451       0.00466534
Cl      11.47841934       1.14857094       9.91252900       0.00482258      -0.00157082      -0.00677609
Cl      12.66628788       2.09605454       7.44652213       0.00931321      -0.00439701      -0.00582498
Cl      14.12949635       2.33063687       9.94512972       0.00235531       0.00382868      -0.00248250
Cl      11.80802379       3.99288858       9.46548264       0.00027411      -0.00173831      -0.01232817
C       12.51405701       2.38732218       9.18903549       0.00424466      -0.00094189      -0.00693132
Cl       5.21304584      -2.09715820      18.07137593      -0.00131254      -0.00104118       0.00087566
Cl       7.83567913      -1.21937447      17.23180521      -0.00119978      -0.00463078      -0.00296214
Cl       5.51100037       0.42961735      16.66629015       0.00059178      -0.00029761       0.00225369
Cl       5.90046157      -2.06587767      15.24409776      -0.00592696       0.00011103      -0.00029732
C        6.13245129      -1.22918707      16.79491000      -0.00205326      -0.00152972      -0.00004705
Cl       2.32422879       9.10833577       6.99382996       0.00784262      -0.01577332       0.00269288
Cl       1.75633606      10.25688471       4.39083052      -0.00222807      -0.00086123       0.01201379
Cl       0.27797614       7.93169632       5.31745169       0.00092137      -0.00599217       0.00418642
Cl       3.06372051       7.67892452       4.57684783      -0.00213444      -0.00195137      -0.00833806
C        1.85392952       8.74395481       5.31520555       0.00110930      -0.00626060       0.00262671
Cl       5.01577973       4.25154278       3.64938549      -0.00013366      -0.00576854      -0.00312808
Cl       6.93885691       3.56340525       5.70939948      -0.00700589      -0.00238982       0.00595248
Cl       6.48402227       6.34092768       5.01873044      -0.01588914      -0.00314176       0.00810513
Cl       7.85354167       4.59318745       3.15339605       0.00096154       0.00441625       0.01266402
C        6.57591611       4.68954224       4.38582928      -0.00567460      -0.00174389       0.00600040
Cl      18.68578710      14.54779568       0.92794102       0.00407546      -0.00054903       0.00238884
Cl      16.84239828      15.79970891       2.78677514       0.00231862      -0.00172240       0.00854382
Cl      16.95040916      16.68175846       0.02967711      -0.00973424      -0.00588462       0.00505200
Cl      19.14955401      17.27399605       1.84002248       0.00017041      -0.00216681      -0.00680277
C       17.88059067      16.06849982       1.40883234      -0.00385395      -0.00010926       0.00256269
Cl       1.46010535       7.74779688      11.14882670      -0.00228217       0.00629312       0.01311019
Cl       1.73051871      10.62685812      11.39995735       0.00746071       0.00615641       0.00430598
Cl       3.92260977       9.06057130      10.33487854      -0.00096765      -0.00365971       0.00131595
Cl       3.24721012       8.85980069      13.14361193       0.00796832       0.00615773       0.00397986
C        2.58867085       9.07159199      11.50205971       0.00296274       0.00383722       0.00578737
Cl       8.38898023      19.29619901       7.49448684       0.00328781      -0.00499082       0.00469659
Cl       8.19062002      16.73242780       8.83651021       0.00367896      -0.00402197       0.00357258
Cl       8.55391598      16.84274141       5.96049884       0.00124077      -0.00776292       0.00065839
Cl       6.02383331      17.64956168       7.13951993       0.00105351      -0.00385811      -0.00376728
C        7.78601250      17.62593929       7.35519646       0.00166787      -0.00356542      -0.00124356
Cl      14.30109103       7.38903349      10.72637461      -0.00161940      -0.00276390      -0.00509430
Cl      16.85832075       8.11846354       9.57056436      -0.00017142       0.00634764       0.00361899
Cl      15.98956262       9.34366772      12.04987607      -0.01013872      -0.00182359       0.00423396
Cl      14.66991379      10.02166409       9.56059338      -0.00495967       0.00090504       0.00213602
C       15.45650422       8.71825896      10.48005599      -0.00416621       0.00057328       0.00134324
Cl       8.73662293       0.18675189      12.15530106      -0.00431646      -0.00117770      -0.00876206
Cl       8.26638679       1.53673939      14.68099010      -0.00421149      -0.00165197      -0.00825289
Cl       9.38509496       3.00013293      12.44602586       0.01027729      -0.00542575      -0.00346968
Cl      10.97973997       0.99244751      13.81111664      -0.00492647      -0.01602936      -0.00106508
C        9.34462981       1.43439968      13.27071147      -0.00097424      -0.00614022      -0.00541019
Cl       8.03782417       9.57605319       4.31865465      -0.00151332      -0.00169849       0.00035810
Cl       5.70569025       9.66851818       6.03977427       0.00011387       0.00439255       0.00283814
Cl       7.04145483      12.12020919       5.28348749       0.00335068       0.00134462      -0.00251581
Cl       8.32777759      10.28213270       7.11647163       0.00213501       0.00204266      -0.00074756
C        7.28435654      10.41645561       5.69227217       0.00096456       0.00153930      -0.00009763
Cl       2.95497376       5.23448614       7.34773123       0.00398877       0.00260231      -0.00663728
Cl       1.54885459       4.18629013       5.03582166       0.00011636      -0.00522260      -0.00020728
Cl       0.70047532       3.44314321       7.70405551       0.00233763       0.00541878       0.00272912
Cl       3.21051184       2.43473125       6.64625942       0.00126594       0.00001726       0.00644794
C        2.10795536       3.82438996       6.68453953       0.00205101       0.00082067       0.00054124
Cl      17.65738828       3.54847040      14.31094277       0.00166383      -0.00150022       0.00383335
Cl      17.50072693       6.03353053      12.82660024       0.00033596      -0.00200927       0.00019391
Cl      15.14843606       4.36377237      13.10991692       0.00121903      -0.00170787       0.00637130
Cl      17.35241259       3.49657422      11.42488478       0.00075777      -0.00346169       0.00422508
C       16.91258293       4.36475177      12.92377172       0.00103354      -0.00227964       0.00366759
Cl      13.09507728      12.51152777       6.42729845       0.00595993       0.00285393       0.00412336
Cl      10.44000559      13.56027731       6.94621130       0.00452980       0.00144196       0.00002706
Cl      10.87790439      11.74810569       4.72247457       0.00786698      -0.00470901       0.00584215
Cl      11.92377249      14.44477739       4.61088216       0.00462835      -0.00319296      -0.00144511
C       11.57978031      13.07049426       5.67142077       0.00559883      -0.00107927       0.00233792
Cl       7.88669661       4.66280193       9.42806600       0.00520414      -0.00030404      -0.00281883
Cl       8.05265335       6.72182664      11.46249618       0.00160742      -0.00499058       0.00233477
Cl       6.78181200       7.29277949       8.91182271       0.00393155       0.00026727       0.00234488
Cl       9.65082679       6.93828251       9.05492392       0.00420177       0.00171301       0.00462800
C        8.08634726       6.40109605       9.71688171       0.00367624      -0.00082171       0.00170013
Cl      14.53905173      16.41486256      16.34686801      -0.00077736       0.01419917      -0.00404083
Cl      12.54787816      14.63231521      17.46372765       0.01833184       0.00394899       0.01280391
Cl      12.03111636      16.01111316      14.95001432      -0.00189179      -0.01351245       0.00720245
Cl      12.07659433      17.48740849      17.44666231      -0.00566223      -0.00049949      -0.00070512
C       12.78598985      16.11580641      16.56448709       0.00265414       0.00026530       0.00401334
Cl      17.07405615      13.71523504      13.75467823      -0.00588149      -0.00569531       0.00787866
Cl      17.54238590      14.79060802      11.09764583       0.00695810      -0.00323432       0.01120773
Cl      15.33137077      15.77738890      12.69128187      -0.00090250      -0.00503862       0.00143132
Cl      15.24549492      13.09151182      11.59849911       0.00446516      -0.00419518      -0.00084729
C       16.29154672      14.35040858      12.27932437       0.00127373      -0.00469228       0.00504415
Cl      16.14139990       8.85804600       0.22039436      -0.01011819       0.01849524       0.00977850
Cl      18.26283085       7.19410468       1.30079986      -0.00456503       0.00995177      -0.01032736
Cl      16.67503846       8.86897744       3.06460161       0.00603241       0.00431334       0.00741518
Cl      18.57239858      10.07512040       1.23399375       0.00017089       0.01076770       0.00167252
C       17.40619039       8.75043556       1.44988881      -0.00364375       0.00909835       0.00218770
Cl      16.74705123       3.98275103      18.93315006      -0.00639695       0.00174090      -0.00536370
Cl      14.99916912       5.67582535      17.34239234      -0.00506829       0.00192839      -0.00761616
Cl      13.88569020       3.95499299      19.38911355      -0.00493336       0.00570384      -0.00301674
Cl      14.97409564       2.80070901      16.96151753      -0.00969308       0.00270966      -0.00438550
C       15.14687665       4.10688838      18.15430278      -0.00652314       0.00303012      -0.00509956
Cl      13.20182303      12.00152072      14.54350979      -0.00229348      -0.00183094       0.00124878
Cl      13.54317387       9.23158840      15.32886278       0.00552458      -0.00128341      -0.00030342
Cl      11.58629639      10.89164705      16.68616439       0.00223410      -0.00669198       0.00215131
Cl      14.40261902      11.37735891      17.10381065       0.00105625       0.00071186       0.00048369
C       13.20168589      10.88104491      15.93032109       0.00216803      -0.00206818       0.00146551
Cl      15.43532410       2.41703403       4.63450005      -0.00667986       0.00026044       0.01309535
Cl      16.60942445       1.41747779       7.08333586       0.00405445      -0.00912829       0.00574416
Cl      18.16319843       1.44026379       4.63242934      -0.00694114       0.00844150       0.00519812
Cl      15.95560717      -0.41279105       4.93112308      -0.00569321      -0.00092471       0.00095688
C       16.53848620       1.21317825       5.31732535      -0.00488016      -0.00180128       0.00560416
Cl      16.28447175       5.98840569       5.22679044       0.00651795       0.00116692      -0.00129291
Cl      14.40692374       7.75385268       6.55917276       0.00975862       0.00004721       0.00509289
Cl      14.94995352       5.11851957       7.64442030       0.00834667      -0.00316435      -0.00171727
Cl      13.44299263       5.39475642       5.18114883       0.00582510       0.00431067       0.00055104
C       14.77226555       6.06233155       6.15773889       0.00766581       0.00061564       0.00072923
Cl       1.16134605      13.86328351      15.36926056      -0.00960111       0.00017348       0.02424584
Cl       3.93613818      14.30689490      16.05955113      -0.00746776       0.00473551      -0.00192429
Cl       2.95851615      11.60284402      15.63983610      -0.00225207       0.00736001      -0.00460590
Cl       2.14790302      13.09295251      17.99234836       0.02218199      -0.00727664       0.01308805
C        2.56320220      13.19788526      16.25298165      -0.00140806       0.00105082       0.01101708
Cl       4.72901860      15.05543044      12.28007072       0.00430843       0.00386515      -0.00686669
Cl       7.47869421      14.14870265      12.04632190       0.00185943       0.00418492      -0.00203399
Cl       5.51795126      13.36205446      10.05958188      -0.00025199      -0.00642042      -0.00208336
Cl       5.38545870      12.26049749      12.73594947       0.00321553       0.00163776      -0.00290999
C        5.78236228      13.70418778      11.78086969       0.00238756       0.00094754      -0.00339958
Cl      17.85714194      10.80758980       6.78995534       0.00348366       0.00328690      -0.00538372
Cl      17.62402310      13.33585344       5.38920036      -0.00074005       0.00558707      -0.00120589
Cl      19.27446327      13.14452800       7.76414682       0.00766626       0.00170881      -0.00782782
Cl      16.39071847      13.00387235       7.99239829       0.00851503       0.00155045       0.00296465
C       17.78385482      12.56507397       6.98904616       0.00463289       0.00311579      -0.00308868
Cl       2.20445762      -0.95416730      14.77076619       0.00014004      -0.01680262       0.00153295
Cl      -0.28841990       0.03821255      15.88009222       0.00858235      -0.00332090       0.00825876
Cl      -0.32194104      -2.16006004      13.98370977      -0.00828376      -0.00183737       0.00694779
Cl       0.35481560       0.51594620      13.08884001       0.00443389      -0.00515050       0.00694877
C        0.47917747      -0.63519436      14.40471320       0.00129548      -0.00684628       0.00591615
Cl       3.71194380      -0.66768767      10.73993719       0.00346117      -0.00196379      -0.00024733
Cl       5.63396161       1.33487560       9.90666198      -0.00024119       0.00131088       0.00039715
Cl       4.85908312       1.14794801      12.69616893      -0.00221583       0.00090486       0.00073087
Cl       2.97006429       2.13683582      10.72369298      -0.00216645      -0.00279304      -0.00049265
C        4.29557822       0.98931316      11.01605461      -0.00029016      -0.00067741       0.00013150
Cl      14.59283343      16.08115337       6.77160335       0.00576758      -0.00183973       0.00290960
Cl      13.46876078      15.30387700       9.31991611      -0.00229393       0.00191385       0.00097361
Cl      11.99941028      17.09967275       7.57601996       0.00696868       0.00501283      -0.00409746
Cl      14.39661551      18.02135434       8.91440858       0.00570744      -0.00084829       0.00219202
C       13.61115089      16.63101288       8.14356997       0.00388534       0.00095206       0.00061671
