197
Lattice="13.673813796312317 0.0 0.0 0.0 13.673813796312317 0.0 0.0 0.0 13.673813796312317" Properties=species:S:1:pos:R:3:forces:R:3 energy=-239139.953125 stress="1.580297430336941e-05 -0.0003171971475239843 0.00023163521836977452 -0.0003171971475239843 0.0009257150813937187 4.984766746929381e-05 0.00023163521836977452 4.984766746929381e-05 0.0004548003198578954" pbc="T T T"
Rb      14.43873304      14.30395063       2.67430451       0.00122242      -0.00684946      -0.00238059
O       13.02018972      12.08520579       1.64236955      -0.02345395       0.01085794      -0.00879693
O       13.02494909      13.30058888      -0.16007682      -0.02955270       0.00045216      -0.01616645
O       11.68132765      11.59711760       0.00903743      -0.00917685      -0.01548946      -0.01275170
N       12.57761784      12.32037219       0.50128505      -0.02025043      -0.00086008      -0.01227944
O        7.62788264       1.06402503      13.11702365       0.00706124      -0.00932315      -0.01698774
O        7.11936854       3.23415318      12.81052041      -0.00346601      -0.00470829       0.01598391
C        5.67308533       1.53332998      11.92040213       0.00249767      -0.00193298      -0.00636923
C        6.87458506       2.05659842      12.65566487       0.00094974      -0.01052362      -0.00169453
H        5.98948706       0.91955925      11.07637524       0.00236548       0.00069831      -0.00841248
H        5.09074841       0.89295917      12.58394884       0.00026929      -0.00356995      -0.00961246
H        5.06588104       2.36098892      11.57028348       0.00351061       0.00033319      -0.00327983
H        8.41117190       1.40577175      13.60547718       0.00471271      -0.01132476      -0.01124021
O        5.41979826       9.29714599       8.15685381      -0.00153244      -0.00341964       0.00978572
O        3.99043440      10.98564585       8.50449172       0.00203830       0.00055754       0.00332467
C        6.34285766      11.43970641       8.43073370       0.00243735      -0.00400379       0.00555566
C        5.14126972      10.56392443       8.37711977       0.00015777      -0.00127490       0.00642475
H        7.08794538      11.02516900       9.11025596       0.00408335      -0.00567605       0.00260684
H        6.79668018      11.44415774       7.43629832      -0.00059655      -0.00234500       0.00403723
H        6.06461682      12.44830355       8.72148294       0.00453302      -0.00391887       0.00805249
H        4.57932525       8.78973924       7.96680159      -0.00229874      -0.00112739       0.00890085
O       10.51503226       9.39706272      11.61976188       0.00618303       0.00952357       0.00910392
O        8.93574035      10.28725546      10.29437272       0.01080191       0.01944149       0.01090717
C        9.17331641       7.90142040      10.39559671       0.00335212       0.01870316       0.00071046
C        9.49826374       9.31785947      10.74960083       0.00713515       0.01734537       0.00746152
H       10.04633036       7.43503890       9.93777465       0.00193793       0.01869512      -0.00218461
H        8.94896212       7.32946049      11.29531807       0.00266870       0.01464426      -0.00207260
H        8.32535937       7.87847731       9.71728828       0.00290626       0.02426312       0.00097474
H       10.66288994      10.32882127      11.84828671       0.01105098       0.00862086       0.01236583
O        9.63460433      11.13390844       1.64505750      -0.00513405      -0.00258830      -0.00240371
O        9.99550569       8.95459076       2.02070993      -0.00224292      -0.00204951      -0.00259697
C        7.90403699       9.93376472       2.67051610       0.00030410      -0.00274265       0.00762576
C        9.27171555       9.93596492       2.07547756      -0.00278258      -0.00220960       0.00049327
H        7.94160339      10.37789381       3.66788030       0.00486929      -0.00147130       0.00693548
H        7.22927434      10.52556364       2.05612009      -0.00334238      -0.00382499       0.01042865
H        7.54275243       8.91190123       2.74530516       0.00167763      -0.00300059       0.01061205
H       10.51430539      11.12226176       1.17856921      -0.00793424      -0.00482604      -0.00724866
O       12.64150360      12.99380989       6.71140957      -0.00992423      -0.02393439       0.00915796
O       12.45375501      13.72950421       4.60836740       0.03004017       0.01171774       0.01608470
C       13.49565082      11.59458510       5.02906455       0.00502166      -0.00514835       0.00155133
C       12.82287448      12.87728262       5.38893067       0.01152116      -0.00554833       0.01135695
H       13.83402279      11.61023984       3.99686515       0.00824944       0.00094437       0.00252970
H       14.31017781      11.37112335       5.71830626       0.00318162      -0.01364304       0.00179577
H       12.74089509      10.80813391       5.13147208       0.00166771      -0.00296900      -0.00490117
H       11.99572069      13.70485861       6.96306355      -0.00103658      -0.01665452       0.00985937
O        7.59814685       7.07844835      13.52003767       0.00209022       0.00269213      -0.00422698
O        7.80490656       9.30975227      13.34651432      -0.00844002       0.00065196       0.00322419
C        5.95626517       8.21544833      12.26731912      -0.00180817      -0.00129853       0.00001961
C        7.19877898       8.29515424      13.09645312       0.00225753       0.00578558       0.00235200
H        6.23053799       7.85827806      11.27153471       0.00011308       0.00343544      -0.00082220
H        5.25147085       7.49383046      12.67651381       0.00304596      -0.00521268      -0.00131532
H        5.51971378       9.20470445      12.16915935      -0.00632187      -0.00260222       0.00347426
H        8.47495424       7.14245343      13.94796262       0.00298342       0.00457588      -0.00052388
O        8.16361657       5.76303153       7.79521785       0.00358331      -0.00050968       0.00565532
O       10.17949931       4.96459922       8.36207933       0.00291711      -0.00186049       0.00352469
C        8.20771197       3.78756079       9.08253020       0.00363916      -0.00383073       0.00042585
C        8.97336593       4.86375482       8.38631283       0.00470442      -0.00155856       0.00317352
H        8.03360494       4.09666915      10.11683453       0.00305393      -0.00600294       0.00089341
H        7.24055309       3.62038554       8.61374266       0.00411397      -0.00314881      -0.00063086
H        8.80255267       2.87795303       9.09469145       0.00416559      -0.00362486      -0.00148209
H        8.72045519       6.45552284       7.40464665       0.00394827       0.00040409       0.00683142
O        3.08636755       3.32288386      10.18854619       0.00247476      -0.00736624      -0.00246882
O        4.47306275       3.09984443       8.44638652      -0.00229459      -0.00725657       0.00090945
C        4.56459309       5.11965142       9.76724531       0.00175956      -0.00832987      -0.00630593
C        4.06572549       3.77260478       9.36720836       0.00325808      -0.01575553      -0.01130366
H        4.97968872       5.62321756       8.89925014       0.02423022      -0.01980150      -0.00264457
H        3.77595924       5.70466539      10.23391048      -0.00649288      -0.00012133      -0.03099148
H        5.34791080       4.98884025      10.51884642      -0.01780312      -0.00631873       0.01431468
H        2.83531318       2.44869188       9.85700247       0.00150228      -0.00970763      -0.00186113
O        0.48154661       3.19203307       4.68550262      -0.00479122       0.00616032      -0.00661695
O       -0.35407861       5.11055089       5.48675539      -0.00955716       0.00380552      -0.00750387
C        0.49961727       3.48167647       7.03453536      -0.02322068      -0.00019059      -0.00604683
C        0.16118826       4.03155423       5.68767385      -0.01228820       0.00434244      -0.00818272
H        1.28763594       2.73341727       6.96919913      -0.01872446       0.00409016      -0.00145853
H        0.77934071       4.28789627       7.71026027      -0.03411815      -0.00109765      -0.00049649
H       -0.39215769       3.01249364       7.45606701      -0.02519742      -0.00699797      -0.01765640
H        0.36233932       3.67688759       3.84350459       0.00233600       0.00787485      -0.00769573
O       11.76017650      12.32157253       9.23106428      -0.01629370      -0.01023854       0.01596928
O       10.85890965      14.13132295       8.24569359       0.00401156      -0.00371212       0.00903314
C        9.99482757      13.37350491      10.35993323       0.00229621       0.02068312       0.01712346
C       10.89654981      13.33938517       9.17739825      -0.00313161       0.00089705       0.01334208
H        9.41608659      12.44733235      10.37564384      -0.00529765       0.02564606       0.02957576
H       10.58232105      13.39001907      11.27887587       0.00753611       0.02509382       0.01381883
H        9.33789955      14.23510579      10.31523289       0.01013377       0.02650133       0.01133185
H       12.28600656      12.31025988       8.41033940      -0.01810431      -0.02054805       0.01510996
O        5.44170753       8.93139452       4.90095718      -0.00335053      -0.00705010       0.00429787
O        7.44482020       9.08524472       5.91280706      -0.00276923       0.00028813       0.00746131
C        6.78979402       7.00634986       4.90061400       0.00262658      -0.00311571       0.00507703
C        6.62404702       8.44360582       5.30003095      -0.00409925      -0.00609219       0.00337344
H        6.47234584       6.38021453       5.73682544       0.00022229      -0.00452337       0.00335163
H        6.16796639       6.75788832       4.04190783       0.00679420      -0.00419750       0.00217259
H        7.83879458       6.80949806       4.69266508       0.00398558      -0.00119308       0.00901900
H        5.30902218       9.84642585       5.21323981      -0.00623421      -0.00795755       0.00368658
O        4.05685249       5.62977928       6.38963884      -0.00376427       0.00281775       0.00722721
O        2.65235653       5.59078243       4.65306226       0.00142381       0.00565836       0.00390378
C        4.17408476       3.75407963       4.99006032      -0.00244603       0.00392872       0.00395585
C        3.54755670       5.07268758       5.30878984      -0.00373545       0.00418046       0.00243694
H        5.22631701       3.88914692       4.73533243      -0.00443840       0.00521969      -0.00464265
H        4.14674668       3.12264736       5.87910384       0.00541210       0.00612389       0.00564042
H        3.66482560       3.28220573       4.15441286      -0.00760445       0.00096873       0.00844626
H        3.64091855       6.50958778       6.60551432      -0.00309545       0.00187781       0.00612835
O        2.85087063      12.65549285       4.08576775       0.00804359       0.00012907       0.00361699
O        3.96485782      11.23280719       5.40177840       0.00409397      -0.00275832       0.00329709
C        3.55163432      13.47169436       6.18619328       0.01263395      -0.00112724       0.00262976
C        3.50738003      12.33818994       5.21301607       0.00773451      -0.00194943       0.00321106
H        3.90614095      14.37822620       5.69634090       0.01802594      -0.00364812       0.00206503
H        2.53781042      13.66898221       6.54491269       0.01344529       0.00488359       0.00160819
H        4.17956002      13.21784638       7.03258606       0.01046032      -0.00403295       0.00338021
H        2.83283319      11.84406373       3.50285430       0.00748666       0.00047132       0.00295728
O       10.06547596       7.72531001       4.43368145       0.00169231      -0.00097007      -0.00282609
O       10.88569441       9.75800018       4.90305308       0.00090435      -0.00128126      -0.00344929
C       10.51790335       8.21121226       6.70027125      -0.00082994       0.00067967      -0.00283170
C       10.52574582       8.66024368       5.27121317       0.00140148       0.00072235      -0.00375426
H        9.52762987       8.45418861       7.09656512      -0.00365356      -0.00420311      -0.00666512
H       10.70772774       7.14181610       6.78810481       0.00439131       0.00163575      -0.00192975
H       11.25057108       8.76661925       7.27910929      -0.00569504       0.00499439      -0.00092821
H       10.04491180       8.10696875       3.51698489       0.00138804      -0.00133190      -0.00323252
O       12.12603035       6.72110500       9.37847099      -0.00119507       0.00214559       0.00340188
O       14.09409986       5.68456645       9.66870699      -0.00184697      -0.00272405      -0.00066136
C       13.74299030       7.86500849      10.63863649       0.00205775      -0.00256079       0.00315523
C       13.37510009       6.63683752       9.87131026      -0.00201669       0.00042725       0.00192977
H       13.65859829       8.74283271       9.99540884       0.00196670      -0.00114200       0.00508337
H       13.03814777       7.99127718      11.45977864       0.00419429      -0.00279858       0.00506015
H       14.75514588       7.77522007      11.01899289       0.00280690      -0.00463326       0.00076167
H       11.87409423       5.88710863       8.94602405      -0.00375789       0.00263369       0.00308715
O        1.45499851       4.50242247       2.54631895       0.00384599       0.00768236      -0.00069809
O        2.06467182       6.31219871       1.38308519       0.00586510       0.00363171      -0.00822422
C        0.79267974       4.62355342       0.25830110       0.00146723      -0.00136358       0.00063968
C        1.50039937       5.24564576       1.41339802       0.00342417       0.00133151      -0.00196326
H        0.62101144       3.55869175       0.39870004       0.00355588      -0.00101526       0.00484601
H       -0.17191456       5.12288323       0.13863947       0.00040501      -0.00315630       0.00237978
H        1.35183044       4.81884635      -0.65552504      -0.00153916      -0.00335684      -0.00152341
H        1.95694249       4.98163967       3.26936788       0.00420249       0.00963917      -0.00043392
O        8.67239502       3.21036966       5.86111739       0.00544566      -0.00210637       0.00074661
O        7.24399641       2.53695985       4.27275713      -0.00189996       0.00525503       0.00933915
C        7.22554457       1.42215166       6.40882988       0.00326583      -0.00039577       0.00224954
C        7.68937358       2.41123970       5.39097189      -0.00071135       0.00258865      -0.00238603
H        8.03690047       1.13524537       7.07542928       0.00359903       0.00020378       0.00133045
H        6.44164212       1.89386913       7.00970096       0.00201574      -0.00248943       0.00221281
H        6.81095739       0.55425647       5.90217669       0.00445935      -0.00022402       0.00058676
H        8.88372277       3.84620232       5.16127898       0.00416392      -0.00129628       0.00039911
O        1.93848764       9.70160227       7.72121997      -0.00116351       0.00504541       0.00200012
O        3.29765258       7.96122247       7.40117523      -0.00329956       0.00183238       0.00573722
C        1.02222891       7.74151652       6.75752806      -0.00369763       0.00637487       0.00174361
C        2.17595659       8.48704104       7.32102411      -0.00424525       0.00481351       0.00323694
H        0.76650204       6.92651340       7.43770423      -0.00380209       0.00430101      -0.00073639
H        0.15538986       8.37759978       6.60683158      -0.00357352       0.00733800       0.00388018
H        1.32594944       7.27265227       5.82255762      -0.00452937       0.00906287      -0.00001988
H        2.79276066      10.16252275       8.06736176      -0.00063533       0.00347000       0.00269885
O        7.76761554      -0.30431936       2.17339439       0.00583386       0.00192744      -0.00686114
O        6.67956046      -0.89885773       4.05097345       0.00518924       0.00386703      -0.00407398
C        5.59345702       0.53466303       2.45569404       0.00802708       0.00810444      -0.00555193
C        6.71939899      -0.28526160       3.00718329       0.00550719       0.00658107      -0.00845844
H        5.95922250       1.34020082       1.82563567       0.01059315       0.01356086       0.00242706
H        4.97282450      -0.12628609       1.84569246       0.01140732       0.01303443      -0.01460839
H        4.99222514       0.92699489       3.27009495       0.00341330       0.00210395      -0.00576669
H        8.42258558      -0.96266764       2.46090748       0.00376518       0.00075930      -0.00847101
O       13.44799947       7.41719203       3.85373343       0.00090191      -0.00941902      -0.00333261
O       12.15499381       6.54918385       2.26283821      -0.00246865      -0.01014930      -0.00089332
C       13.06089867       8.76231371       1.95605943       0.00157294      -0.01131546      -0.00443628
C       12.83020057       7.47799123       2.67321147       0.00058103      -0.00902992      -0.00152828
H       12.71017129       9.59585891       2.56471745       0.00418599      -0.00949098      -0.00510034
H       14.12945226       8.89343183       1.78441645       0.00195333      -0.01501202      -0.00550397
H       12.52997133       8.76921799       1.01066637       0.00061715      -0.01160258      -0.00391114
H       13.27850468       6.54463817       4.27143842      -0.00014162      -0.00904137      -0.00115092
O        3.94463303       3.43103329       0.42411809      -0.00672817      -0.00750181      -0.01328480
O        4.41821756       5.32699468      -0.66706727       0.00224327       0.01792717      -0.04218853
C        5.27056284       5.02533806       1.56673656       0.00318855      -0.00379875      -0.01099253
C        4.53998203       4.65070511       0.32037068       0.01414755      -0.02434808       0.03388411
H        4.53715393       5.44312337       2.26314635       0.00736456      -0.00443790      -0.00561838
H        5.74218157       4.16099171       2.03033172       0.00679073      -0.00882784      -0.00644089
H        6.01004627       5.78380690       1.32691514       0.00827472      -0.00628525      -0.00737140
H        3.47421589       3.29675328      -0.41266428       0.00401181      -0.00203320       0.00338739
O       12.15813984       1.64044544       1.28874464      -0.00669059      -0.00459760       0.00542945
O       10.08093457       1.57505834       0.48655144      -0.00023049      -0.00506248      -0.00720209
C       10.44801168       2.36178761       2.73964354      -0.01487641       0.01707807      -0.01367331
C       10.83472371       1.83694288       1.39822754      -0.00751182       0.00043322      -0.00678086
H       10.59587115       1.55897118       3.46720783      -0.00496145       0.03093077      -0.00004412
H       11.10456902       3.18067573       3.03551593      -0.02613224       0.03146219      -0.02782271
H        9.40766117       2.67122616       2.74303876      -0.01918364       0.00392628      -0.02088452
H       12.34862805       1.05059606       0.51044027      -0.00491872      -0.00802180       0.00710508
O       10.24187047       6.20533378      14.15701074      -0.00002196      -0.00941464       0.00072300
O       11.92599050       6.10681643      12.68006902       0.00012171      -0.00567374      -0.00122035
C        9.93072722       4.85142085      12.24241387      -0.00573307       0.00266230      -0.00637382
C       10.80600726       5.78710630      13.01171604      -0.00375235      -0.00483567      -0.00134204
H       10.09063487       3.84510311      12.64049599      -0.01415903       0.00070101      -0.00793153
H        8.87345337       5.06578014      12.37949727      -0.00466406       0.01016970      -0.00851411
H       10.22103624       4.85779798      11.19507364      -0.00296775       0.00335972      -0.00569910
H       10.95438284       6.59030351      14.73480241       0.00101820      -0.01167144       0.00121360
O        2.61638199       8.67268208       3.49922307       0.00243884       0.00268269      -0.00186417
O        2.80156626      10.63413941       2.43423181       0.00682004       0.00226176      -0.00050259
C        4.18256283       8.79099159       1.75762420       0.00184518      -0.00042439      -0.00244966
C        3.15300526       9.47208752       2.58643901       0.00320846       0.00272286      -0.00144349
H        4.89105640       8.28290152       2.40971993       0.00153424      -0.00110111      -0.00269996
H        3.68979324       8.02837978       1.15131713      -0.00001268      -0.00019282      -0.00105305
H        4.69145214       9.51310027       1.12742549       0.00224888      -0.00161743      -0.00340158
H        1.89238790       9.13928087       3.94279210       0.00511873       0.00560164       0.00061969
