196
Lattice="14.226226292605054 0.0 0.0 0.0 14.226226292605054 0.0 0.0 0.0 14.226226292605054" Properties=species:S:1:pos:R:3:forces:R:3 energy=-400037.90625 stress="-0.000542140391189605 0.00016635456267977133 0.00015949563385220245 0.00016635456267977133 0.00014417301281355321 0.00010972701420541853 0.00015949563385220245 0.00010972701420541853 -0.0021106379572302103" pbc="T T T"
Sm      11.35229307      13.73219237       1.81312628      -0.01001750      -0.00149071      -0.00691568
O        0.86653688      14.16503955       3.09263579      -0.01741004       0.00256830       0.00248885
O       -0.63863427      14.28439999       1.46866412      -0.00954019      -0.03059039      -0.00475726
O       -1.27213878      13.56074838       3.47434339      -0.02388541       0.03331285       0.00847863
C       -0.38230969      14.00029414       2.66801847      -0.01445711       0.00189750       0.00458597
H        0.91876709      13.85093093       4.00486147      -0.02675262       0.03594878       0.01404822
O        4.10245643       9.04287200      13.71131098       0.00314665      -0.01317613       0.00983655
O        6.01951584       8.15624258      14.44859276       0.00969732      -0.00480127      -0.01209795
O        5.71339304      10.39689418      14.52388126      -0.00770849      -0.04779649      -0.00736713
C        5.39805292       9.22031800      14.28109716       0.01732457       0.04162131       0.00785601
H        3.80050026       9.94197444      13.53941671      -0.00214800      -0.00425367       0.01757584
O       10.82967856      13.23826759      12.14451679       0.00229245      -0.01642418      -0.00963342
O       10.54316322      14.41130101      14.00349590       0.00421901      -0.00130406      -0.01776281
O       11.63501894      12.47653179      14.10467173      -0.02718224      -0.01589707       0.00132998
C       11.01207948      13.36868417      13.45776561      -0.00839350      -0.00929109      -0.00936460
H       11.23377996      12.40237457      11.87875406      -0.00946099      -0.02563053       0.00086873
C       10.35661410       2.03642273       2.84783854      -0.00367880      -0.00577769      -0.00701663
C       11.47126799       2.35884318       2.05591920      -0.00462835      -0.00597392      -0.00513873
C       10.41164518       2.31928884       4.22060773      -0.00361611      -0.00897901      -0.00537241
C        9.09488034       1.50266194       2.21690759      -0.00684416       0.00093595      -0.00754374
C       12.59351458       2.96742348       2.61974944       0.00103046      -0.01411827      -0.00420949
C       11.52681803       2.93551040       4.77412386       0.00068896      -0.01687112      -0.00305220
C       12.61638222       3.26839302       3.97430717       0.00247918      -0.02066064      -0.00164185
H       11.42791572       2.20573859       0.97860406      -0.00247359      -0.00569201      -0.00625069
H        9.54929786       2.10934285       4.84452205      -0.00173625      -0.00904937      -0.00580781
H        8.21835018       1.81826633       2.78425148      -0.00356740      -0.01209995       0.00297910
H        8.99221896       1.84301445       1.18720080      -0.01517779       0.01929076      -0.00074634
H        9.01804409       0.40143083       2.18730882      -0.00507334       0.00216566      -0.02847180
H       13.43530106       3.22670672       1.99041180       0.00181589      -0.01629990      -0.00286335
H       11.53663489       3.18093416       5.82911997       0.00232003      -0.02114480      -0.00343621
H       13.47273206       3.77418057       4.40183697       0.00307087      -0.02260998      -0.00113428
C        3.91777330       2.91009931      13.83509347      -0.00138345      -0.00064592       0.00163107
C        5.09005949       3.62222383      14.10562686      -0.00081673      -0.00028277       0.00153654
C        2.75655414       3.62846579      13.56115500      -0.00082716      -0.00084110       0.00311967
C        3.93092231       1.41297011      13.78227285      -0.00078947      -0.00029552      -0.00038984
C        5.11132742       5.00878979      14.05716272      -0.00231330      -0.00037044       0.00277669
C        2.77343513       5.01718900      13.51763177      -0.00310592      -0.00073541       0.00392200
C        3.95359543       5.71165424      13.74458826      -0.00179094      -0.00093135       0.00463684
H        5.99775369       3.07190569      14.33677823      -0.00099837       0.00000620       0.00070981
H        1.83761536       3.08973866      13.35557531      -0.00115660      -0.00099336       0.00315193
H        2.92538318       1.00720693      13.68017679      -0.00187486      -0.00102234       0.01721853
H        4.51426717       1.06241902      12.92758793      -0.01669757       0.00180196      -0.01131114
H        4.38672667       0.97552868      14.67064076       0.01572927      -0.00106955      -0.01003945
H        6.01362600       5.57491968      14.24961489      -0.00208591       0.00026436       0.00283523
H        1.86190358       5.55857778      13.28920038      -0.00247626      -0.00143872       0.00506533
H        4.00546981       6.79086666      13.67611544      -0.00372043      -0.00070390       0.00588540
C        6.73902197       5.64813625       3.25328829       0.00458908      -0.00358459      -0.00970718
C        6.35391965       4.58479135       4.07184471       0.00507290      -0.00239018      -0.00770349
C        5.98633983       6.82245548       3.28525498       0.00566348      -0.00317475      -0.01083311
C        7.92516219       5.51995835       2.34402416       0.00319865      -0.00633388      -0.01093489
C        5.24746523       4.68806808       4.90185148       0.00577351      -0.00030095      -0.00754207
C        4.89090148       6.93446398       4.13399669       0.00566273      -0.00143522      -0.01060736
C        4.52052361       5.87095655       4.94593928       0.00566794      -0.00069966      -0.00928187
H        6.93125861       3.66557465       4.05604422       0.00486581      -0.00200574      -0.00705241
H        6.24039843       7.63464021       2.61241815       0.00515992      -0.00381163      -0.01156639
H        8.19534611       6.48782088       1.92535178      -0.00751344      -0.00929186      -0.02356144
H        8.78734827       5.10522563       2.87248516       0.00890942       0.01061226      -0.00776985
H        7.70602957       4.85318973       1.50630415       0.00760861      -0.02257857       0.00122130
H        4.95369229       3.84741057       5.51885817       0.00582197       0.00045598      -0.00638960
H        4.31379313       7.85122164       4.14994749       0.00566673      -0.00174433      -0.01146272
H        3.65562142       5.95581318       5.59300902       0.00549454       0.00018012      -0.00938321
C       12.03154147       3.28734429      11.19315497       0.00384026       0.00136703       0.00692884
C       10.69602981       3.52040549      11.52247636       0.00454041      -0.00153105       0.01127676
C       12.91894645       4.36490186      11.22197672       0.00112069       0.00296770       0.00426662
C       12.50764978       1.91234471      10.82514035       0.00486811       0.00205794       0.00705195
C       10.25431623       4.79467901      11.85965388       0.00366679      -0.00228269       0.01332437
C       12.48018738       5.64098430      11.55430358       0.00030963       0.00228453       0.00593844
C       11.14379407       5.86249587      11.86942885       0.00096538      -0.00038919       0.01108097
H        9.99532323       2.69312698      11.50234151       0.00544304      -0.00211401       0.01314575
H       13.96329911       4.19719634      10.98220158       0.00047730       0.00485722       0.00180415
H       12.99354708       1.42425631      11.67450040       0.00223383       0.00219536       0.00833139
H       11.67886159       1.27656561      10.51690721       0.00627996       0.00182766       0.00448943
H       13.23750437       1.95125106      10.01491039       0.00716107       0.00329815       0.00968789
H        9.20966384       4.96057336      12.09219091       0.00361083      -0.00558858       0.01511875
H       13.18283467       6.46597897      11.56836774      -0.00130772       0.00366242       0.00389885
H       10.79704587       6.85842874      12.11631401      -0.00018733      -0.00089622       0.01210086
C       10.29152368       7.79778955       6.39882755       0.00637398       0.00301409      -0.00363152
C       11.04418668       7.49440170       7.53475946       0.00498819       0.00047328      -0.00340681
C       10.08402368       9.14129627       6.08644941       0.00845788       0.00282824      -0.00245434
C        9.68271727       6.71099101       5.56385699       0.00629100       0.00424638      -0.00536130
C       11.55133465       8.49949134       8.34850835       0.00588492      -0.00048337      -0.00202128
C       10.59092258      10.15132459       6.89475289       0.00929510       0.00197256      -0.00119413
C       11.32237799       9.83420206       8.03281156       0.00791918      -0.00019149      -0.00065766
H       11.22617152       6.45623116       7.78994797       0.00320272       0.00016320      -0.00481670
H        9.51207089       9.39556236       5.20164697       0.00957520       0.00431575      -0.00290558
H        9.38842306       7.08203802       4.58198776       0.00551727       0.00601406      -0.00436018
H       10.37372551       5.87645281       5.42733737       0.00652996       0.00484610      -0.00768403
H        8.78409853       6.31242935       6.04455992       0.00699121       0.00299906      -0.00550352
H       12.12175262       8.23826814       9.23167520       0.00501908      -0.00244376      -0.00218959
H       10.40979025      11.18803109       6.63633518       0.01108141       0.00197105      -0.00080613
H       11.71494671      10.62021369       8.66559660       0.00719145      -0.00128010       0.00103563
C        1.91729878       6.45651705       2.87477608      -0.01631268      -0.00198565       0.01045573
C        2.29346031       7.46069421       1.98080849      -0.01528122      -0.00383806       0.00950870
C        1.15372311       6.81936178       3.98361111      -0.00874843       0.00071247       0.01468861
C        2.34524309       5.03679187       2.65894510      -0.02501142      -0.00422123       0.00698693
C        1.90782714       8.77756582       2.18142138      -0.00574272      -0.00121036       0.01325033
C        0.78343320       8.14154991       4.20181070      -0.00006269       0.00326103       0.01739325
C        1.15777663       9.12757206       3.29754516       0.00202414       0.00140014       0.01754672
H        2.92367452       7.22499457       1.13605912      -0.02196881      -0.00675689       0.00562705
H        0.86059621       6.05582764       4.69606278      -0.01017889       0.00216826       0.01497668
H        2.24298297       4.45135815       3.57246721      -0.02322080      -0.00448464       0.00694339
H        1.75338074       4.55900656       1.87617731      -0.03128038      -0.00034351       0.00952539
H        3.38551571       4.98622915       2.33530301      -0.02699217      -0.00898486       0.00170566
H        2.21878641       9.52376098       1.46155546      -0.00462147      -0.00206712       0.01347116
H        0.19307858       8.39621313       5.07371691       0.00502422       0.00526067       0.02019413
H        0.86431783      10.15804231       3.45834855       0.00982960       0.00332578       0.02017207
C        7.02155115      10.74227627      11.64260233       0.00072446       0.00196604       0.00362937
C        7.18478208      12.10940037      11.85184991       0.00073794       0.00211120       0.00080359
C        5.77362754      10.28343717      11.22004486       0.00068349       0.00118116       0.00633777
C        8.13407537       9.77332551      11.91189603       0.00202194       0.00273204       0.00169823
C        6.12820097      12.99292604      11.66914901       0.00024476       0.00171083       0.00065034
C        4.71322444      11.15907594      11.04465014       0.00016728       0.00022770       0.00563860
C        4.88377518      12.52000065      11.27458126       0.00042042       0.00055471       0.00294631
H        8.14493133      12.48551452      12.18437319       0.00084049       0.00320690      -0.00095566
H        5.62145484       9.22109394      11.06659889       0.00037320       0.00052008       0.00941691
H        8.44799450       9.25673898      11.00124648       0.01445499       0.01857006      -0.00239709
H        9.00516481      10.27920278      12.32856758      -0.00467405       0.00033344       0.01754947
H        7.80408441       9.01957988      12.63096840      -0.00186105      -0.00883177      -0.01351213
H        6.27968189      14.05098231      11.84817333       0.00015175       0.00215475      -0.00102336
H        3.75248375      10.77921295      10.72007183      -0.00036800      -0.00047276       0.00784973
H        4.05310207      13.20373662      11.14289531      -0.00044055       0.00040507       0.00262508
C        4.32240538      12.46665089       2.49085532       0.00506882       0.00190404      -0.00527263
C        5.02262551      13.58086122       2.95143432      -0.00193548       0.00448021      -0.00247742
C        4.65764434      11.21636651       3.01005156       0.01041842       0.00286913      -0.00571117
C        3.28891236      12.57398437       1.41310573       0.00614202      -0.00090694      -0.00604206
C        6.04692054      13.44511596       3.88506088      -0.00453936       0.00962003       0.00158332
C        5.67160258      11.07749948       3.94144934       0.00844023       0.00767457      -0.00261000
C        6.37785995      12.19101677       4.38005206      -0.00013624       0.01076671       0.00123747
H        4.76603840      14.56595926       2.57732778      -0.00664518       0.00378998      -0.00146738
H        4.12923124      10.33900801       2.66125418       0.01771811       0.00064160      -0.00922114
H        2.47286088      11.86851205       1.57915296       0.01070824      -0.00669925      -0.00936226
H        2.86384355      13.57265637       1.34970852       0.00045574      -0.00359181      -0.00296835
H        3.75184124      12.32247491       0.45432999       0.00784728       0.00442705      -0.00614735
H        6.57817231      14.32415170       4.23306914      -0.01065755       0.01291902       0.00357776
H        5.91330891      10.09363729       4.31760380       0.01264559       0.00836012      -0.00278840
H        7.17409533      12.07812343       5.10500704      -0.00208154       0.01456587       0.00485210
C        5.60638843       9.56450902       7.04893332       0.00088197       0.00551140       0.00085943
C        4.26190162       9.19792697       6.98311071       0.00170498       0.00364164      -0.00392317
C        5.91721658      10.85104928       7.49114543      -0.00227544       0.00476767       0.00436302
C        6.69477831       8.63826114       6.60262235       0.00315890       0.00741181       0.00269610
C        3.25816624      10.10164109       7.31329985      -0.00059062       0.00119092      -0.00430521
C        4.92053862      11.75959368       7.80990626      -0.00456232       0.00240165       0.00448469
C        3.58422163      11.39057853       7.71374073      -0.00374542       0.00047679       0.00019927
H        4.00171025       8.19802495       6.65631580       0.00408539       0.00419667      -0.00727565
H        6.95902401      11.13997099       7.57684494      -0.00311881       0.00656154       0.00783690
H        7.53176548       8.63801418       7.30001685       0.00054909       0.00618076       0.00575325
H        6.33797070       7.61775315       6.48951488       0.00409596       0.00738452      -0.00075519
H        7.09091927       8.95147785       5.63313072       0.00659400       0.00984374       0.00504923
H        2.21999301       9.79844289       7.24830640       0.00019114      -0.00015121      -0.00800816
H        5.18632358      12.75177921       8.15083280      -0.00715702       0.00171952       0.00789300
H        2.80404299      12.09879976       7.96389156      -0.00549988      -0.00157543       0.00015486
C       10.78602835       9.79946332       2.58701393       0.00020792       0.01358630      -0.00010458
C        9.80061747       9.16763163       1.82665752       0.00373192       0.01710322      -0.00754666
C       10.58310223      11.14054296       2.93673364      -0.00426087       0.01019429       0.01036170
C       11.98720650       9.04430678       3.05864082       0.00184578       0.01341100      -0.00417265
C        8.65821539       9.83438107       1.40097901       0.00283360       0.01645239      -0.00420962
C        9.42522598      11.81183725       2.51999186      -0.00590803       0.00924373       0.01492597
C        8.46651847      11.17101082       1.73614743      -0.00252652       0.01399677       0.00803722
H        9.92532082       8.11605691       1.58895171       0.00746276       0.01950856      -0.01666948
H       11.29024241      11.61107422       3.62271857      -0.00591594       0.00763029       0.01363531
H       12.44136408       9.51918769       3.92716213       0.00242306       0.01121116      -0.00352897
H       11.72542598       8.02189271       3.33625034       0.00229833       0.01289412      -0.00620825
H       12.75288559       8.97711397       2.28284156       0.00045936       0.01617862      -0.00568321
H        7.87320028       9.31389634       0.85945451       0.00621700       0.02078964      -0.01125485
H        9.19332090      12.80121197       2.92983792      -0.00860436       0.00592122       0.02300888
H        7.54411274      11.64977158       1.43290523      -0.00389802       0.01221693       0.01111549
C        8.18686511       4.63047767       8.40917669       0.00931914      -0.00004798       0.00047436
C        6.91261496       4.33921649       7.92075074       0.00951959       0.00320467      -0.00168729
C        8.36825927       5.81397639       9.12218611       0.01002195      -0.00247014       0.00452450
C        9.32873266       3.69268936       8.14763790       0.00855386      -0.00053483      -0.00078847
C        5.85353600       5.20744642       8.13012613       0.01035027       0.00343323       0.00033766
C        7.30637352       6.68625115       9.33404268       0.01079300      -0.00237031       0.00672209
C        6.04876984       6.38828034       8.83384521       0.01083204       0.00068432       0.00500437
H        6.75086165       3.41625314       7.37414085       0.00913181       0.00540670      -0.00524591
H        9.34928022       6.05679069       9.50907986       0.00988941      -0.00511043       0.00616618
H       10.25735869       4.06510954       8.57827940       0.00818327      -0.00331478       0.00206977
H        9.13818824       2.70509984       8.57453531       0.00639695      -0.00167394      -0.00440584
H        9.47236648       3.55717093       7.07280452       0.01028400       0.00282565      -0.00085461
H        4.86639386       4.95344885       7.76802002       0.01057914       0.00616784      -0.00221073
H        7.46396597       7.60639150       9.88215128       0.01137374      -0.00457400       0.01036348
H        5.22398377       7.07276388       8.98850122       0.01137660       0.00083600       0.00678295
C        2.88851427       5.10683738      10.15520800      -0.00309870      -0.00848271      -0.00780032
C        4.14065909       4.83348445      10.69908685      -0.00535540      -0.01288602      -0.00540292
C        2.18499157       4.05874728       9.56084693      -0.00431231      -0.00552239      -0.01179478
C        2.32294638       6.49732456      10.20790765       0.00022464      -0.00723720      -0.00727708
C        4.67946285       3.55658164      10.65525801      -0.00844072      -0.01370136      -0.00721098
C        2.71491273       2.77355687       9.52199737      -0.00742042      -0.00637323      -0.01359043
C        3.96768107       2.51908496      10.06933895      -0.00917065      -0.01080325      -0.01133281
H        4.70054195       5.63168665      11.16598775      -0.00461966      -0.01531214      -0.00158744
H        1.20924773       4.25181234       9.12802014      -0.00293505      -0.00220663      -0.01338459
H        1.23771992       6.47919699      10.32246098      -0.00010431      -0.00451234      -0.01267845
H        2.74878824       7.06162643      11.03850179      -0.00210363      -0.01035981      -0.00394033
H        2.53916334       7.05350862       9.29043434       0.00652996      -0.00596838      -0.00479311
H        5.66108832       3.38061639      11.07598515      -0.01011020      -0.01745994      -0.00471279
H        2.14856348       1.97016006       9.06713820      -0.00818925      -0.00401616      -0.01678127
H        4.38674145       1.52064263      10.03678093      -0.01156755      -0.01155506      -0.01270428
