190
Lattice="14.041587246454473 0.0 0.0 0.0 14.041587246454473 0.0 0.0 0.0 14.041587246454473" Properties=species:S:1:pos:R:3:forces:R:3 energy=-416096.625 stress="-0.0018152286065742373 0.0007613388006575406 -0.00015723040996817872 0.0007613388006575406 -0.0014513707719743252 -0.00016695236263331026 -0.00015723040996817872 -0.00016695236263331026 -0.0005446955910883844" pbc="T T T"
Sm      13.81602330      13.87570841      -0.00919171       0.01731908       0.00423810       0.01134300
Cl       1.61424610      14.07472663       2.69590132       0.01473343       0.00025895       0.00528800
O        1.42502813      14.27062181       4.19383920       0.02249178       0.01968971       0.00229251
O        0.42082227      13.20089122       2.06306364      -0.00315249       0.00758296       0.04303094
Cl       7.74978691      12.78515130      13.20340154       0.03215027      -0.02442443      -0.02339280
O        7.02588735      13.96848354      12.61862316       0.00796598       0.03545153      -0.02658021
O        8.92806865      12.30072029      12.40065570      -0.02839589       0.00886771       0.03884548
Cl      11.94821733      13.56688635      11.91574483       0.04732218       0.01225066      -0.00320512
O       15.35916727      14.35605849      13.25848234       0.03200984      -0.00373307       0.03065133
O       12.70488188      12.36235044      12.79215312       0.03833786       0.01276231       0.00519314
O       11.71978703       9.67505304       8.94857328       0.00857699       0.00414842       0.00178050
C       12.80439792       8.97240640       9.53375995       0.00845870       0.00824791       0.00673807
C       12.17113581      10.67343476       8.05173115       0.00836933       0.00836623       0.00664648
C       12.27500465       8.01167934      10.56843210       0.00729465       0.00641543       0.00400093
C       11.00185886      11.52851089       7.63102114       0.00709492       0.00667650       0.00723536
H       13.36341492       8.43552155       8.75225936       0.01385647       0.01021188       0.00959596
H       13.49439036       9.68985626       9.99820293       0.00306642       0.01084742       0.01058668
H       12.93647162      11.28978457       8.54345083       0.00525627       0.00866535       0.01106063
H       12.64502212      10.19991578       7.17673251       0.01137869       0.01299897       0.00608897
H       13.10071739       7.45742693      11.01595139       0.00727537       0.01310033       0.01162744
H       11.75342460       8.55420981      11.35623743      -0.00235979       0.00378670      -0.00111383
H       11.58642175       7.29119098      10.12672811       0.01520441       0.00098507       0.00074120
H       11.32856954      12.28353766       6.91496007       0.00672062       0.01156406       0.01256596
H       10.23089825      10.92240184       7.15933748       0.00989591       0.00743380       0.00189240
H       10.56665450      12.02903736       8.49596443       0.00309003       0.00075734       0.00849554
O        3.22861118      10.36093842       5.71948940      -0.00927538      -0.00126995       0.00638144
C        2.09630894       9.52331254       5.83063454      -0.00992241      -0.00171477      -0.00279079
C        2.86766821      11.73293781       5.58691157      -0.00860456      -0.00112718       0.01297649
C        2.55266430       8.08440267       5.86014035      -0.00822325      -0.00073242      -0.01030425
C        4.10892214      12.54595645       5.31999667      -0.00781506      -0.00061068       0.01876639
H        1.53445566       9.77752904       6.74372439      -0.01309019      -0.00712776      -0.00349903
H        1.42315739       9.70068319       4.97881541      -0.00662294       0.00331603      -0.00392771
H        2.15716505      11.84947193       4.76207126      -0.00738981       0.00392026       0.01288766
H        2.36036385      12.06945014       6.50306955      -0.00918299      -0.00576366       0.01416945
H        1.69350420       7.41682813       5.94138862      -0.00735737      -0.00290326      -0.02388759
H        3.09543461       7.84538710       4.94436363       0.00064792       0.00807970      -0.00694816
H        3.19802446       7.89778549       6.71846750      -0.01487306      -0.00616340      -0.00683081
H        3.83294567      13.59602522       5.22524571      -0.00721085      -0.00039309       0.02291339
H        4.83594480      12.43517634       6.12669165      -0.00940457      -0.00469595       0.01938403
H        4.56123314      12.22929042       4.38283804      -0.00568514       0.00213362       0.01882288
O       13.01851922       2.20438912       3.33719918      -0.00317818      -0.01407161      -0.00358070
C       12.36595177       1.67854593       2.20753785      -0.01126084      -0.00711408      -0.00142241
C       12.65264536       1.52097065       4.54118271       0.00089358      -0.01221216      -0.00168997
C       12.86944301       2.40878219       0.97698727      -0.00478022      -0.01269808      -0.00210503
C       13.13164117       2.32751233       5.72235109       0.01475222      -0.01491487      -0.00583699
H       12.56675822       0.59416677       2.13437440      -0.02381348      -0.00881484      -0.00220741
H       11.27787256       1.79513987       2.30909335      -0.00956231       0.00620453       0.00040693
H       11.56278212       1.42036714       4.57000112       0.00014269      -0.00384981       0.00636828
H       13.11723202       0.53051675       4.53453281      -0.00497064      -0.01522225      -0.00409752
H       12.36824179       2.04903753       0.06717533      -0.00152899      -0.01107578      -0.00436192
H       12.66269243       3.47793544       1.05537777       0.00626336      -0.01129587      -0.00519176
H       13.95676951       2.29804253       0.87174941      -0.00529899      -0.01648751       0.00151614
H       12.92672127       1.78285245       6.64529282       0.01947140      -0.01486672      -0.00531235
H       14.20578545       2.49842440       5.65435940       0.01487778      -0.02043207      -0.01300080
H       12.61243177       3.28370188       5.78499860       0.02107258      -0.01205218      -0.00031661
O        9.62388587       2.80242944       4.01038021      -0.00786707      -0.00195522      -0.00481331
C        8.60191899       1.92468392       3.57500026      -0.01094427       0.00167662      -0.00159377
C        9.77994047       3.94601454       3.19047611      -0.00842458      -0.00003937      -0.00260854
C        8.60209736       0.71511076       4.47916017      -0.01195905       0.00140733      -0.00195697
C       10.98400508       4.70703334       3.68991015      -0.00372639      -0.00472215      -0.00764516
H        7.62966979       2.43793025       3.60073168      -0.00947425       0.00373757       0.00078721
H        8.78854309       1.63060842       2.53110455      -0.01726274       0.00341089      -0.00401405
H        9.91863769       3.63384076       2.14349824      -0.01492344       0.00188424      -0.00393230
H        8.86461604       4.55701497       3.22657222      -0.00609037       0.00265637       0.00353290
H        7.81355281       0.02333470       4.18702235      -0.01405853       0.00329557      -0.00039060
H        9.55870454       0.19458785       4.42196194      -0.01324955      -0.00045497      -0.00350768
H        8.43719858       1.01257547       5.51479754      -0.00951952       0.00111612      -0.00103880
H       11.15198748       5.60416365       3.09600730      -0.00362827      -0.00479309      -0.00753653
H       10.84076050       4.99169484       4.73264582       0.00208213      -0.00537987      -0.00672379
H       11.87302413       4.08118908       3.62859344      -0.00614713      -0.00773609      -0.01142761
O        3.98251256       3.43043662      12.12114249       0.00531194      -0.00162685      -0.00598836
C        5.04516748       3.23393327      13.02670424       0.00150830      -0.00108969      -0.00563288
C        3.35093126       2.20088200      11.77326030       0.00724107      -0.00063153      -0.01066932
C        5.54631967       4.59618569      13.43954098      -0.00150922      -0.00425965       0.00261895
C        2.17492955       2.49442800      10.87661116       0.00529012       0.00170334      -0.00551781
H        4.69281877       2.67004702      13.90463740       0.00281078      -0.00750646      -0.00921869
H        5.84209445       2.63183451      12.56437225       0.00498617       0.00172693      -0.00775510
H        4.07792508       1.54588006      11.27015498       0.00844115       0.00249025      -0.01653287
H        3.00675085       1.67932909      12.67263795       0.01265565      -0.00674236      -0.01296085
H        6.37653919       4.51655790      14.14304051      -0.00692980      -0.00921318       0.00747129
H        5.87659818       5.16188908      12.56775813       0.00007244      -0.00010330       0.00603426
H        4.73951375       5.15162093      13.91272403      -0.00746813      -0.00767284      -0.00210278
H        1.67239777       1.56114090      10.62499719       0.00795905       0.00269192      -0.00948541
H        1.45952479       3.13780974      11.39065727       0.00643748      -0.00019282       0.00015764
H        2.49339598       2.99297909       9.96039175      -0.00105252       0.00260200      -0.00669631
O        8.68111066       8.65559541       4.28818042      -0.00142494       0.00734130       0.00236504
C        9.47239770       7.63936483       3.70649410       0.00081366       0.00996068       0.00056034
C        8.87551855       8.73093786       5.68954348      -0.00142136       0.00566971       0.00221282
C        9.17831065       7.55255678       2.22725020       0.00178459       0.01437648       0.00036916
C        7.95574916       9.76846648       6.27978831      -0.00130635       0.00595501       0.00178732
H       10.53825246       7.85282638       3.88000428       0.00016069       0.01148862       0.00190493
H        9.25330296       6.68268274       4.19985367       0.00192697       0.00842381      -0.00223219
H        8.67522818       7.74875882       6.14160241      -0.00209011       0.00549260       0.00132252
H        9.92754602       8.97234246       5.90358542      -0.00155663       0.00516742       0.00264455
H        9.83691164       6.82428443       1.75310898       0.00286807       0.01696979      -0.00183068
H        8.14923630       7.24003598       2.05630082       0.00214317       0.01381990      -0.00112515
H        9.33076878       8.51838914       1.74599118       0.00048165       0.01613888       0.00386251
H        8.14951318       9.85680355       7.34858140      -0.00170168       0.00655474       0.00173981
H        8.11662910      10.74324367       5.81806141      -0.00069336       0.00560871       0.00122719
H        6.91209450       9.49224034       6.13848772      -0.00121623       0.00638885       0.00135439
O        9.83131394       4.48608449      11.36079962       0.00259322      -0.00444348      -0.00234762
C        8.73669704       5.21711217      11.87059916       0.00428133      -0.00457054       0.00380681
C        9.51899286       3.10918694      11.22033446       0.00533122      -0.00231782      -0.00335860
C        9.14408560       6.65781769      12.04914210       0.00411117      -0.00515288       0.00156417
C       10.74702545       2.38589518      10.73031648       0.00401103      -0.00241274      -0.00361162
H        7.87837034       5.13296009      11.18403182       0.00106922      -0.00708877       0.00851437
H        8.41792472       4.78313505      12.82938491       0.00985806      -0.00506179       0.00583410
H        9.18215442       2.70134868      12.18416022       0.00585978      -0.00296226      -0.00151753
H        8.68142569       2.99174667      10.51710182       0.00370640      -0.00500796      -0.00144133
H        8.33458791       7.22306415      12.50962020       0.00773776      -0.00422989       0.00605571
H       10.02304284       6.72793024      12.69014924       0.00851847      -0.00496417      -0.00425567
H        9.38334040       7.12187159      11.09280965      -0.00066011      -0.00665770      -0.00061107
H       10.51162201       1.33852948      10.53592227       0.00457861      -0.00257008      -0.00207360
H       11.11993011       2.84323899       9.81370738       0.00199666      -0.00260884      -0.00533165
H       11.54245732       2.42593620      11.47513147       0.00515424      -0.00163610      -0.00505884
O       10.86524911       5.04299511       7.25447274       0.00459045      -0.00445843      -0.00301330
C        9.46727317       5.01179423       7.47797716       0.00529826      -0.00486535      -0.00092119
C       11.35135059       6.35903030       7.06301348       0.00454110      -0.00374502       0.00072479
C        9.01724357       3.57281838       7.50623101       0.00490675      -0.00481844      -0.00858414
C       12.83488402       6.30002938       6.79735238       0.00505328      -0.00311611       0.00410591
H        9.22982178       5.52703085       8.42134352       0.00717036      -0.01077911       0.00262028
H        8.95227850       5.55143506       6.66680623       0.00401425      -0.00009105       0.00345087
H       10.83386245       6.81630553       6.20913881       0.00614628      -0.00232881       0.00062251
H       11.12933448       6.98257866       7.94023685       0.00271424      -0.00595728       0.00156128
H        7.94460031       3.51457064       7.69653588       0.00493062      -0.00543477      -0.00903861
H        9.23476206       3.09864861       6.54990353       0.00499244       0.00059108      -0.01104936
H        9.53366970       3.02704804       8.29310966       0.00490125      -0.00919721      -0.01178771
H       13.22056750       7.30686399       6.63103438       0.00483673      -0.00309516       0.00409900
H       13.36444790       5.85817066       7.64164524       0.00341719      -0.00200730       0.00558093
H       13.04192761       5.69975538       5.91075387       0.00743711      -0.00405926       0.00544922
O        4.32649382       8.19918340       2.48738853      -0.00719354      -0.01004779       0.00055197
C        5.68890771       8.44227326       2.79452838      -0.00768414      -0.00303704      -0.00188047
C        4.15241840       7.06407525       1.66916922      -0.00132281      -0.01192157       0.00171074
C        5.78516961       9.75190728       3.52750278      -0.01246674      -0.00254345      -0.00204992
C        2.70944860       6.99568628       1.23196615      -0.00024474      -0.01869889      -0.00126776
H        6.09264849       7.61278876       3.39535783      -0.00216551      -0.00079322      -0.00315750
H        6.26536914       8.47933035       1.85842114      -0.00926250      -0.00005498      -0.00239128
H        4.81586878       7.13992947       0.79602199       0.00074011      -0.00880399       0.00358519
H        4.44303444       6.15437415       2.21792606       0.00261742      -0.00922507       0.00398546
H        6.82995959      10.00024213       3.69574658      -0.01364665       0.00309617      -0.00198395
H        5.30683957      10.53443241       2.94271174      -0.01615822      -0.00480489      -0.00171968
H        5.26270340       9.70470131       4.48228202      -0.01200205      -0.00497920      -0.00225841
H        2.52437065       6.08835290       0.65685629       0.00362338      -0.01675667      -0.00576808
H        2.05027652       7.00475883       2.10041287      -0.00229526      -0.02629869      -0.00319412
H        2.46169283       7.85560509       0.61056830      -0.00484847      -0.01749964       0.00257224
O        6.35603820      10.71274563      11.06793055       0.00339329       0.00649607      -0.00143768
C        6.98183823       9.60941962      11.69328035       0.00366497       0.00297588      -0.00111824
C        7.10532684      11.21109974       9.96960952       0.00482781       0.00371328      -0.00042543
C        6.04734011       9.07932112      12.75417029       0.00087863       0.00499061      -0.00266814
C        6.28614417      12.27018894       9.27406878       0.00783435       0.00788653       0.00188032
H        7.19270737       8.83168083      10.94144185       0.00028494       0.00423691      -0.00239760
H        7.94336284       9.91672947      12.12367086       0.00203192       0.00164035      -0.00217184
H        8.05791418      11.61639279      10.32590741       0.00655401       0.00037634      -0.00013980
H        7.33075982      10.37832273       9.28643251       0.00159772       0.00590810      -0.00151220
H        6.51130159       8.25796755      13.30185550      -0.00234374      -0.00045122      -0.00713254
H        5.80125605       9.86731985      13.46562674       0.00744332       0.00296955       0.00229514
H        5.12039974       8.71552690      12.30856286      -0.00102155       0.01310532      -0.00156151
H        6.85822560      12.70948495       8.45579198       0.00666942       0.00339722      -0.00130174
H        5.36898253      11.84772892       8.86169941       0.00435120       0.01235051       0.00788695
H        6.02414061      13.05902225       9.97886835       0.01550142       0.01144643       0.00119066
O        3.98818935      11.98417608       1.88921182      -0.00386158       0.00178190      -0.00372452
C        3.18288252      11.09802056       1.12516648      -0.00939381       0.00509092      -0.00525837
C        5.09693403      12.47451468       1.16308324      -0.01480418       0.01185089      -0.00557953
C        2.12375857      10.51024942       2.02457805      -0.00121108      -0.00213933      -0.00227511
C        5.90521210      13.36614405       2.07604971      -0.01728719       0.01505885      -0.00789931
H        2.74177743      11.64822078       0.27963005      -0.01686883       0.01060694       0.00301909
H        3.81762017      10.29762898       0.71610012      -0.01016489       0.01150268      -0.01766564
H        5.71287934      11.62847650       0.82017282      -0.01134789       0.02169323      -0.01795021
H        4.76317589      13.01710021       0.26943279      -0.02730554       0.01732764      -0.00232255
H        1.49281932       9.82524195       1.45638215      -0.00151317      -0.00193964      -0.00186510
H        2.59399975       9.95217773       2.83253841       0.00683896      -0.00510556      -0.00933453
H        1.48552469      11.29231275       2.42833792       0.00058791      -0.00536561       0.00748039
H        6.75254277      13.79482048       1.54185286      -0.01947361       0.02121616      -0.00784624
H        5.28619822      14.17758968       2.45948384      -0.01829520       0.00987595      -0.00321765
H        6.28428225      12.79468097       2.92399584      -0.00977413       0.01343468      -0.01148796
O        4.32624539       7.56780489       8.80651658      -0.00435799      -0.00387099       0.00128826
C        4.50903132       8.97542407       8.87621113      -0.00666451      -0.00412935       0.00032976
C        5.44138170       6.91236983       8.24087048      -0.00349136      -0.00227314       0.00075629
C        3.27827256       9.59174844       9.49128852      -0.00601172      -0.00615376       0.00338978
C        5.13849656       5.43645408       8.16008375      -0.00000411      -0.00299209       0.00341497
H        5.39152831       9.20280317       9.48397959      -0.00529295      -0.00187175      -0.00217757
H        4.67915213       9.37704751       7.86636146      -0.01085032      -0.00382929      -0.00017899
H        5.64678829       7.32439714       7.23957317      -0.00571743      -0.00330377       0.00011307
H        6.33721631       7.09736052       8.85581744      -0.00362372       0.00076824      -0.00027135
H        3.39766159      10.67246467       9.56396249      -0.00801336      -0.00585178       0.00315419
H        2.39821110       9.37639939       8.88478882      -0.00684130      -0.00817601       0.00586733
H        3.11250188       9.19968111      10.49463430      -0.00299470      -0.00617699       0.00371929
H        5.98016200       4.90252158       7.71762952       0.00086825      -0.00137693       0.00338744
H        4.94278880       5.02737260       9.15155670       0.00225556      -0.00186218       0.00430447
H        4.25838551       5.26664468       7.53925992      -0.00020166      -0.00624480       0.00501630
