196
Lattice="14.06882426571862 0.0 0.0 0.0 14.06882426571862 0.0 0.0 0.0 14.06882426571862" Properties=species:S:1:pos:R:3:forces:R:3 energy=-485587.40625 stress="-0.0013229172909632325 0.0009148672688752413 -0.0006332756311167032 0.0009148672688752413 -0.0007771867676638067 0.0003219712962163612 -0.0006332756311167032 0.0003219712962163612 -3.85482344427146e-05" pbc="T T T"
Sm      16.04706594      13.11029813       2.09304111      -0.00517789      -0.00203711       0.00770670
O        0.00576335      13.78820926       5.56205330       0.01182497       0.00047539       0.00252563
O        1.36686264      12.16868953       3.86382239      -0.00156489      -0.00119460       0.00959372
O        2.67509390      13.62547359       5.75051283      -0.00035214      -0.00241102       0.00823951
O        1.62343054      14.62715190       3.46815141       0.00086911      -0.00085652       0.00908922
Mn       1.38387844      13.59331161       4.84791326      -0.01183209       0.00107037       0.01614189
O        9.92354106      11.22540500       7.31058767      -0.01204330       0.01786304       0.02331662
O       10.45693489      13.10290505       5.58345226      -0.00513744      -0.00192371       0.00569963
O        9.90349290      13.72895551       8.05322989      -0.01014495       0.02493525      -0.00349283
O        8.03448050      12.80100018       6.48113511      -0.00850606       0.01107393       0.00374949
Mn       9.58387410      12.71521023       6.86003469      -0.00773897       0.01366497       0.00605233
O        2.09393196      13.89340554      11.37439528      -0.04513860       0.00620842       0.01771438
O        1.88595897      13.39267467      13.97946923      -0.02036676       0.00589003       0.01286894
O        4.18075422      13.13898848      12.72550769      -0.03170335       0.01305866      -0.00933321
O        2.26971608      11.44312101      12.22639355      -0.03448263       0.00810826       0.00803754
Mn       2.61436275      12.95970685      12.52726151      -0.03803948       0.01487577      -0.00087714
O       12.30380283      10.07238228       9.43907421       0.00123984       0.00119364      -0.00338752
C       12.58979296       8.82051709      10.00846605       0.00203580       0.00393951       0.00159451
C       13.46183596      10.69151672       8.89598388       0.00100282       0.00078619      -0.00408313
C       11.31375315       8.24959414      10.57942218       0.00206631       0.00417247       0.00165632
C       13.06643044      11.94593511       8.16171484       0.00009692      -0.00254327      -0.00851706
H       13.00341680       8.14501901       9.24087667       0.00422183       0.00187597       0.00467789
H       13.35749405       8.91509065      10.79353638       0.00069571       0.00803021       0.00230819
H       14.17234986      10.90610707       9.70820028       0.00009796       0.00468016      -0.00428289
H       13.95679453       9.98517340       8.21005655       0.00254308      -0.00100911      -0.00116375
H       11.47134209       7.23208692      10.94061328       0.00273111       0.00522016       0.00428226
H       10.95287483       8.86588156      11.40398402       0.00039522       0.00578527      -0.00047794
H       10.54000949       8.23287133       9.81011165       0.00319219       0.00142716       0.00063261
H       13.94687147      12.43576174       7.74693438      -0.00126128      -0.00457776      -0.01180773
H       12.39147024      11.71414289       7.33997049      -0.00114095      -0.00587235      -0.00673136
H       12.55388128      12.64309270       8.82502214       0.00079797       0.00023271      -0.01089993
O        4.02732101       9.56017967       5.77675572      -0.00134665      -0.00511950      -0.00313296
C        2.83330747       8.91191777       5.38560717      -0.00165281      -0.00695938       0.00081713
C        3.79594458      10.94796281       6.01892829      -0.00203246      -0.00555214      -0.00287521
C        3.11395561       7.44405210       5.18240355      -0.00009841      -0.00660968       0.00120294
C        5.03835582      11.59147967       6.57444959      -0.00018936      -0.00389197      -0.00908080
H        2.06657304       9.05865026       6.16170681       0.00045055      -0.00733818       0.00283790
H        2.44579812       9.37629459       4.46836003      -0.00490099      -0.00834134       0.00146908
H        3.48256876      11.42053168       5.08234168      -0.00691679      -0.00627756      -0.00157589
H        2.95687469      11.05380547       6.72193953       0.00111270      -0.00602139       0.00085306
H        2.20167787       6.92556794       4.88441851      -0.00012518      -0.00838849       0.00467517
H        3.85792245       7.30349119       4.39811010      -0.00239660      -0.00607957      -0.00095278
H        3.47893737       6.99530120       6.10747047       0.00364193      -0.00506899       0.00038116
H        4.83526489      12.63779011       6.79799217       0.00008583      -0.00409201      -0.00879003
H        5.35645452      11.10011491       7.49444261       0.00446730      -0.00312452      -0.01041096
H        5.87096818      11.55305349       5.87491048      -0.00362161      -0.00394478      -0.01301111
O       12.67620663       2.20116280       2.99568378      -0.00390917      -0.00305808      -0.00309852
C       12.81543069       1.71823143       1.68877990       0.00412968      -0.00801048       0.00000811
C       12.06671938       1.25708856       3.88315186      -0.00082318      -0.00344463      -0.00100595
C       13.33418519       2.83361468       0.81105226       0.00539562      -0.01054579      -0.00204045
C       12.08357155       1.82035601       5.27999865      -0.00408696      -0.00039577      -0.00235301
H       13.51818564       0.85650385       1.67364450       0.00671524      -0.00608405       0.00727261
H       11.85017021       1.34025584       1.31346058       0.00740510      -0.01242068      -0.00370254
H       11.04149985       1.05862170       3.54823993       0.00018138      -0.00818201      -0.00127685
H       12.61633923       0.31146554       3.84057632       0.00305200      -0.00100130       0.00161189
H       13.46199017       2.49128636      -0.21615470       0.01369824      -0.01526575       0.00061947
H       12.63385647       3.67046176       0.81299528       0.00255804      -0.01323406      -0.01081586
H       14.29409385       3.19181063       1.18339118       0.00188999      -0.00544738       0.00207864
H       11.68875709       1.07519708       5.96954873      -0.00382697       0.00021973      -0.00164013
H       13.10379543       2.06059961       5.57704247      -0.00500613       0.00193457      -0.00102493
H       11.47413638       2.71798516       5.35382254      -0.00567164      -0.00144759      -0.00525150
O        9.34370124       3.15318457       3.86734289      -0.00053599       0.00118339      -0.00621355
C        8.46419515       2.18378313       3.32348690      -0.00062200       0.00189173      -0.00689358
C        9.80162214       4.09196280       2.91772557      -0.00109941       0.00196001      -0.00556391
C        8.15822224       1.15579677       4.38343050      -0.00360042       0.00291499      -0.00689268
C       10.94902009       4.86700442       3.52224625      -0.00144389       0.00226948      -0.00548047
H        7.54880404       2.67620564       2.95675943       0.00051033       0.00269642      -0.00853100
H        8.94992083       1.70794299       2.45721954       0.00012612       0.00087979      -0.00586766
H       10.13645061       3.56575224       2.01067294      -0.00094298       0.00277829      -0.00592399
H        8.97407809       4.75937596       2.62364309      -0.00148660       0.00166216      -0.00492794
H        7.59015137       0.32583963       3.96669979      -0.00489080       0.00398706      -0.00721493
H        9.07964969       0.73694407       4.78731585      -0.00495940       0.00132060      -0.00556786
H        7.58247351       1.57969425       5.20540259      -0.00353469       0.00440288      -0.00769013
H       11.23295878       5.69419279       2.87060084      -0.00194978       0.00244148      -0.00536457
H       10.66289117       5.26754954       4.49482886      -0.00151304       0.00203466      -0.00544468
H       11.80950562       4.21516525       3.65126348      -0.00125922       0.00248098      -0.00557223
O        3.78946258       3.48316275      12.44904888       0.00233734       0.00366980       0.00304780
C        4.74748965       2.57413826      12.95629256       0.00042272      -0.00047985      -0.00138018
C        2.76378295       2.79548799      11.74094989      -0.00080448       0.00887322       0.00212952
C        5.79888614       3.35161540      13.70826041       0.00034690      -0.00648156       0.00466603
C        1.82589357       3.79707880      11.11586643       0.00277808       0.01385936       0.00511241
H        4.25837855       1.84009386      13.61338676      -0.00097537      -0.00445759      -0.00684598
H        5.19188137       2.00098464      12.13012214       0.00126755       0.00446299      -0.00438511
H        3.21671962       2.15232671      10.97522354      -0.00366917       0.00907099       0.00026596
H        2.22682004       2.13115010      12.43096208      -0.00304848       0.00970420       0.00081310
H        6.60192296       2.69125614      14.03768144      -0.00091567      -0.00953993       0.00129199
H        6.22601133       4.12252779      13.06645609       0.00234009      -0.00271524       0.01067828
H        5.36827539       3.83606876      14.58384427      -0.00014476      -0.01253431       0.00766601
H        1.04833652       3.26770441      10.56319711       0.00018552       0.01840882       0.00476619
H        1.34754959       4.41277870      11.87871146       0.00610589       0.01427356       0.00670595
H        2.35907863       4.45339875      10.42778796       0.00486548       0.01262747       0.00608283
O        8.91825397       8.90321008       4.40719282       0.00568345       0.00954765       0.00564265
C        9.75779274       8.01078202       3.71547650       0.00387450       0.01004507       0.00262541
C        8.82534111       8.58981119       5.79456283       0.00679627       0.00690401       0.00520360
C        9.83374645       8.41918771       2.26266554       0.00465832       0.01466632       0.00402540
C        7.66524342       9.34068163       6.39089185       0.00423861       0.00216213       0.00604114
H       10.76158004       8.00370320       4.16776093       0.00368166       0.00661760       0.00245556
H        9.36006793       6.99050365       3.80713744       0.00212416       0.01046538      -0.00121494
H        8.68532237       7.50191680       5.90232537       0.01017720       0.00642425       0.00321824
H        9.76231841       8.87191419       6.29024395       0.00573683       0.00787064       0.00662312
H       10.47935096       7.73420758       1.71130830       0.00344390       0.01569049       0.00119069
H        8.84490106       8.39664915       1.80427700       0.00473765       0.01798007       0.00398866
H       10.23283197       9.42841725       2.16696060       0.00598925       0.01443642       0.00845148
H        7.61057478       9.14492045       7.46304597       0.00417093      -0.00128929       0.00528179
H        7.80306723      10.41254004       6.26229344       0.00092542       0.00287402       0.00893702
H        6.71960894       9.04383322       5.93420784       0.00571798       0.00038845       0.00439267
O       10.13075131       4.41707078      11.54197649       0.00283924      -0.00260442      -0.00046334
C        8.98469209       4.79488703      12.27295168       0.00310834      -0.00490218       0.00080970
C       10.03943747       3.06941033      11.09709865       0.00430691      -0.00217775      -0.00214505
C        9.14842476       6.21177239      12.76485661       0.00217225      -0.00554436       0.00288725
C       11.29995443       2.69512843      10.36188533       0.00424087       0.00021556      -0.00317195
H        8.09117327       4.70582968      11.63471982       0.00267911      -0.00483368       0.00153789
H        8.84178994       4.10668494      13.11990172       0.00442463      -0.00624084      -0.00003859
H        9.88376971       2.41479401      11.96784703       0.00558737      -0.00333029      -0.00285989
H        9.15986374       2.95783886      10.44651985       0.00416875      -0.00248002      -0.00181988
H        8.29961757       6.49433559      13.38930108       0.00206572      -0.00706358       0.00336745
H       10.05875953       6.30600976      13.35720253       0.00208159      -0.00579195       0.00284210
H        9.20917698       6.91030763      11.93178086       0.00154970      -0.00431100       0.00386998
H       11.21603595       1.67691572       9.97929954       0.00484939       0.00085539      -0.00481284
H       11.46472577       3.36232573       9.51514464       0.00320579       0.00156555      -0.00228733
H       12.16163686       2.75331426      11.02795536       0.00449781      -0.00000324      -0.00361350
O       10.96951472       4.69597984       7.28628651       0.00020933      -0.00584358      -0.00117981
C        9.58359238       4.65635776       7.58016299       0.00154921      -0.00788450       0.00463640
C       11.49211806       6.00899812       7.30421821       0.00004125      -0.00605059       0.00411758
C        9.08885780       3.24313333       7.39885442       0.00110717      -0.00670856      -0.00156633
C       12.97464357       5.94130682       7.03114797      -0.00093842      -0.00435968      -0.00134908
H        9.41809058       5.02039734       8.60726192       0.00621490      -0.01421750       0.00751519
H        9.04778248       5.33890699       6.90119053      -0.00145489      -0.00389466       0.01114425
H       10.98611070       6.61991973       6.54218594      -0.00255874      -0.00204992       0.00920945
H       11.29318522       6.48170455       8.27651492       0.00354178      -0.01131342       0.00732636
H        8.02414592       3.18451974       7.63236090       0.00213231      -0.00861120       0.00242606
H        9.23319459       2.92959275       6.36744799      -0.00311733      -0.00045209      -0.00393930
H        9.62034077       2.54183307       8.04061264       0.00376233      -0.01059043      -0.00813672
H       13.39388125       6.94689018       6.97593070      -0.00125368      -0.00416011       0.00243478
H       13.48793933       5.39322872       7.82149580       0.00175592      -0.00847526      -0.00613955
H       13.16104990       5.43051420       6.08608391      -0.00427945       0.00057130      -0.00462694
O        4.59876627       7.67886464       1.83129197       0.00340685      -0.00354570      -0.00042144
C        5.90580842       7.81885816       2.37039351       0.00062250      -0.00565624       0.00643669
C        4.38572205       6.39106946       1.27964101       0.00244170      -0.00440852       0.00200647
C        6.10607283       9.23678265       2.84059894       0.00196843      -0.00416732       0.00085954
C        2.96058166       6.27617406       0.80209007       0.00500005      -0.00091007      -0.00583287
H        6.03469849       7.11044418       3.20214574      -0.00656556      -0.00211525       0.01034021
H        6.64531271       7.55037925       1.59979917       0.00428069      -0.01142438       0.01213554
H        5.08417436       6.22979695       0.44696998       0.00658602      -0.00896966       0.00651687
H        4.60389211       5.62771353       2.04186072      -0.00454568      -0.00310001       0.00517491
H        7.04824642       9.31986495       3.37989645       0.00028923      -0.00300141       0.00356215
H        6.13684930       9.92159803       1.99360895       0.00568647      -0.00833990      -0.00233594
H        5.30040100       9.53477148       3.51313373       0.00023404       0.00009817      -0.00330672
H        2.80333532       5.30076058       0.34051073       0.00457154      -0.00111517      -0.00500809
H        2.26455781       6.39690928       1.63292102       0.00076185       0.00293475      -0.01008365
H        2.74649968       7.03987919       0.05422651       0.01184930      -0.00157346      -0.00836688
O        6.69973726      10.45945893      11.07397939       0.00059026      -0.00142083       0.00050071
C        7.12610083       9.29043948      11.72855967       0.00294572      -0.00040734       0.00054327
C        7.79057823      11.23225311      10.57287849      -0.00125202       0.00036591      -0.00066805
C        5.92468260       8.58364767      12.31452578       0.00442821      -0.00245394       0.00090367
C        7.25858342      12.53068435      10.02317520      -0.00425845      -0.00102669      -0.00079095
H        7.66086829       8.63377970      11.02264541       0.00396016       0.00044832       0.00050101
H        7.84267808       9.54849543      12.52573918       0.00270799       0.00099131       0.00021759
H        8.49959675      11.42029228      11.39323316      -0.00101906       0.00199328      -0.00134003
H        8.32982497      10.66874627       9.79906348      -0.00082627       0.00131026      -0.00095725
H        6.24336917       7.71568693      12.89366347       0.00592719      -0.00162756       0.00110873
H        5.37884576       9.25710973      12.97595045       0.00354279      -0.00326501       0.00105900
H        5.24197371       8.24007100      11.53695431       0.00494361      -0.00367640       0.00109707
H        8.08604354      13.14198069       9.66038281      -0.00585976       0.00168955       0.00038499
H        6.58841542      12.35251343       9.18292147      -0.00290273      -0.00251462      -0.00153734
H        6.70877782      13.06997171      10.79659676      -0.00633521      -0.00264560      -0.00126517
O        3.80567381      11.60431209       2.12162309      -0.00103290       0.00252233      -0.01011722
C        3.51835173      10.64203606       1.07219539       0.00112361      -0.00000055      -0.00812005
C        4.79972484      12.59764576       1.81079463       0.00261135      -0.00087988      -0.00853235
C        2.11031183      10.13121697       1.27579459      -0.00111717       0.00509822      -0.01179896
C        4.95411304      13.47409418       3.03070879      -0.00654933       0.00704844      -0.01308209
H        3.64496476      11.12077598       0.10120262       0.00532636      -0.00241655      -0.00890771
H        4.22203684       9.81799506       1.15799844      -0.00105432      -0.00126225      -0.00273921
H        5.73697589      12.10670411       1.53739979       0.00482845      -0.00434034       0.00555110
H        4.46932336      13.17016661       0.92891174       0.01099300      -0.00758839      -0.01517037
H        1.89242418       9.37501863       0.52280604       0.00022967       0.00008054      -0.00702237
H        1.99471726       9.69023436       2.26600662      -0.00692273       0.01263662      -0.00917763
H        1.34193612      10.91121856       1.14010811       0.00281128       0.00660723      -0.02263937
H        5.65494572      14.28047618       2.81576058      -0.00445053       0.00504579      -0.01240006
H        4.01023021      13.94719197       3.33974242      -0.00780317       0.01100375      -0.02309282
H        5.32147274      12.90704831       3.88543364      -0.01308555       0.01299837      -0.00667855
O        4.19018618       7.39465664       9.20377182       0.00346035      -0.00064084       0.00593087
C        4.01531397       8.80405360       9.06110828       0.00321478      -0.00119945       0.00216201
C        5.45401828       6.97589683       8.73526934       0.00171071      -0.00240439       0.00283120
C        2.61998653       9.16094732       9.50305044       0.00686371       0.00137736       0.01114196
C        5.52689981       5.47006880       8.81435280       0.00147305      -0.00210959       0.00709870
H        4.76412554       9.33842268       9.66159661       0.00777334       0.00020713      -0.00499165
H        4.17592079       9.07579269       8.01192521      -0.00408389      -0.00486796       0.00018549
H        5.60368368       7.32264059       7.70196811      -0.00168471      -0.00535293       0.00146496
H        6.25017424       7.43618793       9.34197799       0.00372255      -0.00095385      -0.00096580
H        2.46054355      10.23514041       9.41065681       0.00597768       0.00065011       0.00722747
H        1.88024961       8.64652442       8.88738122       0.00195023      -0.00054272       0.01908830
H        2.45237096       8.88935743      10.54584778       0.01501769       0.00610419       0.01360452
H        6.51216402       5.12417178       8.49828475       0.00031222      -0.00362435       0.00540260
H        5.34351393       5.12827978       9.83396483       0.00418375       0.00125949       0.00864804
H        4.77752353       5.01600310       8.16509636      -0.00067171      -0.00361577       0.01073924
