196
Lattice="13.251896991356325 0.0 0.0 0.0 13.251896991356325 0.0 0.0 0.0 13.251896991356325" Properties=species:S:1:pos:R:3:forces:R:3 energy=-437461.375 stress="0.0005571215297095478 -0.0003975888394052163 -1.85920962394448e-05 -0.0003975888394052163 0.0011885901913046837 -9.000458521768451e-05 -1.85920962394448e-05 -9.000458521768451e-05 0.00035364789073355496" pbc="T T T"
Sm      11.92481129      13.66422523      -0.40525950      -0.00426374      -0.00911248      -0.00089238
Cl       6.24867206      12.18834530       6.51812946       0.00501323      -0.00240541       0.00187320
O        7.77745027      12.42096874       6.29848277       0.00686932      -0.01699811      -0.00119883
O        5.82989219      10.74559840       6.06672047      -0.00983527       0.00161469       0.00329435
Cl       0.21940487      12.66071951       6.76892576       0.00978136       0.00218862      -0.00453439
O        0.28341604      12.63605007       8.43280039       0.00271788       0.00881168      -0.00446846
O        1.22286599      13.63159266       6.16900782       0.01161712       0.00150979      -0.00283724
Cl       6.37799727      13.25018096       3.33756413      -0.02292663       0.01095033       0.00641656
O        5.69930758      14.24403301       2.35180181      -0.02446717      -0.00867546      -0.01275730
O        7.94225086      13.25511956       3.19892564      -0.02269697       0.01740655       0.00979701
O       10.57279665      12.01010905      11.93981829       0.01183993      -0.02518785       0.00757033
C       11.70900731      11.37470199      11.35592133       0.01100022      -0.01098877      -0.01005089
H       11.41992580      10.60772882      10.63946195       0.00843985      -0.00817984      -0.01209788
H       12.30696336      10.88729216      12.13615449       0.02383132      -0.01141208      -0.02040620
H       12.32933390      12.11134305      10.80103196      -0.00123991      -0.00213906      -0.01164939
H        9.69854831      11.78747677      11.37874931       0.01043148      -0.01500754       0.00489388
O       11.61972952       8.70480362       4.11931581      -0.00115755       0.00569083      -0.00011903
C       11.50269602       8.94096271       5.52411946       0.00001552       0.00235163       0.00065171
H       11.23613956       8.01959388       6.04991754      -0.00585333       0.00232470      -0.00214116
H       10.74027368       9.69515671       5.72655103       0.00471812       0.00651625       0.00291392
H       12.46200518       9.29503873       5.90085806       0.00223759      -0.00500987       0.00193314
H       10.71118669       8.83474439       3.72125849      -0.00016555       0.01137233      -0.00002212
O       10.00019281       0.84768273       0.86927387       0.00546989      -0.00809595       0.00676417
C        9.37488157       1.99473683       1.49601351       0.00046153      -0.00494771      -0.00493141
H        9.53576194       1.97415466       2.57028550      -0.00733817       0.00226232      -0.00348133
H        8.30303530       1.98886324       1.30754545       0.00181547      -0.00636021      -0.01281171
H        9.83726953       2.88252995       1.06790878       0.00283679      -0.00707620      -0.00690243
H        9.62658631       0.00446181       1.23065238       0.00441399      -0.00910166       0.00934178
O       12.27539911      12.35111524       1.53606585       0.00089751      -0.00170630       0.00566359
C       11.99390168      12.82966193       2.87549052       0.00581460      -0.00984086       0.00958027
H       12.87207679      12.68911362       3.50564854       0.00865012      -0.01301247       0.00513093
H       11.12300079      12.30781858       3.27497213       0.00857538      -0.01413435       0.01053075
H       11.78584776      13.89549593       2.83082531       0.00392578      -0.01008436       0.01708001
H       12.52415661      11.37245579       1.67091839       0.00302725      -0.00167543       0.00022484
O        2.25426283       8.05088261       2.05718260       0.00151294      -0.00263382      -0.00148071
C        3.43392152       7.30891591       2.34971533       0.00095081      -0.00345704      -0.00090681
H        3.41807248       6.32117991       1.87777665       0.00053778      -0.00351727      -0.00075677
H        3.56302036       7.20345884       3.42705008       0.00039699      -0.00348527      -0.00082403
H        4.28305616       7.87101699       1.96287780       0.00152543      -0.00401331      -0.00069268
H        1.52467814       7.68104343       2.59775468       0.00168929      -0.00001052       0.00064214
O        7.04302222       2.81337245       9.36361258      -0.00328588      -0.00240514      -0.00511491
C        7.13010091       1.49620744       8.79455959       0.00065999       0.00082298      -0.01222816
H        6.27595722       1.28592342       8.14744555       0.00186098       0.00226488      -0.01433712
H        7.20159690       0.73420482       9.57428160       0.00150629      -0.00310208      -0.01606926
H        8.03450872       1.46926728       8.19150948       0.00172138       0.00618833      -0.01092918
H        6.26590219       2.84514541       9.93076339      -0.00507367      -0.00686342      -0.00727069
O        2.27815266       8.94067539      -0.47292936      -0.00051880       0.00138789      -0.00088635
C        3.61752902       9.42024955      -0.51704736      -0.00212133       0.00606249      -0.00082339
H        3.83711672      10.05798734       0.34355170      -0.00394276       0.00543669       0.00019732
H        3.73952298      10.00379581      -1.42846391      -0.00462303       0.00809205       0.00003767
H        4.34017191       8.59668242      -0.53784136       0.00068504       0.00859708      -0.00258431
H        2.14755226       8.56116442       0.42709516       0.00100963      -0.00046038      -0.00142963
O        2.49785331       4.96123159      13.00077207       0.00278506      -0.00941736       0.00551322
C        1.14192226       5.34973117      13.24948339       0.00331047      -0.00405019       0.00077225
H        0.98047622       5.57175567      14.30646930       0.00198679       0.00216040      -0.00070935
H        0.43844516       4.57415861      12.92752214       0.00177735      -0.00401711       0.00396884
H        0.96436566       6.24816482      12.66249677       0.00672483      -0.00686166      -0.00466736
H        2.72816842       4.23910436      13.59596218       0.00179088      -0.00344402       0.01306963
O        5.99976865       9.04589519       8.19227719      -0.00196785       0.00641471       0.00590533
C        7.00556538       8.11080651       7.87604512      -0.00422508       0.00445729       0.00431684
H        6.74878893       7.50403406       7.00066317      -0.00704762       0.00470808       0.00495031
H        7.10924930       7.42956198       8.72368340      -0.00377431       0.00450471       0.00438321
H        7.97564391       8.59683089       7.69791085      -0.00359550       0.00255045       0.00237835
H        5.89150992       9.63889725       7.41783056      -0.00505242       0.00403513       0.00424518
O        2.52590723       1.48602083      11.86665581      -0.00913990      -0.01659232      -0.00146680
C        1.28106080       1.02812619      11.41897787      -0.00749421      -0.01917902      -0.00263271
H        1.24089076       0.89919184      10.33444921      -0.00365791      -0.02863561      -0.00179937
H        0.46111301       1.73553867      11.68120347      -0.00846448      -0.01708040      -0.01132344
H        1.09732939       0.03714686      11.88350928      -0.00950254      -0.01537837       0.00485528
H        2.73872626       2.29968533      11.35420589      -0.00975755      -0.01533254       0.00000206
O        3.28979412       8.50925907       5.48143293       0.00389504      -0.00663304       0.00200009
C        2.44348589       9.40600615       6.16848621       0.00424418      -0.00587681       0.00200662
H        1.72034357       9.88335947       5.49239446       0.00367588      -0.00682053       0.00195599
H        3.01111100      10.19485577       6.67597837       0.00481200      -0.00535148       0.00053063
H        1.88910924       8.84610456       6.92277511       0.00496826      -0.00513980       0.00309616
H        3.79085318       9.04349417       4.82789169       0.00240678      -0.00719328       0.00062573
O        2.92517940       3.83709923      10.53672609      -0.00306872      -0.01407999       0.00670302
C        1.88815876       4.11826925       9.59648827      -0.00252061      -0.00530359       0.00864846
H        1.80762980       5.19175154       9.41601951       0.00512028      -0.00444609       0.00977686
H        0.91855824       3.74093064       9.94040032      -0.00482005       0.00152084       0.00974007
H        2.13827383       3.60681395       8.66694057      -0.00777297      -0.00637890       0.00768431
H        2.79380581       4.40638587      11.32348046       0.00092606      -0.01612097       0.00890357
O        9.09665762      11.61869781       1.72662137      -0.01331182       0.02707739       0.01078345
C        8.28438784      11.04213187       0.70177194      -0.01088176       0.02422650       0.00983286
H        7.46674413      10.45631109       1.13253212      -0.01411676       0.02934247       0.01043171
H        8.91588425      10.38421696       0.10550812      -0.01066627       0.01909015       0.01551990
H        7.86645336      11.81160340       0.04918728      -0.00605115       0.02233911       0.00455081
H        8.50234391      12.19246404       2.34957719      -0.01738742       0.02470937       0.01220731
O        4.60255062      10.20427369       3.79801992      -0.00064307      -0.00375360      -0.00255761
C        3.66506406      11.21662285       3.44685403      -0.00546923      -0.00962603      -0.00752029
H        4.07623515      11.89736481       2.69557224      -0.00827685      -0.00909179      -0.00873783
H        3.36899213      11.80680136       4.31995815      -0.01010171      -0.00859936      -0.00976023
H        2.78174171      10.72903007       3.03260210      -0.00195652      -0.01599431      -0.00757609
H        5.16089434      10.54143235       4.54149872      -0.00455765       0.00045910      -0.00181566
O       11.20045403       4.16006838       5.46838860       0.00405526      -0.02239430       0.00106335
C       11.92080403       3.51196853       4.42852458       0.01515779      -0.01241723       0.00144723
H       11.23472029       3.05766300       3.70899041       0.02207085      -0.04320800       0.01294321
H       12.55155990       2.72568584       4.84647994       0.04187185       0.01285863       0.00563174
H       12.56514170       4.21007397       3.88271912      -0.01102620       0.00020656      -0.01338190
H       10.31143687       4.31109275       5.09826765       0.01394805      -0.00424539      -0.00658690
O        3.84786529       0.65595616       7.30570727       0.00894976       0.00097819       0.00460887
C        3.62912924       0.49994601       8.69704144       0.00753991      -0.00315489       0.00403351
H        2.80446529      -0.18549688       8.90462787       0.01066127      -0.00783810       0.00122237
H        3.41534223       1.46028651       9.18227485       0.00203126      -0.00535268       0.00593545
H        4.53399016       0.08347040       9.14198573       0.00897539       0.00024012       0.00433959
H        2.99258671       0.57245083       6.85931297       0.00938620       0.00043780       0.00338028
O        0.35180307       6.82729567       3.60752769       0.00047892       0.00453123       0.00348814
C        0.84543519       6.43403592       4.89609723      -0.00386608       0.00038926       0.00400653
H        0.33726496       6.98371272       5.68995688      -0.00146079       0.00316997       0.00373513
H        1.90795255       6.66393035       4.95817907      -0.00257632      -0.00587152       0.00546112
H        0.67588251       5.36859213       5.05613705      -0.01056595       0.00126293       0.00302891
H       -0.44937008       7.36371656       3.74664292       0.00028127       0.00434839       0.00186308
O        3.44769876       2.41631917       2.83291513      -0.00578633       0.01080585      -0.02114365
C        3.47731281       3.38379663       3.87553370       0.01187647      -0.00830388      -0.00376301
H        2.56559470       3.97707287       3.78894333       0.01602605       0.00090401       0.01622887
H        4.34559522       4.03698110       3.78627971       0.01655087      -0.01389119      -0.00033227
H        3.49167757       2.91406632       4.86463617       0.01826773      -0.02634868      -0.01241148
H        4.30107014       1.92146197       2.79566476      -0.01277003      -0.00217333      -0.02818682
O       12.87895291       9.93032141       2.04920417       0.00385143      -0.00248167      -0.00157613
C       12.42147594       9.02075377       1.04095472       0.00200262      -0.00242360      -0.00087695
H       11.38167012       9.21475952       0.76927181       0.00399259       0.00266945      -0.00499222
H       12.52101363       7.98870750       1.38331074      -0.00491963      -0.00211596       0.00233077
H       13.05260833       9.15202786       0.16513644       0.00573519      -0.00796193       0.00099182
H       12.49929145       9.63627433       2.90509467       0.00347395      -0.00056501      -0.00115642
O        1.95979246       7.43315751      10.46368465       0.00120395       0.00309640      -0.00214291
C        3.08168455       7.80776874       9.67519668       0.00338495      -0.00023793      -0.00066185
H        4.03079367       7.54277284      10.15212248       0.00205755      -0.00338776       0.00035861
H        3.09638712       8.87982974       9.45616364       0.00719858      -0.00019228      -0.00044311
H        3.02304695       7.27622509       8.72504033       0.00271584       0.00019918      -0.00095320
H        2.01420869       7.92825794      11.30483423       0.00138369       0.00291442      -0.00202794
O       11.01076080       7.46229668       9.12441689      -0.00026518      -0.00140134      -0.00950071
C       12.10491205       6.53416144       9.06677777       0.00309142      -0.00045700       0.00185836
H       12.29803906       6.22204100       8.03774112       0.00537982      -0.00748389       0.00325087
H       11.90248317       5.64912528       9.67824365      -0.00024587       0.00207171       0.00626680
H       12.97949579       7.04288830       9.46813230       0.00275272       0.00103351       0.00099625
H       10.25027444       7.06867935       8.68674659       0.00719780       0.00117320      -0.01111668
O        6.55271863       4.71808449       4.71971502       0.00571157       0.00743890       0.00959399
C        6.10454713       6.04662198       4.48637860       0.00174958       0.00520316       0.00271313
H        5.18463942       6.26789635       5.03416053      -0.00118890       0.00409667      -0.00167046
H        5.90508043       6.15080210       3.41979204       0.00567317      -0.00003754       0.00142625
H        6.85764417       6.78661891       4.77194457      -0.00209874       0.00941548       0.00269175
H        6.50832737       4.55117521       5.69016295       0.00333962       0.01135679       0.01060452
O        0.88243966       1.81300192       2.60269290      -0.00822335       0.01238400      -0.00743663
C        0.69617386       1.79928810       1.22363216      -0.01726592       0.00765381      -0.00613189
H        0.78806803       0.76738878       0.81717122      -0.00922238       0.00768505      -0.00425070
H        1.42795352       2.40229949       0.67778284      -0.02720973       0.01428214      -0.01235431
H       -0.31689303       2.21083302       0.99771769      -0.02296828      -0.00325116       0.00010624
H        1.85538944       1.88638440       2.75601927      -0.00727440       0.01638224      -0.01363815
O       12.45530893       1.61783869       9.09285333      -0.00778863       0.00183839      -0.00566053
C       11.90453099       2.40457030       8.02552449      -0.00972425       0.00438515      -0.00288012
H       10.94044103       2.01446295       7.69305003      -0.01398090       0.01016913       0.00258501
H       12.60816873       2.36225370       7.19801192      -0.01499324      -0.00004132      -0.00695427
H       11.78846136       3.44445246       8.32930984      -0.00159418       0.00530085      -0.00267904
H       13.05523707       0.24050808       8.71085159      -0.00199604       0.00813150      -0.00828722
O        9.30134602       9.28909014       3.11388828      -0.00003468       0.01883250       0.00187716
C        8.19438163       9.40938818       4.02067418       0.00081360       0.01290885       0.00411865
H        7.25278413       9.18181342       3.51512285      -0.00004959       0.01831364       0.00325672
H        8.13451196      10.41002536       4.45182557       0.00282529       0.00942484       0.01257044
H        8.33983905       8.69200068       4.82787104       0.00106405       0.00579101      -0.00220239
H        9.35933292      10.13865059       2.62087042      -0.00237300       0.02102105       0.00599582
O        6.19491012       4.48763273       7.34200808      -0.00381923       0.00822315       0.00669473
C        4.79733540       4.31588728       7.57402044      -0.00393188       0.00297431       0.00314236
H        4.52890868       4.62489369       8.58705016      -0.00704118       0.00106330       0.00296834
H        4.48677678       3.27765249       7.41555363      -0.00002719       0.00202829       0.00154460
H        4.26686395       4.95457211       6.86782234      -0.00457084       0.00186408       0.00260890
H        6.66047164       3.94117743       8.00376853      -0.00356917       0.00451437       0.00355356
O        8.55377869      11.50818855      10.58534260       0.00967412      -0.00194485       0.00341225
C        7.88681753      10.24013823      10.73930599      -0.00223926       0.00473663       0.00723414
H        8.61928782       9.43516422      10.84158834      -0.00966239      -0.00075665       0.01680995
H        7.24929573      10.05702563       9.87362840       0.00119981       0.00478726       0.00465813
H        7.26735835      10.28083637      11.63233943      -0.00749573       0.01598506       0.00326738
H        8.77650563      11.55270722       9.60066725       0.01135388      -0.00578913       0.00353079
O        9.12335267      11.33237908       8.10970514       0.01204464      -0.00386816       0.00287396
C       10.45577666      11.70544706       7.83020565       0.00778818       0.00917395      -0.00115028
H       10.74380611      12.61627052       8.37124524       0.00192160       0.00952467       0.00147665
H       10.58911016      11.89219697       6.76080645       0.00132305       0.01528805      -0.00096506
H       11.12968276      10.89886513       8.12907707       0.01640466       0.01407713      -0.00758297
H        8.52337310      11.77910871       7.40535159       0.00694910      -0.01117674       0.00272284
O        9.04846232       4.46918211       3.80676638       0.00185707       0.01405746       0.00203186
C        9.35716965       5.76829549       3.33162349       0.00202741       0.01016238      -0.00782870
H       10.33368118       5.72708916       2.84743320       0.00363225       0.00617312      -0.00445293
H        9.41896896       6.49771628       4.14750677      -0.00105554       0.01681286      -0.01369038
H        8.62104853       6.12420002       2.60443287       0.00508091       0.00491254      -0.01374969
H        8.12002357       4.48092148       4.14156580       0.00326194       0.01759326       0.00830562
O       11.24174076       1.89210972      11.54967379      -0.00814724      -0.01271185      -0.00399160
C       10.08410655       2.57348775      11.08507446      -0.00473581      -0.00234371       0.00324345
H        9.38235399       2.75861801      11.90155233      -0.00236902      -0.00514291       0.00597635
H        9.56556179       1.97582538      10.32931412      -0.00973395       0.00727895      -0.00098950
H       10.35002088       3.53730304      10.63697921       0.00002670       0.00001767       0.01093253
H       11.96730464       1.75585993       9.93354165      -0.00906929      -0.00459819      -0.00540730
O       10.64781322       8.18820267      11.79148251      -0.00300825       0.00453621      -0.00680864
C        9.83910522       7.21843949      12.43255054       0.00222029       0.00124225      -0.00530547
H       10.25544990       6.20798585      12.34065665       0.00997347       0.00386462       0.00032255
H        8.81410951       7.20717679      12.04154738       0.00353682      -0.00788205      -0.00845170
H        9.79178679       7.47107843      13.49178527      -0.00288756       0.00557334      -0.00642231
H       10.73707792       7.93431526      10.85460067      -0.00226087       0.00373167      -0.00681779
