185
Lattice="13.755397487291658 0.0 0.0 0.0 13.755397487291658 0.0 0.0 0.0 13.755397487291658" Properties=species:S:1:pos:R:3:forces:R:3 energy=-395695.09375 stress="-0.0007314292015507817 -0.0003213780728401616 0.0003660467773443088 -0.0003213780728401616 0.000286528083961457 0.0005628750077448785 0.0003660467773443088 0.0005628750077448785 -0.0006650261930190027" pbc="T T T"
Sm       9.07439747      13.12470346       1.73281449      -0.00049038       0.00722536       0.02598326
S       12.40963072      12.22842337       5.79516515      -0.01760614      -0.01466882      -0.02213494
O       12.99422074      11.91648815       7.08933559      -0.00279737      -0.01029885      -0.02824187
O       13.18144730      11.75365084       4.64029307      -0.03076077      -0.01603031      -0.02985668
O       11.98105165      13.62581715       5.64451995      -0.02138656      -0.01574659      -0.02025225
C       10.88010808      11.29450072       5.73897744      -0.01694667      -0.01724809      -0.00372567
H       10.23764787      11.61937307       6.55321404      -0.01048828      -0.01255352      -0.00071290
H       10.37720527      11.48187804       4.79050787      -0.02433079      -0.02305061      -0.00080530
H       11.11091302      10.23607908       5.83402099      -0.01523520      -0.01642157       0.00037803
S        7.72970941      13.96152586      13.02199936       0.01567376       0.02062185       0.02074092
O        8.34732062      14.96732732      12.21117581       0.01064958       0.03056963       0.02880698
O        7.40212002      14.40689474      14.41503173       0.00205315       0.00925818       0.01977345
O        8.56635956      12.73428402      13.20976461       0.02749142       0.02824256       0.02046296
C        6.21332799      13.47518548      12.26580405       0.02316380       0.00897953       0.01230758
H        6.44538016      13.08165816      11.27816797       0.02929996       0.00433138       0.01563331
H        5.72588946      12.72203297      12.87613649       0.02711423       0.00957179       0.01620346
H        5.60029735      14.36984137      12.17839596       0.01662433       0.00419170       0.00540729
S        6.97834553      11.59957768       4.25341921      -0.02405044      -0.01176155      -0.00638244
O        7.45224525      11.75283444       5.59689135      -0.01208818      -0.00303853       0.00939912
O        6.67478258      10.27846910       3.77104675      -0.00947309       0.00154263       0.01178661
O        7.97278159      12.25578881       3.27291092      -0.02618235       0.00073141       0.00473028
C        5.56826283      12.63884930       4.02605984      -0.02436978      -0.01649606       0.01547378
H        5.83519799      13.64455158       4.34346009      -0.03222401      -0.01339251       0.01324935
H        5.29138578      12.62935942       2.97364152      -0.03192390      -0.01702635       0.01575482
H        4.75470508      12.25232790       4.63328900      -0.02080627      -0.02044171       0.01837043
C        9.44136104      11.41449005       9.72867903       0.00130378       0.00470924       0.00230490
C       10.36193117      12.55265062      10.15374983      -0.00014630       0.00555199       0.00242588
C        8.22152502      11.88003355       8.94342061       0.00237591       0.00212657      -0.00069037
C       11.38984068      12.13123131      11.19993396       0.00484093       0.00409210      -0.00329176
C        7.21631367      10.76608920       8.69377718       0.00464538       0.00063375      -0.00209697
C       12.04492085      13.31765304      11.89458661       0.01016964       0.00293604      -0.00658692
H       10.00071880      10.68183380       9.13607536       0.00311074       0.00425375       0.00446318
H        9.09630855      10.88487750      10.62655941       0.00046261       0.00577515       0.00251621
H        9.74947518      13.35932426      10.57004601      -0.00011073       0.00292084       0.00765771
H       10.87554180      12.96279945       9.27942557      -0.00485894       0.00971407       0.00162080
H        7.74089192      12.69407504       9.49886454      -0.00027068       0.00157011      -0.00240310
H        8.52653355      12.31685125       7.98988602       0.00391735       0.00247321      -0.00011024
H       10.89233948      11.50632787      11.95133856       0.00852604       0.00431195      -0.00095233
H       12.15573888      11.50777879      10.73127455       0.00134429       0.00329423      -0.00803007
H        7.67310991       9.95307029       8.12738859       0.00637090       0.00184843      -0.00237987
H        6.36063424      11.11733807       8.11706555       0.00472914      -0.00016977      -0.00257523
H        6.85092613      10.34650399       9.63563550       0.00453137      -0.00029939      -0.00264151
H       12.57744388      13.94925439      11.18203578       0.00848126       0.00105265      -0.00926936
H       11.28409558      13.94283271      12.37358819       0.01397677       0.00485047      -0.00378516
H       12.75860979      12.99888682      12.65772536       0.01247431       0.00151322      -0.00939828
C        6.43893929       4.81247008      11.17984770       0.00013626       0.00581422      -0.00482587
C        6.87088893       3.62781130      10.32414232       0.00029194       0.00757848      -0.00722985
C        7.52769836       5.27279307      12.14474193       0.00050092       0.00516234      -0.00505414
C        5.75496352       3.03304858       9.47318339      -0.00043261       0.00747173      -0.00617256
C        7.11959916       6.48367998      12.97297382      -0.00066672       0.00221968      -0.00136125
C        6.22378277       1.83747537       8.65359498      -0.00146699       0.00675440      -0.00563909
H        6.13867165       5.64879939      10.53786850      -0.00139162       0.00656137      -0.00310177
H        5.54595230       4.53922804      11.75572567       0.00102639       0.00388674      -0.00441326
H        7.27632704       2.84799923      10.97275771       0.00221124       0.00727603      -0.00864089
H        7.69932237       3.93242301       9.67394672      -0.00113103       0.00951646      -0.00803201
H        7.78647777       4.43982841      12.80677059       0.00279937       0.00388470      -0.00774059
H        8.43657054       5.50110582      11.57777603      -0.00058678       0.00822798      -0.00552711
H        4.92918276       2.73000058      10.12803514       0.00001860       0.00809938      -0.00544332
H        5.34346804       3.80017825       8.80895451      -0.00064412       0.00716376      -0.00633880
H        6.93295474       7.35065773      12.33540331      -0.00317433       0.00363858       0.00138323
H        7.89234040       6.76005166      13.69294243      -0.00023955       0.00169293      -0.00166036
H        6.20317129       6.28586373      13.53178276       0.00051014      -0.00096711      -0.00062542
H        7.00103250       2.12723319       7.94380559      -0.00115503       0.00565163      -0.00571451
H        6.65724623       1.07051046       9.29878343      -0.00238416       0.00656229      -0.00522768
H        5.41034474       1.37993921       8.08826846      -0.00191098       0.00716650      -0.00528219
C       10.97635936       7.45929372       7.41829952       0.00052416      -0.00163029       0.00040658
C       11.83733018       7.81398862       8.61871146       0.00123155       0.00069441      -0.00080629
C       11.80426262       7.35365903       6.14805132      -0.00108570      -0.00276159      -0.00049786
C       11.09088132       7.79424893       9.94146485       0.00209755       0.00142357      -0.00025502
C       10.98591701       7.02388432       4.91366608      -0.00293589      -0.00448672       0.00123146
C       11.99838123       8.14778297      11.10685589       0.00189871       0.00415286      -0.00100726
H       10.45952433       6.50892121       7.59989309       0.00132743      -0.00164354       0.00220628
H       10.19212494       8.21383506       7.28955107      -0.00028482      -0.00237143       0.00026420
H       12.28332587       8.80302247       8.46285666      -0.00006989       0.00100517      -0.00237079
H       12.67496224       7.10877916       8.67628412       0.00198215       0.00171310      -0.00073005
H       12.34026218       8.29498607       5.99408270      -0.00160991      -0.00282726      -0.00259208
H       12.57553103       6.59004246       6.29398855      -0.00068101      -0.00230432      -0.00077592
H       10.25057207       8.49352666       9.90031091       0.00104827       0.00013477      -0.00092520
H       10.65504836       6.80117067      10.09795664       0.00353213       0.00107184       0.00115139
H       10.42463272       6.09579453       5.04659039      -0.00269027      -0.00429259       0.00337709
H       11.62213001       6.90495470       4.03831038      -0.00444005      -0.00556196       0.00039339
H       10.26609662       7.81527060       4.69852362      -0.00338207      -0.00484304       0.00132203
H       12.80503140       7.41781292      11.20851226       0.00168635       0.00425546       0.00105310
H       12.45561711       9.12767350      10.96024745       0.00226688       0.00364223      -0.00332532
H       11.44946632       8.17021807      12.04399372       0.00177993       0.00687020      -0.00106032
C        3.69682713       9.71271580       2.29608932      -0.00449011      -0.00068265      -0.00584176
C        2.86158546       8.54614141       2.79988640      -0.00270582      -0.00020087      -0.00180233
C        4.55864557       9.35740139       1.09062022      -0.00210167      -0.00276893      -0.00350444
C        2.03454246       8.87497824       4.03458305       0.00076421       0.00238073      -0.00030136
C        5.36770096      10.53994981       0.57731880      -0.00241360      -0.00273493      -0.00417197
C        1.25426890       7.66968896       4.53489461       0.00062123       0.00436476       0.00421944
H        3.03661991      10.55096396       2.04263239      -0.00548503      -0.00248072      -0.00930955
H        4.34830867      10.05762131       3.10306984      -0.00584957       0.00283530      -0.00644422
H        3.52928331       7.70679064       3.03110520      -0.00194594       0.00078642      -0.00100929
H        2.20058198       8.19414020       1.99854635      -0.00483477      -0.00207350       0.00078788
H        5.23805796       8.54372094       1.36192074      -0.00156850      -0.00115487      -0.00002642
H        3.92118052       8.97195589       0.28861037       0.00015175      -0.00562636      -0.00381777
H        2.70407802       9.22988398       4.82487515       0.00325620       0.00311563      -0.00267518
H        1.34886878       9.70289975       3.83266199       0.00120729       0.00211918      -0.00157462
H        4.70384078      11.38519468       0.37468556      -0.00315139      -0.00475554      -0.01009918
H        5.90509988      10.30093027      -0.34311365       0.00182615      -0.00457104      -0.00124630
H        6.10088747      10.85561697       1.32337607      -0.00611505       0.00116944      -0.00228800
H        0.50751546       7.35474292       3.80105375      -0.00267664       0.00493380       0.00739618
H        1.91720750       6.81919445       4.71256039      -0.00022386       0.00350977       0.00301694
H        0.73249235       7.88681414       5.46432984       0.00418712       0.00648795       0.00579947
C       11.25923857       6.73086198       0.64499849      -0.00149153       0.01003956       0.00156552
C       10.73201861       7.90361708       1.46856802      -0.00046194       0.00826403       0.00440580
C       11.70694568       5.52913925       1.47134241      -0.00071929       0.00875997      -0.00093412
C       10.21189223       9.05992155       0.61931516       0.00043494       0.01080306       0.00764698
C       12.18473983       4.37277227       0.60122646      -0.00229485       0.00995487      -0.00320959
C        9.61880417      10.20192185       1.45239370       0.00064956       0.00748912       0.01174539
H       10.48514647       6.40647253      -0.06225438      -0.00228965       0.01154063       0.00179259
H       12.10308603       7.06386238       0.03381648      -0.00210962       0.01097958       0.00134762
H       11.51856097       8.26817646       2.13721153      -0.00017875       0.00597112       0.00528516
H        9.92288314       7.55283763       2.11891271      -0.00065225       0.00716277       0.00353579
H       12.51215260       5.83220799       2.14832999       0.00053728       0.00755894      -0.00194964
H       10.88227367       5.19591606       2.11124753       0.00012505       0.00863995       0.00007242
H       11.00958629       9.44768777      -0.01902191       0.00116801       0.01247934       0.00954658
H        9.43642982       8.68542237      -0.05656293       0.00076368       0.01318206       0.00592640
H       11.37791898       3.99500724      -0.03143928      -0.00321963       0.01024876      -0.00217146
H       12.55780706       3.54196995       1.20256458      -0.00038219       0.00959937      -0.00491048
H       12.99624317       4.68913225      -0.05752729      -0.00361888       0.01141992      -0.00405748
H        8.95406372       9.82883120       2.23513150      -0.00522907       0.00475876       0.00536776
H       10.41746088      10.79141323       1.94461984       0.00049203       0.00013101       0.02001258
H        9.01332359      10.84112043       0.78779165       0.00709543       0.01466033       0.01313694
C        9.34021824       1.72102645       3.38608168       0.01082122      -0.01656802       0.00142603
C       10.86807063       1.64943809       3.35155526       0.01040193      -0.00660539      -0.01074940
C        8.84688376       2.83048912       4.32468864       0.00700217      -0.00841019      -0.01297686
C       11.44316425       0.52849016       2.48635880       0.01507761      -0.01073933      -0.00391192
C        7.33330904       2.95550960       4.42002316       0.00600317      -0.01676036      -0.01534959
C       12.96166687       0.49820698       2.46534822       0.01550418       0.00394176      -0.00031174
H        8.92739734       1.90275895       2.37080683       0.00121100      -0.03062902       0.00282070
H        8.92411467       0.76847072       3.77138320       0.02101597      -0.01336475       0.01921830
H       11.24174465       1.47929962       4.36261064       0.01707184       0.00590110      -0.01153198
H       11.26048083       2.60678416       2.99636369      -0.00030997      -0.00707701      -0.02276225
H        9.26533875       2.63109938       5.31484480       0.01007880       0.00654207      -0.01138249
H        9.27954043       3.78016449       3.99619258       0.00113919      -0.01078004      -0.02671619
H       11.11976312      -0.45220616       2.90989816       0.02290419      -0.01048949       0.00322793
H       11.07134542       0.62072465       1.43272926       0.01722363      -0.02073130      -0.00582085
H        6.88105195       3.16730328       3.44888058       0.00589900      -0.02591589      -0.01743026
H        7.05208322       3.76330862       5.09857118       0.00060814      -0.01337612      -0.02212757
H        6.88387257       2.03791019       4.80660462       0.01036285      -0.01615387      -0.00891755
H       13.35119941       1.45788344       2.12474969       0.00754089       0.00371328      -0.00943480
H       13.31341043       0.28975678       3.47348851       0.01585935       0.01961076       0.00234681
H       13.33344946      -0.28723614       1.80802127       0.02609021       0.00090782       0.00998877
C        2.51278588       2.68524969       3.12712564      -0.00229043       0.00095656       0.00287539
C        3.36551015       3.64339155       2.30511549      -0.00219697       0.00008112       0.00208729
C        3.32909749       1.68311836       3.93481828      -0.00260425       0.00355667       0.00624606
C        2.54433195       4.66078893       1.52105801      -0.00237495      -0.00212449      -0.00049374
C        2.46805537       0.69806954       4.71416983      -0.00301227       0.00260288       0.00472343
C        3.40062294       5.55013100       0.63154048      -0.00232846      -0.00319570      -0.00148422
H        1.86643143       3.25547902       3.80363625      -0.00411601       0.00161837       0.00055826
H        1.83992816       2.13904945       2.45752091      -0.00042057      -0.00121959       0.00288847
H        3.98706704       3.06696921       1.60866828      -0.00138524      -0.00072643       0.00355563
H        4.06409850       4.17279238       2.96468326      -0.00313309       0.00173804       0.00173447
H        3.98780760       1.14214509       3.24627154       0.00029741       0.00397992       0.00887048
H        3.98863956       2.22983315       4.61843424      -0.00543037       0.00552143       0.00736004
H        1.80578025       4.13049253       0.91053760      -0.00132424      -0.00397791      -0.00009812
H        1.97199100       5.27782056       2.22184654      -0.00353615      -0.00127205      -0.00220972
H        1.76528095       1.21421407       5.36896791      -0.00934573       0.00150855      -0.00119823
H        3.07001814       0.04253460       5.34503849      -0.00390506       0.00728378       0.01025572
H        1.87997457       0.06249489       4.05133948       0.00378110      -0.00211561       0.00324434
H        4.14691765       6.08772244       1.21908496      -0.00371815      -0.00099306      -0.00184454
H        3.93357363       4.95664287      -0.11427714      -0.00076058      -0.00434645       0.00058991
H        2.80399646       6.29443889       0.10233810      -0.00259426      -0.00520012      -0.00395048
C        3.93644483       7.23937817       7.19588662      -0.00183797      -0.00503860       0.00293246
C        5.44827004       7.39930467       7.11507503      -0.00176254      -0.00671283       0.00166112
C        3.41381998       6.93359079       8.59320921      -0.00128400      -0.00169642       0.00383407
C        5.93553774       7.66217419       5.69557623      -0.00254145      -0.01160508       0.00063133
C        1.89842958       6.79004220       8.62711663      -0.00148666       0.00148132       0.00538921
C        7.44572999       7.80123246       5.59242618      -0.00280601      -0.01061922      -0.00067185
H        3.45559126       8.15056048       6.82295393      -0.00114891      -0.00539678       0.00125949
H        3.62472974       6.43894602       6.51454638      -0.00302619      -0.00615510       0.00479916
H        5.93230861       6.49514457       7.50488692      -0.00227609      -0.00569281       0.00438137
H        5.76693579       8.21923541       7.76852664      -0.00075103      -0.00474319      -0.00117576
H        3.88300950       6.01550348       8.96176044      -0.00292048      -0.00202376       0.00490122
H        3.72526292       7.72902458       9.27815381       0.00089370      -0.00124624       0.00229590
H        5.59516261       6.84688956       5.04685133      -0.00216200      -0.01417443       0.00376377
H        5.46691161       8.57152008       5.30958839      -0.00332291      -0.01341331      -0.00252200
H        1.41056179       7.71182530       8.30531878       0.00017735       0.00229141       0.00522222
H        1.53298490       6.55276020       9.62725056      -0.00095936       0.00288977       0.00584641
H        1.56796302       5.99593419       7.95368988      -0.00380784       0.00183624       0.00614795
H        7.79611614       8.67378229       6.14714895      -0.00333280      -0.00859395      -0.00334749
H        7.95433749       6.92118835       5.99231583      -0.00171527      -0.00891362       0.00165056
H        7.75739403       7.93721697       4.55726432      -0.00339752      -0.01331490      -0.00111687
