199
Lattice="12.507272034756664 0.0 0.0 0.0 12.507272034756664 0.0 0.0 0.0 12.507272034756664" Properties=species:S:1:pos:R:3:forces:R:3 energy=-451454.59375 stress="0.0015458459965884686 9.968779704649933e-05 0.0005008392909076065 9.968779704649933e-05 0.0020170120988041162 -0.001268223742954433 0.0005008392909076065 -0.001268223742954433 0.0004877151222899556" pbc="T T T"
Sm      13.02273063      11.87172504      -1.04247383       0.00501074       0.00172520       0.00116335
B        2.19618209      11.95023476       5.81969642      -0.00266342       0.00717675       0.00037464
F        2.54660094      12.24337145       7.13784173      -0.00194769       0.00368975       0.00139344
F        2.61489649      10.64338060       5.50789542       0.00225411       0.00819737      -0.00272663
F        0.81139373      12.03279726       5.63605235      -0.00305682       0.00109152       0.00240275
F        2.84600307      12.85387618       4.96988298      -0.00660449       0.01021406       0.00251999
B        9.20567470      11.19815687       8.05574107      -0.00683971      -0.01284140       0.00484268
F        8.83621290      12.34953475       8.80543838      -0.00882566      -0.01061666      -0.00049394
F        8.15158657      10.76433162       7.28029288      -0.00707638      -0.02042386       0.00889283
F       10.32360015      11.50577382       7.28834413      -0.00928450      -0.01335098       0.00035447
F        9.55584487      10.18474198       8.98923321      -0.00195837      -0.00723228       0.00912002
B        9.81091407      12.33169681       3.80411979       0.00217892       0.00538522      -0.00629605
F       10.39406534      12.98281599       2.71097453      -0.03356305       0.00853810      -0.01964629
F       10.65444823      11.36500477       4.31020741       0.02454275       0.01580679      -0.02537078
F        9.46734817      13.27591964       4.78029047       0.01611796       0.00289714       0.00064337
F        8.59752807      11.71503713       3.35072579      -0.00201857      -0.00839913       0.02760819
O        0.84332181       1.64602957      10.45166229      -0.01912970       0.00347024       0.00458325
H        0.11373990       2.25722056      10.26652723       0.00913116      -0.00771933       0.00414007
H        1.64365741       2.01098499      10.03778701       0.01200564       0.00976160       0.00691594
O        6.67826702      13.15653064       4.51024935       0.00603360       0.02311956       0.00229196
H        7.28972422      12.50388364       4.11472111       0.02500944       0.02899975       0.02255817
H        7.28234726      13.70065253       5.03255293      -0.02077945       0.04422355       0.00662358
O        1.26635242       8.88895179       7.10060966       0.00360782       0.00813976       0.00078741
H        1.64590391       9.23939499       7.94154875       0.00125114       0.00771181       0.00076992
H        1.76567428       9.37856520       6.42564454       0.00341665       0.01079261       0.00069989
O        5.34419008      11.59812496       6.26002154       0.00308999       0.00365466      -0.01844846
H        5.72404782      12.22557234       5.60220083       0.00253303       0.00934368      -0.01146876
H        4.45256328      11.91930273       6.44120916      -0.00127915       0.00069132      -0.01984924
O       12.04943960       5.48611232       5.62132448       0.00022052      -0.01154262       0.00978177
H       11.53014374       5.85587903       6.35747152       0.00333978      -0.01420432       0.00742204
H       11.90508404       6.10398614       4.89696275      -0.01228756      -0.01244359       0.00348890
O        5.51680107       7.35661246       1.44400038      -0.00571640       0.01025067      -0.01215786
H        5.18279726       7.70019436       0.60491617       0.00221354       0.01704955      -0.00619939
H        5.84651664       6.46183822       1.25939122      -0.00945198       0.00503340      -0.01782075
O        4.70105400      10.07133306       0.63552702       0.00590940      -0.00075334      -0.00244265
H        5.36758687      10.77039307       0.78448238       0.00592449       0.00094608      -0.00175856
H        4.43974787       9.77882925       1.52931073       0.00288001       0.00334037      -0.00336917
O        6.22876888       1.93157788       2.07841955      -0.00203498      -0.00131376      -0.00671706
H        6.64974271       2.81006398       2.04749958       0.00199167      -0.00128855      -0.01171874
H        6.34010473       1.60887611       2.99625831      -0.00003554       0.00062305      -0.00791228
O        7.33037135       9.19524092       2.53344707       0.00905011      -0.01845331      -0.00127232
H        6.72871873       8.59907688       2.05032410       0.00105871      -0.00768655      -0.00437494
H        6.84058062       9.39659019       3.35072039       0.00857154      -0.00992450      -0.00359359
O        4.62979037       2.33065445       7.27907861      -0.00982560       0.00288399       0.01498284
H        5.28332244       1.72550698       7.67307546      -0.01147572      -0.01011342       0.01445084
H        5.11995720       2.91385016       6.66474524      -0.00634251      -0.00389590       0.02146029
O        7.62279279       4.21460409       9.78284829       0.02988823       0.02454072      -0.01916867
H        8.36103497       4.67743293      10.19493324      -0.02427819       0.00030808      -0.02951285
H        6.96048749       4.08613219      10.48388349      -0.01367673       0.00305560      -0.00197721
O        2.10956981      10.28786937       0.09076576       0.00562234       0.00515354      -0.00512251
H        3.09447630      10.35712034       0.14914263       0.00481905       0.00449611      -0.00258487
H        1.88780365       9.47263043       0.57736159       0.00353521       0.00055116      -0.01277631
O        8.14973806       7.69121241      11.82366451      -0.00321657      -0.00524682      -0.00939217
H        8.40176378       7.45602150      12.74067390      -0.00185242      -0.00986280      -0.00817912
H        7.99297355       8.65618784      11.79289403      -0.00040469      -0.00619680      -0.00613999
O        2.39446876      10.21150133       9.18374185      -0.00504220       0.01081729       0.00135602
H        2.19454800      11.06414830       8.77061553       0.00193036       0.00451647       0.00329898
H        3.35218244      10.25634472       9.36311958       0.00175010       0.00578262       0.00586746
O       12.29533842       2.82469306       4.72640041       0.00902684      -0.00463360       0.00618677
H       12.05072815       3.67551570       5.14041465       0.00903654      -0.00282689       0.00180648
H       12.70236616       3.11533932       3.90030750       0.00879587      -0.01017051       0.00420462
O        8.74740970       3.38413207       5.47204961      -0.00545084      -0.01155508       0.00831100
H        9.22245599       2.77047501       4.89544743      -0.00084174      -0.01028207       0.00870689
H        9.07825927       3.13562703       6.36646519      -0.00545532      -0.00880115       0.00812157
O        5.12215958       6.05324801       3.93040294       0.00141464      -0.02271090      -0.02339879
H        4.19513223       5.80048143       4.14104469       0.00076678      -0.01738694      -0.01315252
H        5.06509830       6.76732884       3.28053690       0.00001616      -0.00662205      -0.00108784
O       11.22031703       1.00606810      -0.65365307      -0.00242281      -0.00594795       0.00220114
H       10.45466629       0.46344655      -0.43241961       0.00915582       0.00337209       0.00909121
H       11.35630622       1.62854912       0.08846224       0.00783496       0.00331661       0.00715944
O       10.48141008      11.00187406      11.37213208       0.00573972      -0.00047702       0.00605955
H       10.22793558      10.67885389      10.49130851       0.00335591      -0.00279051       0.00953116
H       10.35889675      10.25340835      11.97663231      -0.00046394       0.00231043       0.01242002
O        0.80005286       4.61373227       2.63159013       0.00174025      -0.00073868      -0.00374684
H        1.40777726       4.66340827       1.86474823       0.00240821       0.00040371      -0.00185706
H        1.37385711       4.88709063       3.39135762       0.00257940      -0.00118469      -0.00139295
O        1.20122883       4.27907149       8.23767810       0.00183865       0.01230237       0.00645808
H        1.35883656       3.67850159       7.47614837       0.00944518       0.01330030       0.00744259
H        1.92965589       4.03197895       8.84783531       0.00005510       0.01451958       0.01234355
O        4.89990289      11.05135351      10.09421808      -0.00044206      -0.00560708       0.00087777
H        5.37952176      11.70123157       9.52581851      -0.00090068      -0.00944006      -0.00343738
H        5.59682086      10.60934921      10.60966188       0.00083986      -0.00543130       0.00153377
O        1.48315431       0.76882922       0.65790890       0.01060999       0.00129482       0.00022534
H        0.85676581       1.35000663       1.13334616       0.00893413      -0.00248719       0.00353668
H        2.17018669       0.46473451       1.30339167       0.00718737      -0.00419984       0.00104017
O        5.41608666       9.30986015       4.69133530       0.00218508      -0.00450947      -0.00735836
H        5.79828015       8.62107343       5.27300160       0.00717834       0.00190155      -0.00222544
H        5.31997068      10.08776423       5.28002474       0.00276415       0.00038565      -0.01416320
O       11.38126009       3.78428658       9.51215006       0.00440501      -0.00898367       0.00069460
H       12.18666100       4.05640944       9.00889882       0.00311447      -0.00335920       0.00132470
H       11.01206586       4.58655769       9.90392772       0.00265577      -0.00964819       0.00598009
O        2.81668583       5.09595904      13.33580922       0.00683860       0.00138910       0.00494468
H        3.34610051       4.47896515      13.90192134       0.00365097      -0.00080289       0.00195720
H        3.03781717       4.86377092      12.42713522       0.01031758       0.00097317      -0.00030130
O        2.42523107       6.39341052       7.00313086       0.00357935       0.00902112      -0.00383867
H        1.84626279       5.70324635       7.39186721       0.00440103       0.01063976      -0.00044685
H        1.92379712       7.23168086       7.02765295       0.00482813       0.00946137      -0.00251956
O        2.82491632      12.41579172      10.95641126       0.00537017       0.00075117      -0.00415671
H        3.07825104      13.23768285      11.38778332       0.00679208       0.00693358       0.00613429
H        3.65420809      11.91479392      10.74296167       0.00225636       0.00458250       0.00163144
O        3.85015323       3.29308272       2.51898452      -0.00146070      -0.00850661      -0.00140077
H        4.13046266       3.66489565       3.36329279       0.00271861      -0.01177188      -0.00282048
H        4.57499033       2.67981587       2.27955924       0.00074834      -0.00590597      -0.00741813
O        0.26565720       9.43323717      10.94891853       0.00562078       0.00037181      -0.00193249
H        1.20618780       9.27618461      11.11321086       0.01054838       0.00270996      -0.02727917
H        0.04821256       8.74961336      10.28144468      -0.00923526      -0.00047178       0.00576852
O        3.34344398       9.43041573       2.97042129      -0.00049052       0.00206271      -0.00359404
H        2.91382082       8.61571936       2.65528496      -0.00181609       0.00423263      -0.00941169
H        3.98270271       9.22198460       3.69238861       0.00065948      -0.00344183      -0.00624667
O        5.98799811       3.73027324       5.24582517      -0.00297179      -0.00766306       0.02008107
H        6.95439820       3.61147184       5.32084772      -0.00223450      -0.00464830       0.01315702
H        5.86475985       4.67643077       5.08170565      -0.00513620      -0.00890298       0.00991133
O        6.15768995      12.80267324       8.47484707      -0.00904900      -0.01222495      -0.00784427
H        6.05400194      12.24006674       7.66957715      -0.00687440      -0.00586950      -0.00923724
H        7.10572237      12.79248867       8.66989891      -0.00497426      -0.01127747      -0.00704607
O        0.80634362      10.50639343       3.28261118      -0.00049117      -0.00384545       0.00421515
H        0.58879172      11.08874182       4.02634098      -0.00539392      -0.00162861       0.00335616
H        1.74633840      10.25037359       3.37237449      -0.00194423      -0.00167250       0.00794794
O        9.90601620       9.63663601       1.49265248       0.00026028       0.00725529      -0.00459153
H       10.39090164       9.20688115       2.22371517       0.00058652       0.00659331      -0.00321305
H        9.00248377       9.71292872       1.85049535      -0.00030803      -0.00053744      -0.00816504
O        9.99629894       6.43034095      10.18462165      -0.00544646      -0.00917636      -0.00106293
H        9.37881066       6.93841462      10.75680616      -0.00599526      -0.00481724      -0.00193588
H       10.89036770       6.74087814      10.39862757      -0.00546444      -0.01089188      -0.00001374
O        2.61624564       5.18278414       4.59826050       0.00429193      -0.00018931       0.00033643
H        2.58294032       4.29947990       5.04014191       0.00276941       0.00239836       0.00435861
H        2.47016244       5.77360292       5.37990620       0.00544899       0.00396889      -0.00228009
O        0.15591514       7.11402585       9.58175329      -0.00995125      -0.00454064       0.00290832
H        1.09691754       6.85552431       9.69739798      -0.00556310      -0.00116472       0.00537759
H       -0.08270179       6.92199319       8.66594626      -0.00716389      -0.00887855       0.00780743
O        5.96847380       6.12119603       8.55813255      -0.01058437       0.00745508      -0.01231742
H        6.31403083       6.69648814       7.85070874      -0.00909548       0.00815937      -0.00891235
H        6.64236251       5.44182766       8.74637533      -0.01040749       0.00538631      -0.01319854
O        9.84073657       2.45573787       7.78119720      -0.00566113      -0.00312526       0.00831813
H        9.36208038       1.75571505       8.24099384      -0.00737791      -0.00510204       0.01091295
H       10.25738126       3.01685948       8.48042587      -0.00294152      -0.00617840       0.00558033
O        5.59034576       6.86399555      11.04051382      -0.00212702      -0.00243178      -0.00805281
H        6.46184229       7.17836875      11.36030645      -0.00068326      -0.00479315      -0.00801101
H        5.74285092       6.70813891      10.06616099      -0.00463494       0.00159143      -0.00885878
O       -0.19051915       1.32514068       7.49782554      -0.00954039       0.00016411       0.00231957
H       -0.06013632       0.88108358       6.64959304      -0.00693288       0.00053842      -0.00360972
H       -1.10496649       1.67662491       7.46267250      -0.00704835      -0.00321041       0.00158824
O        8.81320150       6.26609443       5.32178808       0.00154148      -0.00567551       0.01411720
H        8.78105976       5.29689260       5.23986346      -0.00419666      -0.00780243       0.00904348
H        9.42081620       6.41153364       6.07053222      -0.00075562      -0.01200160       0.01327509
O       11.94813452       2.33013281       1.61058001       0.01858597       0.01390368       0.00080886
H       12.23622969       3.18401485       1.96760214       0.00298056      -0.01505829       0.00163215
H       11.43592008       1.86984699       2.29601510      -0.00805646      -0.00717822       0.00755972
O        3.26692649       3.01763166       9.55876799      -0.00422600       0.00797863       0.01700947
H        3.78744127       2.82084550       8.74438274      -0.00510472       0.00542242       0.02116096
H        3.89272884       3.43128377      10.17066129       0.00070553       0.00535690       0.02117328
O        2.16986441       2.96372421       6.03314982      -0.00415716       0.01147032       0.01212161
H        2.82163408       2.27828352       6.24120570       0.00488546       0.00842243       0.02250005
H        1.39470235       2.56406842       5.58950141       0.00570134       0.00669455       0.01533432
O        6.69800537       4.73297922       1.90945275      -0.00673127      -0.00010790      -0.01608834
H        6.21242505       4.98205947       2.71931385      -0.01438481       0.00489298      -0.02171426
H        7.53894721       5.23573563       1.94101203      -0.00841957       0.00091064      -0.01241242
O       11.56976164       6.57066200       1.84841838       0.00403236       0.00339773      -0.00289878
H       12.09076336       5.81218620       2.18315227       0.00176243       0.00367952      -0.00328433
H       11.55179962       7.22059925       2.58790862       0.00130162       0.00281557      -0.00072163
O       12.07361934      11.17375076       1.00529012       0.00689194       0.00779259       0.00550839
H       12.62135932      11.06116575       1.81169443       0.00632143       0.00018335       0.00510247
H       11.18754594      10.82594249       1.24142722       0.00524374       0.01202939       0.00407683
O        1.79173754       7.70089689       1.39173625       0.00446455       0.00293994      -0.00693894
H        0.85967125       7.42342749       1.44981998       0.00263004       0.00365923      -0.00509099
H        2.26560549       6.88456745       1.14389714       0.00336004       0.00270337      -0.00300636
O        8.80551162       6.55212800       1.80317627      -0.00089520       0.00597368      -0.01324558
H        9.78505525       6.44305096       1.79458983      -0.00343886       0.00817189      -0.00533327
H        8.62688464       7.17400245       2.52225159      -0.00864875       0.02192310      -0.02442110
O       10.51098378       6.85947097       7.49850584       0.00245152      -0.00903703       0.00535244
H       10.14506506       6.79417469       8.40452063      -0.00033311      -0.00639780       0.00365957
H       10.59778235       7.80548772       7.25042903       0.00413605      -0.00884699       0.00214604
O        5.32218616       4.23585862      -0.92457511      -0.00843032       0.00145169      -0.01502493
H        5.59741332       4.08648950      -0.01080973      -0.00198217      -0.00284692      -0.00933964
H        5.39508497       5.21670421      -1.04818713      -0.00521468      -0.00365385      -0.01145364
O       11.49071174       8.53219954       3.59993097      -0.00815894       0.00310122      -0.00165108
H       11.21129294       8.69270469       4.52659708      -0.00623526      -0.00153586      -0.00100188
H       12.20990887       9.19060935       3.46811956      -0.00549689       0.00134666       0.00140154
O        6.90783614       7.80987433       6.49676610       0.00319237       0.00515699      -0.00584088
H        7.41956580       8.56884656       6.80419595       0.00295591       0.00547594      -0.00340689
H        7.53942378       7.23608686       6.00043091       0.00460497       0.00208382       0.00061340
O        6.80168627      11.88710199       1.01635944       0.01125671      -0.00301719       0.00395864
H        7.33645575      11.54159465       1.74484713       0.00660448       0.00027874       0.00857158
H        6.63151339      12.82533358       1.23384273       0.00826315      -0.00245944       0.00013657
O        3.43261974      12.45045262       2.27841939       0.00248098      -0.02436578      -0.00228134
H        3.29650374      12.74547123       3.19030435       0.00044381       0.00153670       0.01111536
H        3.42708296      11.48610251       2.33530849      -0.00866958      -0.00090058       0.01458455
O        2.84678375       6.45266017       9.85117860      -0.00102603       0.01349681       0.00444289
H        3.58227209       6.82813707      10.35250256      -0.00352585       0.00447013       0.00317338
H        3.15581591       6.40816924       8.93012654       0.00172955       0.01099212       0.00047390
O       12.44756152      11.86118324       9.16994257      -0.00273389       0.00343788       0.00330123
H       12.40665293      12.67599108       8.56516907      -0.00495960       0.00019878       0.00037478
H       11.93377831      11.19250933       8.70356959      -0.00083492      -0.00271805       0.00267543
O       11.19314370       9.11818108       6.25260212       0.00120693      -0.00661281       0.00417267
H       12.11976348       9.14170285       6.58242295       0.00347713      -0.00548256       0.00139728
H       10.86828382      10.03171572       6.29157486      -0.00100701      -0.00932182       0.01348545
O        7.39039350      10.35091047      11.34414372       0.00359225      -0.00439978      -0.00211787
H        7.30337693      10.99081704      12.08229038       0.00802002      -0.00405957       0.00086862
H        8.04251344      10.73486821      10.74720731      -0.00121498      -0.00661908      -0.00369173
