187
Lattice="13.71219705231402 0.0 0.0 0.0 13.71219705231402 0.0 0.0 0.0 13.71219705231402" Properties=species:S:1:pos:R:3:forces:R:3 energy=-457110.59375 stress="-0.0014771210262551904 -0.0003399302513571456 -0.00016290590428980067 -0.0003399302513571456 -0.0015505084302276373 3.392489998077508e-05 -0.00016290590428980067 3.392489998077508e-05 -0.0007347159553319216" pbc="T T T"
Sm      17.08896058      11.48322311       3.08837293      -0.00218556      -0.00558008      -0.00072300
P        5.33546042      12.86624375       4.97603572       0.00056374      -0.00531459      -0.00630326
O        4.82051404      13.21781323       6.39744766       0.00397986      -0.00290480      -0.00808149
O        5.13647359      11.20155911       4.86988416      -0.00458510      -0.00355238      -0.00622809
O        4.28292183      13.23148170       3.89867902       0.00415255      -0.00487125      -0.00786327
O        6.72481390      13.24213621       4.71379380       0.00483128      -0.00824260      -0.00602326
H        3.81318940      13.11314413       6.49097665       0.00391321      -0.00764063      -0.00658895
H        5.02418096      10.80881666       5.74154951       0.03877231      -0.01155566      -0.00571495
P        3.68317479       9.94969065       0.71773582       0.00185744      -0.01054458       0.00057054
O        5.03892439       9.56661736       0.01192157       0.00252898      -0.00502142       0.00205052
O        2.59857653       9.28778601      -0.21593111       0.00450736      -0.01149666       0.00484455
O        3.70474757       9.42775813       2.15453272       0.00418297      -0.00696842       0.00265165
O        3.35248693      11.42866975       0.79466046      -0.00205803      -0.00991701       0.00013798
H        5.72991896       9.46031495       0.69455848       0.00309059       0.00085044       0.00374523
H        2.79646166       8.38624022      -0.48784982       0.01968902      -0.00620264      -0.01715441
P        1.37456708      12.03556276       5.68151564       0.00381666      -0.00071742      -0.00633299
O        2.23179582      10.70675688       5.09639098      -0.01689258      -0.00945640      -0.01351702
O        1.30368323      12.73286224       4.17009874       0.00093675       0.00008532      -0.00475829
O        0.04878010      11.59332767       6.11706660      -0.01164109       0.00510045      -0.00599831
O        2.31225355      12.83776532       6.49544969       0.00061791      -0.01631378      -0.00752256
H        1.94381410       9.89215889       5.52296669       0.00875080      -0.00531965       0.00828671
H        0.37184489      12.86882357       3.95169821       0.00201696      -0.00583725      -0.00987407
O        4.04484463       2.03531340      11.03685133      -0.00342095      -0.00181714       0.00766281
O        1.93098484       1.65043784      11.30258374      -0.00353847      -0.00073753       0.00848101
O        3.39007850      -0.04883762      11.63919397      -0.00515497      -0.00437212      -0.00668484
C        5.41376034       1.57065321      10.98681250      -0.00410083      -0.00351220       0.00559163
C        6.28797538       2.79026610      10.86569765      -0.00324263      -0.00503916      -0.00119886
C        3.15096922       1.09525522      11.35039442      -0.00386383      -0.00365925       0.00237924
C        0.86649733       0.73844319      11.61980965      -0.00357687      -0.00100641       0.00682125
H        5.62405793       0.99611174      11.88992193      -0.00264784       0.00028801       0.00763407
H        5.52007143       0.90054131      10.13211145      -0.00675671      -0.00729123       0.00853464
H        7.33468528       2.49631383      10.78271469      -0.00362316      -0.00657412       0.00097745
H        6.02623406       3.36283998       9.97768180      -0.00222772      -0.00983587      -0.00460908
H        6.17872937       3.43712289      11.73666636      -0.00262825      -0.00019249      -0.00487246
H        0.82080640      -0.06484138      10.88519002      -0.00317449      -0.00015593       0.00622118
H       -0.04170676       1.33303942      11.58889309      -0.00339043      -0.00090975       0.00702548
H        1.02059108       0.31210998      12.61064294      -0.00388053      -0.00183909       0.00644380
O        9.75745826      11.78873296       6.74558695      -0.01654580       0.00424617      -0.00583863
O       10.88492402      10.45563141       5.50526144      -0.02095547      -0.00250198      -0.00372235
O       10.77115061      12.64610007       4.90286239      -0.00418362       0.00000131      -0.00212604
C        9.08327112      13.05503679       7.00308935       0.00399768       0.01401728       0.00149035
C        8.64084555      13.02056617       8.44157277       0.00210597       0.01274178      -0.00077564
C       10.49505611      11.73830358       5.64646606      -0.01397902      -0.00116545      -0.00188005
C       11.73090330      10.18489989       4.39518366      -0.01877281      -0.00641187      -0.00125548
H        9.77005400      13.86907860       6.78617770       0.01886895       0.00206164       0.00747329
H        8.23979532      13.11510304       6.31562497       0.00755674       0.03259128      -0.00031981
H        7.99677031      13.87724470       8.64439330       0.03473234       0.03400283       0.00869658
H        8.05922468      12.12155256       8.64215393      -0.03169158       0.03312857      -0.00985156
H        9.49184426      13.04264215       9.12262773       0.00255275      -0.02582009      -0.00125189
H       11.13815103       9.78046896       3.57231028      -0.01920323       0.00431758      -0.00601423
H       12.45664165       9.45287621       4.73822515      -0.02841781      -0.01655225      -0.00193161
H       12.23856982      11.09009614       4.07788295      -0.00714269      -0.01025704       0.00638638
O        0.26514173       7.96121650       1.32235190      -0.01041596      -0.00168899       0.00458650
O        0.42860313       5.94488093       0.54198766      -0.00833784      -0.00565547      -0.00441877
O        1.26211488       6.38179875       2.60288140       0.01958233      -0.00072145      -0.01536095
C        0.57906821       8.90356171       2.36538142      -0.00027172      -0.00662643       0.00303262
C        0.33104294      10.29665989       1.83244930      -0.00070712      -0.00613347       0.00007346
C        0.70700736       6.72167160       1.59258904       0.00518876      -0.00321162       0.00108325
C        0.82566918       4.56781074       0.71193185       0.00019880      -0.00030808      -0.00678253
H       -0.03994194       8.67870426       3.23487730       0.00337139      -0.00091138       0.00501028
H        1.61823938       8.75780032       2.65338488      -0.00094932      -0.00669270      -0.00358745
H        0.79671734      11.03928411       2.49806854       0.00028815      -0.00457496      -0.00005864
H        0.74221984      10.40993087       0.83252214      -0.00097785      -0.00670003      -0.00011322
H       -0.73003840      10.54081869       1.80229380      -0.00080442      -0.00478876       0.00094461
H        1.90951273       4.48299401       0.64145228      -0.00005969       0.00500418      -0.00927059
H        0.33992889       4.02419303      -0.09218454       0.00144933      -0.00010990      -0.00893505
H        0.50085229       4.20115003       1.68222721       0.00358738      -0.00578745      -0.00891814
O       11.96438035       4.85370408       3.37405477       0.00386161      -0.00487244      -0.00239879
O       12.68489242       3.11014814       4.40842112       0.00508465      -0.00387281      -0.00155520
O       11.81179080       2.84802538       2.33078172      -0.00065348      -0.00699723       0.00013351
C       11.21652213       5.46590072       2.30858211      -0.00055721      -0.00654018       0.00021231
C       10.99154266       6.89629108       2.72703215      -0.00059407      -0.00640351      -0.00108901
C       12.11870207       3.53451102       3.27394598       0.00330442      -0.00380927       0.00116605
C       12.93425466       1.69918551       4.46400608       0.00351797      -0.00376686       0.00054653
H       11.78900212       5.39589475       1.38214258      -0.00413290      -0.00727382      -0.00199392
H       10.28133108       4.91847453       2.17866674      -0.00079447      -0.00748375       0.00453635
H       10.56379767       7.46823307       1.90305970      -0.00558210      -0.00858545       0.00029708
H       10.32867029       6.94845325       3.59139573       0.00365877      -0.00624464       0.00211415
H       11.94020055       7.35686355       2.99692264      -0.00011750      -0.00432830      -0.00698842
H       12.00226902       1.13649914       4.45819084       0.00261867      -0.00214916       0.01179994
H       13.45890979       1.53731032       5.40208309       0.01305991      -0.00175685      -0.00469851
H       13.55987959       1.40845737       3.61961379      -0.00581196      -0.00760392      -0.00495967
O        3.02300905       5.58771692       4.87703536      -0.00427348      -0.00481816       0.00510567
O        2.58059668       3.60215908       4.13551061       0.00009235      -0.00457488       0.00114263
O        4.25692317       3.85164859       5.63466287      -0.00381535      -0.00352919       0.00385743
C        3.84604400       6.46054934       5.66180200      -0.00769752      -0.00525498       0.00860365
C        3.34892382       7.86051079       5.41478127      -0.00873499      -0.00547406       0.00891402
C        3.36934975       4.30037618       4.94988856      -0.00118774      -0.00483400       0.00460690
C        2.91020796       2.20569400       4.08852059       0.00209433      -0.00354231      -0.00056793
H        3.77365963       6.18104553       6.71381097      -0.01035553      -0.00682703       0.00792089
H        4.88779887       6.34206726       5.35383564      -0.00673476      -0.00346794       0.01153356
H        3.91396612       8.56314702       6.03083961      -0.01229962      -0.00566953       0.01252306
H        3.45923570       8.13292945       4.36447250      -0.00510763      -0.00380009       0.00996476
H        2.29122298       7.91345655       5.68668500      -0.00988767      -0.00766448       0.00444963
H        3.95922675       2.07324092       3.83799124       0.00223696      -0.00182056       0.00010649
H        2.27863974       1.78437978       3.31192749       0.00343487      -0.00311507      -0.00217184
H        2.70756787       1.72679365       5.04525763       0.00143421      -0.00550666      -0.00193545
O        9.32326654       3.31573811       4.45609663       0.00213124       0.00618976      -0.00222394
O       10.31770841       4.60943458       5.85719907       0.00085707       0.00589167      -0.00077219
O       10.31673957       2.38408086       6.26728865      -0.00041765       0.00639403      -0.00130707
C        8.93838121       1.99122804       3.99333193       0.00215220       0.00640503      -0.00218129
C        8.11703103       2.20247719       2.75111079       0.01248452       0.00588289      -0.00883800
C       10.01609973       3.33841006       5.59156058       0.00102624       0.00559914      -0.00080001
C       11.16347612       4.78171248       7.00174455       0.00065672       0.00491969      -0.00040292
H        9.84492404       1.42362417       3.78818684       0.00194466       0.00322726       0.00624237
H        8.38032906       1.48198100       4.77694894      -0.00514367       0.00990185      -0.00528309
H        7.97939741       1.24709445       2.25171531       0.00898400       0.00440642      -0.00490119
H        7.13777443       2.61940015       2.98974335       0.01402572       0.01419194      -0.01800243
H        8.63484802       2.86808466       2.06052270       0.02206595      -0.00154869      -0.00863903
H       10.73993362       4.27551287       7.86762640       0.00027129       0.00460045      -0.00086585
H       11.20915163       5.84919600       7.16913964       0.00112755       0.00478014       0.00038953
H       12.15631928       4.39535801       6.78656022       0.00031999       0.00457051      -0.00024547
O       12.29390716       2.80144849       9.99567782       0.01981066       0.00182033       0.00522437
O       12.07088688       4.55255127      11.23606506       0.01704477       0.00144580       0.00531018
O       13.22824344       4.74837187       9.29847559      -0.00470161       0.00894737      -0.00599062
C       12.85393738       2.09372888       8.85386186       0.01396942       0.00404257       0.00069935
C       12.05709779       0.83150745       8.68593376       0.01299784       0.00452745       0.00153788
C       12.59971289       4.09348685      10.09281529       0.00968933       0.00437433       0.00000304
C       12.28014274       5.95696861      11.45933208       0.00168939       0.00405748      -0.00176199
H       12.78929017       2.73612756       7.97914881       0.01019355       0.00618699       0.00275505
H       13.90728586       1.90425327       9.06919614       0.01466286       0.00297295      -0.00409640
H       12.48687191       0.21904036       7.89141161       0.00847364       0.00722834      -0.00299549
H       12.05123813       0.23254245       9.59399510       0.01811529       0.00170223      -0.00044820
H       11.03341127       1.07608906       8.41008248       0.01118523       0.00494294       0.00852124
H       13.33190714       6.15578666      11.65481926       0.00194278       0.01909791      -0.02028351
H       11.68935026       6.20107599      12.33695408       0.01346363      -0.00228173       0.00750038
H       11.94816546       6.53827873      10.60317878      -0.02088951      -0.00286777       0.00286737
O       11.83114250       9.40300821      10.02256726      -0.00379755       0.00702776       0.00623548
O       11.78094337      10.29037789      11.99807731      -0.00277624       0.00403072       0.00737888
O       11.83835607      11.65658979      10.19592808      -0.01417891       0.00650513       0.00943023
C       11.78839675       9.54820071       8.57432812      -0.00568762       0.00799745       0.00648909
C       11.67426922       8.15979412       8.01101514      -0.00179558       0.00809228       0.00556263
C       11.81978055      10.55184913      10.67901645      -0.00765436       0.00608063       0.00738126
C       11.79678868      11.46905340      12.80633139      -0.00337197       0.00271592       0.00884409
H       10.93058654      10.16686398       8.31611352      -0.00782830       0.00537914       0.00770086
H       12.68916166      10.06766203       8.24426033      -0.00746983       0.01094523       0.00634502
H       11.60232901       8.21959241       6.92468814      -0.00248846       0.00868421       0.00561260
H       12.53336959       7.54154330       8.27523489       0.00011067       0.01050457       0.00489676
H       10.77147748       7.67559829       8.38583345       0.00004640       0.00531676       0.00574923
H       12.78445700      11.93155098      12.78222643      -0.00359941       0.00275851       0.01027349
H       11.55764816      11.14108705      13.81307379      -0.00344796       0.00047775       0.00791146
H       11.05974693      12.18842150      12.45398380      -0.00333500       0.00338569       0.01052035
O        6.82820804       9.58506274       2.14509464       0.00096583       0.00733066       0.00468491
O        6.00660819      11.58451065       2.02449650       0.00248116       0.00536767      -0.00780871
O        8.26719363      11.33820793       2.08811947       0.01663522       0.01168814      -0.00477929
C        7.95159108       8.65661976       2.14952658      -0.00299627       0.00482234       0.01214653
C        7.37406220       7.26665694       2.15568868      -0.00469780       0.00596458       0.01188318
C        7.15980218      10.89048717       2.11099359      -0.01765156      -0.00141469      -0.00233173
C        6.18268095      12.97216149       1.61006144       0.00007039       0.00356904      -0.01027319
H        8.55022416       8.85412725       1.25779190       0.00304383       0.00159813       0.01524413
H        8.56165524       8.86887401       3.02643030      -0.00629027       0.00527170       0.01504099
H        8.17860445       6.53481980       2.09005554      -0.00584467       0.00427058       0.02297665
H        6.81270789       7.07517555       3.06882440      -0.01344515       0.01066647       0.00764078
H        6.71053594       7.11636777       1.30372499       0.00200430       0.00439626       0.00712660
H        6.56243261      13.53425276       2.45461406      -0.00262827       0.00683284      -0.01082814
H        5.19168224      13.30633470       1.31619973       0.00139467       0.00230264      -0.01468679
H        6.86402248      13.00682820       0.76420526       0.00355293       0.00292207      -0.00822794
O        7.81141174       9.48231387       9.48156080       0.00353963      -0.00389229      -0.00655857
O        8.39844983      10.20991038      11.43083564       0.00176417      -0.00437364      -0.00588742
O        6.48254829      11.00284032      10.51607129       0.00517511      -0.00251609      -0.00879338
C        6.88947139       9.44449141       8.36708126       0.00302127      -0.00650576      -0.00588790
C        7.63150735       8.82584657       7.21009571       0.00385025      -0.00554644      -0.00574592
C        7.45755068      10.29952722      10.47448752       0.00209635      -0.00208735      -0.00742033
C        8.17551334      11.09914994      12.53113156       0.00010064      -0.00594220      -0.00515822
H        6.02058127       8.85786526       8.67494580       0.00473699      -0.00830451      -0.00498098
H        6.56542081      10.46461942       8.15087204       0.00042055      -0.00750709      -0.00606220
H        6.96782854       8.74446043       6.34600166       0.00336371      -0.00904137      -0.00509697
H        8.48567421       9.44138076       6.92854335       0.00157455      -0.00322796      -0.00728985
H        7.98466193       7.82628274       7.46550606       0.00697540      -0.00411962      -0.00517190
H        8.26457421      12.13573851      12.20235825       0.00128292      -0.00563064      -0.00321200
H        8.94218637      10.86910164      13.26378180      -0.00079708      -0.00773041      -0.00448593
H        7.17700286      10.94712851      12.94172642      -0.00022420      -0.00633351      -0.00666890
O        7.43853367       5.44638651       8.90824834      -0.00199837       0.00006715       0.00260134
O        7.88162309       6.03427551      10.93824780      -0.00456908       0.00287393       0.00323147
O        5.88059975       6.62606910      10.05564100      -0.00113571       0.00270247       0.00184055
C        6.49433229       5.29322533       7.81641638      -0.00234246       0.00062501       0.00117451
C        7.21625417       4.59185899       6.70342508      -0.00126481       0.00276285       0.00135046
C        6.95853716       6.09087224       9.96945041      -0.00201297       0.00140354       0.00211590
C        7.48530513       6.66776578      12.15783563      -0.00161785       0.01264079      -0.00095248
H        5.63403995       4.72545171       8.17418438      -0.00241214       0.00003472      -0.00000270
H        6.14230775       6.28436486       7.52687350      -0.00255841       0.00118059       0.00333416
H        6.51777442       4.37514792       5.89814638      -0.00120115       0.00218533       0.00184375
H        8.03491121       5.19892794       6.32351457      -0.00288510       0.00449310       0.00200759
H        7.62556981       3.64378617       7.05565682       0.00029416       0.00365916       0.00081564
H        7.32372243       7.73321961      11.99933247       0.00595379       0.01232800      -0.00296633
H        8.31115940       6.50418810      12.84503617      -0.00604452       0.00331641      -0.00089696
H        6.57042478       6.21438020      12.54139775      -0.00428265       0.01955457      -0.00377875
