191
Lattice="13.741207831055947 0.0 0.0 0.0 13.741207831055947 0.0 0.0 0.0 13.741207831055947" Properties=species:S:1:pos:R:3:forces:R:3 energy=-186701.046875 stress="1.4735107470187359e-05 7.272987204487436e-05 5.987182339595165e-05 7.272987204487436e-05 1.1422954230511095e-05 -0.0002643387852003798 5.987182339595165e-05 -0.0002643387852003798 7.85666488809511e-05" pbc="T T T"
Sr      16.26067447      14.03065666       2.75845816      -0.01475479       0.00424043      -0.02390277
B        2.27356259      12.53562532       5.07794587       0.00999805       0.00534971      -0.01787898
F        3.00204003      11.91310003       4.02028229       0.00868103       0.00049305      -0.01226329
F        2.11227375      11.76957492       6.16385021       0.00428737       0.01212037      -0.01490736
F        2.95794447      13.76125991       5.30750691       0.00955475      -0.00026741      -0.01379427
F        1.03041061      12.93629855       4.46318397       0.00967658       0.00222666      -0.01951178
B        3.02267824      13.31830984      -0.11444912       0.00148157       0.01548015      -0.01078078
F        2.43212580      13.28291651      -1.32882524      -0.00947964       0.00501328      -0.00461057
F        2.95318222      14.66426031       0.44902035      -0.01035093       0.01417204      -0.01229167
F        2.27679142      12.54286836       0.85772956       0.01633231       0.00420483      -0.00859059
F        4.33323512      12.91571100      -0.08096729       0.00633875       0.03192350      -0.01550909
O        9.54882115      10.90942500      11.22366610       0.00236780      -0.00296456      -0.00104100
C        8.43244346      11.74583286      11.44861781       0.00213838       0.00166851       0.00051204
C       10.74815167      11.63574004      11.04301222       0.00114679       0.00614119       0.00192320
C        7.20568984      10.88145168      11.61149304       0.00207597      -0.00620052      -0.00212464
C       11.85070957      10.66553351      10.69889986      -0.00270721      -0.00764626      -0.00178044
H        8.59985232      12.36510166      12.34535276       0.00000657      -0.00348029       0.00058746
H        8.31108274      12.43452341      10.59792613       0.00086004      -0.00115970       0.00174797
H       10.61710339      12.37701718      10.23782120       0.00132444       0.00034717       0.00117037
H       10.98599851      12.19820325      11.96005968       0.00004632      -0.00053670      -0.00097513
H        6.32186142      11.49907700      11.77864948       0.00085722      -0.00314620      -0.00106352
H        7.05448973      10.27363915      10.71885145       0.00286556      -0.00148082      -0.00129534
H        7.32250734      10.21354398      12.46613044       0.00189413      -0.00364227      -0.00257149
H       12.79469396      11.19441958      10.56754482       0.00651434       0.00621944       0.00065490
H       11.97052320       9.93143740      11.49643556       0.00299546       0.00375977      -0.00202189
H       11.62708549      10.13732304       9.77176242       0.00473717       0.00464039       0.00326404
O        5.28432101       1.68492784      10.41939213      -0.00236574      -0.00422937       0.00230338
C        4.56186713       0.60662714       9.83563352       0.00001198      -0.00280756      -0.00246170
C        6.56692052       1.26740068      10.84081149      -0.00100225      -0.00271237       0.00031036
C        3.20957560       1.09876107       9.38644194      -0.00177711      -0.00403006       0.00130461
C        7.32003883       2.45036606      11.39718970      -0.00279216      -0.00343338       0.00278035
H        5.13482410       0.21104071       8.98346648       0.00016254      -0.00054184      -0.00091434
H        4.45491490      -0.20368397      10.56917079      -0.00032202      -0.00589487      -0.00270319
H        6.47053560       0.47660910      11.60013170       0.00040925      -0.00458109      -0.00079378
H        7.11140218       0.83296351       9.98774911      -0.00125858      -0.00065325      -0.00075895
H        2.67603321       0.30002846       8.87020524       0.00031674      -0.00287552      -0.00322132
H        2.61182650       1.41058493      10.24189509      -0.00123309      -0.00637291      -0.00158881
H        3.31769704       1.94312075       8.70377154      -0.00108102      -0.00132768       0.00037555
H        8.31770905       2.14517215      11.71824509      -0.00218509      -0.00197824       0.00133995
H        7.42768650       3.23490234      10.64703311      -0.00374829      -0.00129285       0.00286731
H        6.79644685       2.86887331      12.25787427      -0.00280149      -0.00507182       0.00261049
O       12.37786284       9.31491918       7.31553426      -0.00078537       0.00264475       0.00206280
C       12.48453256      10.18464672       6.20019288       0.00223976       0.00246000       0.00082089
C       12.39134755       7.95296774       6.94405747       0.00125566       0.00233030      -0.00148681
C       12.50244901      11.60681080       6.70116380      -0.00001850       0.00295460       0.00525376
C       12.29148235       7.11573362       8.19501487       0.00032817       0.00266442       0.00100452
H       13.40172486       9.95571416       5.63822640       0.00040960       0.00297959       0.00313628
H       11.63202994      10.01411678       5.52316177       0.00139904       0.00516167       0.00134331
H       11.54799468       7.74251429       6.26531128       0.00071844       0.00202959      -0.00024801
H       13.31344408       7.72575037       6.38990601       0.00001884       0.00385507       0.00044575
H       12.53352464      12.30258968       5.86312472       0.00726057       0.00390704       0.00212888
H       11.60973772      11.80907759       7.29377026       0.00133489       0.00463147      -0.00231735
H       13.38125714      11.77873124       7.32135167      -0.00018199       0.00153503       0.00645331
H       12.30079618       6.05304802       7.94717238       0.00273037       0.00107633      -0.00160147
H       13.13185339       7.32327626       8.85803252       0.00042541       0.00218767      -0.00043812
H       11.37035824       7.33993947       8.73534761       0.00139129      -0.00029661      -0.00098635
O        3.59899515       8.06708093       6.38071979      -0.00035724      -0.00440212      -0.00093985
C        4.21950954       8.95504323       5.46083984       0.01059264      -0.01091480       0.00430503
C        2.60451078       7.28279370       5.76390933       0.00288311      -0.00683326       0.00349054
C        5.15643020       9.85259498       6.23109663      -0.00766015       0.00436929      -0.00127891
C        2.05826307       6.31804469       6.78935327      -0.00142451      -0.00637978      -0.00498369
H        4.76038509       8.37051365       4.70372424       0.00605956      -0.00658539       0.00680584
H        3.45589676       9.54089933       4.93457534       0.00159824      -0.00647756      -0.00528923
H        1.80749415       7.93331161       5.36998392       0.00325739      -0.00756460      -0.00423236
H        3.03057472       6.74296541       4.90206218       0.00640336      -0.00837836       0.00094572
H        5.70067567      10.50685949       5.54707690      -0.00109827      -0.00460939       0.00426806
H        4.59896372      10.47234183       6.93402905      -0.00381653      -0.00310774      -0.00277790
H        5.87735285       9.25838315       6.79408566       0.00085134      -0.00262848       0.00956091
H        1.24544924       5.72277395       6.36884368       0.00288749      -0.00455400      -0.00069761
H        2.84351421       5.64446917       7.13579810       0.00012633      -0.00566700       0.00283812
H        1.67368144       6.86588399       7.65011728      -0.00209874      -0.00307393      -0.00093096
O       10.91059577       0.94746920       2.06444487       0.00769681      -0.01155960       0.00463486
C       11.75785000       0.85104467       0.94081741       0.00826794      -0.01325750       0.00483650
C        9.55201060       0.65954603       1.77068086       0.00703359      -0.00661364       0.00092837
C       13.14936717       1.26445960       1.37870781       0.00939712      -0.01916313       0.00859569
C        8.79610130       0.58078508       3.07489567       0.00287780      -0.00235900      -0.00125360
H       11.75764205      -0.17745816       0.55406601       0.00497321      -0.01306355       0.00432757
H       11.40397850       1.50939331       0.13307519       0.01139857      -0.01204538       0.00610295
H        9.13951452       1.44643466       1.11940702       0.01215237      -0.00938404      -0.00256649
H        9.48554868      -0.29015526       1.22065270       0.00554787      -0.00993198       0.00432354
H       13.87784697       1.07354163       0.58777357       0.00784574      -0.00607879       0.00266236
H       13.16545266       2.32801536       1.62377343       0.00967992      -0.02364355       0.02172047
H       13.40015596       0.69609339       2.28506985       0.01216962      -0.03017084      -0.00226043
H        7.73963755       0.38120567       2.89155834       0.00404292      -0.00269899      -0.00453758
H        9.19616637      -0.22110393       3.69536705       0.00086716       0.00414892       0.00445082
H        8.88701571       1.51407726       3.63208141      -0.00048248       0.00336941      -0.00629826
O       10.55101192       2.84950854       6.11362477      -0.00245793       0.00130713      -0.00029023
C       11.47779210       3.75571998       5.54735960      -0.00360488       0.00341701       0.00031048
C       10.50980698       2.96001827       7.52343400      -0.00344416       0.00087354      -0.00036785
C       11.50392416       3.54628738       4.05468180      -0.00193469       0.00211775       0.00002635
C        9.49300950       1.99058551       8.07166012      -0.00198257      -0.00168613      -0.00184052
H       11.18903982       4.78838956       5.79910150      -0.00708611       0.00268930      -0.00098790
H       12.47402060       3.58285528       5.98621534      -0.00426596       0.00633554       0.00146437
H       11.50809224       2.75402041       7.93840434      -0.00348788       0.00278386       0.00040697
H       10.24986620       3.99373683       7.80299442      -0.00591137       0.00023749       0.00007980
H       12.20020801       4.24164977       3.58074058      -0.00336491       0.00480701       0.00074437
H       11.78939251       2.52385975       3.81143376       0.00348633       0.00307524       0.00163212
H       10.51545545       3.71304370       3.62506936      -0.00111333      -0.00130240      -0.00064145
H        9.46146062       2.05882609       9.16033164      -0.00270384      -0.00277327      -0.00147083
H        8.49765266       2.21493845       7.68580006      -0.00214469      -0.00325801      -0.00205855
H        9.74935365       0.96779267       7.79341199       0.00027441      -0.00063856      -0.00256971
O        3.07279942       5.01804142      12.41334975       0.00396304      -0.00519875       0.00096124
C        4.27722782       5.32992013      11.73305832       0.00039950       0.00039101       0.00070507
C        2.47911336       3.82772645      11.92643729       0.00300395      -0.00397837       0.00268309
C        4.77826906       6.65114647      12.25719155       0.00240386      -0.00156754      -0.00392807
C        1.17580940       3.62383205      12.65857632       0.00620478      -0.00980809       0.00122368
H        5.01183479       4.52683093      11.89115743       0.00343385       0.00013053      -0.00594757
H        4.09051720       5.37927889      10.65068510      -0.00387833       0.00101595      -0.00104022
H        2.30628574       3.91643752      10.84384267       0.00275036      -0.00339093       0.00155061
H        3.15985884       2.97753206      12.07316074       0.00548497      -0.00510243      -0.00102469
H        5.72235260       6.92581717      11.78764078      -0.00385383       0.00124584      -0.00375326
H        4.05138810       7.43930706      12.05989278      -0.00252290      -0.00144671       0.00361127
H        4.93336480       6.59297336      13.33550650       0.00535091      -0.00222886      -0.00002572
H        0.67499892       2.72024299      12.30697127       0.00550467      -0.00648722       0.00038688
H        1.35398963       3.52209293      13.73014686       0.00704904      -0.01164517       0.00205204
H        0.51768254       4.47893088      12.50272194       0.00418941      -0.00724414       0.00614756
O        3.49243398       2.63362984       2.94762310      -0.00943818      -0.00037652      -0.00840962
C        2.23349076       3.31554111       3.06662743      -0.00023483       0.00817683       0.00381681
C        4.33353491       3.21106993       1.91872878      -0.01161385      -0.01148018      -0.01955661
C        1.57832948       2.95415889       4.38085503      -0.00492549       0.01765695      -0.00623834
C        5.63340730       2.45321913       1.88300869       0.00723049       0.00843523       0.01934505
H        2.40595661       4.39294719       3.00778524       0.01651060       0.01491818       0.01288603
H        1.60095939       3.05309755       2.20240854      -0.00761601       0.03113512       0.00259809
H        3.80797450       3.16289850       0.95985546       0.01724973       0.02416443       0.01496801
H        4.49369162       4.26335332       2.16906689       0.00915534       0.00651520       0.02745977
H        0.59028242       3.41159668       4.42941466       0.01559797       0.03256990       0.00975725
H        1.42571778       1.88061655       4.53666353      -0.02746730       0.01311563      -0.01622627
H        2.17683159       3.30982511       5.21902063       0.00929582      -0.01303422       0.00018838
H        6.27223722       2.86285492       1.10006950       0.00163382      -0.00088222       0.00318240
H        6.16342610       2.53765035       2.83285962      -0.01068497      -0.02265131      -0.01220760
H        5.47607996       1.39720096       1.64815558      -0.00974926      -0.00700521      -0.01502711
O        7.57330797       5.95229130       4.83143855      -0.00597432       0.00156352      -0.00810148
C        8.84564845       6.48502678       4.51908659      -0.00281277      -0.00146800      -0.00694242
C        7.66239484       4.76233473       5.59737756      -0.00344586       0.00015649      -0.00632437
C        8.66342874       7.73408096       3.69365106      -0.00635871       0.00184578      -0.00715527
C        6.26650896       4.32477749       5.96690658      -0.00845367       0.00727142      -0.00307751
H        9.38862213       6.71148609       5.44938820      -0.00419287       0.00058262      -0.00799358
H        9.44046261       5.74008723       3.97061677      -0.00433247       0.00058702      -0.00653520
H        8.18908088       3.98407674       5.02670096      -0.00827463       0.00035533      -0.00467858
H        8.26163614       4.94657220       6.50234185      -0.00469401       0.00096276      -0.00712189
H        9.63016998       8.19570043       3.48775285      -0.00082068      -0.00038527      -0.00689362
H        8.17920766       7.50200060       2.74488820      -0.00242713       0.00188223      -0.00677267
H        8.04215776       8.45519021       4.22562506      -0.00162588       0.00090653      -0.00735013
H        6.29958252       3.42154533       6.57772639      -0.00607951       0.00384635      -0.00086545
H        5.75901717       5.10907491       6.53043168      -0.00306956       0.00547761      -0.00315236
H        5.67979357       4.11291147       5.07148507      -0.00766521       0.00405966      -0.00042199
O       10.06674291       5.02286425      12.02393626      -0.00358186       0.00135663       0.00313279
C        9.39020081       4.92247519      13.26303646       0.00225401      -0.00861984       0.01100452
C       11.17848690       4.15270796      11.94273442       0.00081047      -0.00223925       0.01151222
C        8.15819514       5.78929256      13.20185706      -0.00065053       0.00259450       0.00223370
C       11.92622491       4.45695356      10.66935548      -0.00985861       0.00796093      -0.00322887
H        9.11814096       3.87339198      13.45524271       0.00019392      -0.00093758       0.00527935
H       10.05919179       5.23842496      14.07759631      -0.00011200      -0.00474900       0.00536403
H       11.82568469       4.28833019      12.82221563      -0.00255859       0.00000961       0.00103152
H       10.83103265       3.10759132      11.95361087       0.00010480       0.00065374       0.00331256
H        7.61278610       5.75042356      14.14591654       0.00008177      -0.00405014       0.01473457
H        8.42723949       6.82644119      12.99722701      -0.00175609      -0.00602943       0.01169219
H        7.49752908       5.44635311      12.40567508      -0.00115220      -0.00140834       0.01350188
H       12.73749100       3.74522774      10.51498317       0.00130665       0.00075343       0.00293752
H       11.24645355       4.39922282       9.82016779       0.00056736       0.00200604       0.00808690
H       12.34553459       5.46271243      10.69918642      -0.00441901       0.00161481       0.00439382
O        8.30791109       8.70571291       8.44141699      -0.00733753      -0.00113463      -0.00088990
C        8.79625315       9.45535937       7.34439829      -0.00395806       0.00084120       0.00172612
C        8.20856237       7.32815269       8.13924706      -0.00168724      -0.00123900      -0.00231829
C        8.77682134      10.91798977       7.71194075      -0.00827204       0.00056380       0.00340524
C        7.78650945       6.58657206       9.38317480      -0.00754032      -0.00307256      -0.00555557
H        9.81954260       9.13505572       7.10219576      -0.00113928       0.00336111       0.00718380
H        8.16850612       9.26705059       6.46109459       0.00196967       0.00020275      -0.00094748
H        7.48703695       7.17712496       7.32187880       0.00025585      -0.00183451      -0.00588778
H        9.18249719       6.95467599       7.78321562      -0.00103480       0.00168625       0.00079128
H        9.15408748      11.51925939       6.88341893      -0.00561037       0.00203645       0.00561109
H        7.76025586      11.24031552       7.94248548      -0.01062745      -0.00189400      -0.00222223
H        9.40153127      11.08979478       8.58852366      -0.01387608       0.00104387       0.00636263
H        7.63657487       5.52833029       9.16114301      -0.00170599      -0.00390598      -0.00714633
H        8.54381875       6.66788017      10.16329809      -0.00939614      -0.00181583      -0.00138251
H        6.84832045       6.99532074       9.75950556      -0.00841300      -0.00743049      -0.00939232
O        3.45701356       9.18900845       1.72847236      -0.00067684       0.00888424       0.00199139
C        4.64937264       9.53245835       1.04326248       0.00063610       0.00345041       0.00808501
C        2.37819955       8.95108343       0.83856848      -0.00118625       0.00400072       0.00759283
C        5.74999048       9.70925278       2.06068025      -0.00063714       0.01408366      -0.00064719
C        1.11472366       8.79471223       1.64945965      -0.00041905       0.00146857       0.00015256
H        4.91162908       8.74095129       0.32809176      -0.00176971       0.00836915       0.00404638
H        4.49661904      10.45419876       0.46711881      -0.00137246       0.01064551       0.00222024
H        2.28344071       9.79090026       0.13545478      -0.00372064       0.00792825       0.00543749
H        2.57427002       8.04494983       0.24752008       0.00301015       0.00674045       0.00254449
H        6.67857897      10.00350243       1.56862619      -0.00272943       0.00534010       0.00604921
H        5.47828332      10.47858054       2.78490684      -0.00088013       0.00844443       0.00317954
H        5.92391741       8.77929522       2.60154376      -0.00277440       0.00479349       0.00752941
H        0.26603194       8.59587264       0.99365357       0.00201960      -0.00170881       0.00713995
H        1.21135912       7.96539612       2.35143656       0.00494701      -0.00068101       0.00645407
H        0.91325209       9.70390881       2.21719245      -0.00118268      -0.00019132       0.00599318
