198
Lattice="13.259674769358186 0.0 0.0 0.0 13.259674769358186 0.0 0.0 0.0 13.259674769358186" Properties=species:S:1:pos:R:3:forces:R:3 energy=-232390.40625 stress="-0.0018332748441025615 -0.0005109331686981022 0.00012470647925511003 -0.0005109331686981022 -0.001572156441397965 -0.0006026137270964682 0.00012470647925511003 -0.0006026137270964682 -0.0021433052606880665" pbc="T T T"
Sr      11.78949017      13.37173060       0.51552849       0.00134226       0.01859200       0.01706155
O        9.45631320      10.03820855       0.82232979       0.01564002       0.02540034      -0.00598103
O       11.63527720       9.40866703      -0.55542153       0.01534081       0.01873112      -0.00793904
O       11.81656931      11.26254509       1.40183310       0.01851988       0.01320502      -0.00214481
O       10.60510116      11.91053467      -0.80464867       0.02160650       0.02018261      -0.00232840
Cr      10.83227607      10.56526249       0.20108686       0.01900510       0.01850921      -0.00497572
O        1.74945305       5.89599151       3.57703233       0.01614541       0.01107568       0.01093558
N        2.05990446       8.08163082       4.17203822      -0.00186479      -0.00046432      -0.00340941
C        0.68312044       8.30272823       4.55537424      -0.00388226      -0.00225955      -0.00451405
C        2.99632708       9.13936810       4.46052873      -0.00646838       0.00555269      -0.00824504
C        2.46233529       6.87530171       3.72297012      -0.00981575      -0.01698756       0.00232258
H        0.31533708       9.23104615       4.11446330      -0.00449092      -0.00585991      -0.01015435
H        0.59769434       8.37165807       5.64279625      -0.00265514       0.00378091      -0.00542602
H        0.08527240       7.47035388       4.20080896       0.00003260      -0.00522944       0.00007012
H        2.75840039      10.04205340       3.89062092      -0.00558674      -0.00240892      -0.01939303
H        4.00966637       8.82582007       4.21835831      -0.00440878       0.00477642       0.00217706
H        2.96726335       9.38541637       5.52343407      -0.01346678       0.01690763      -0.01186267
H        3.54182961       6.86250805       3.48676683       0.00232184       0.00149697       0.00610012
O        9.53989790       4.72033693       0.12310105       0.03411222      -0.02658054       0.00261235
N       10.78860784       5.73987370       1.74425482       0.00356846       0.00378463       0.00617801
C       11.01532083       6.95654025       0.97992945      -0.01144797       0.00322649       0.00123674
C       11.47977652       5.60628950       3.00405953       0.00237025       0.01754043       0.00876568
C       10.07907774       4.73192921       1.22158510       0.02848762      -0.00900692       0.00626421
H       11.96634551       6.89196625       0.45076754      -0.01403505       0.01126970      -0.00312397
H       11.04015430       7.80390683       1.66292507      -0.01822245       0.00538860      -0.00241071
H       10.20293224       7.10400817       0.27650364      -0.01550004      -0.00830549       0.00377339
H       12.56269534       5.66813006       2.85868265       0.00208107       0.01933997       0.01038393
H       11.22951188       4.64875570       3.45999094       0.00445516       0.02041885       0.01612004
H       11.17602701       6.40229981       3.68894390      -0.00337550       0.02159917       0.00034600
H       10.00759853       3.86721338       1.90904621       0.03663488      -0.00722581       0.01160955
O       14.27939613       2.87902119       5.88476421       0.03808123      -0.01875272      -0.00412226
N       13.29406968       2.03722002       4.00067630       0.00958090      -0.00126949       0.01040977
C       13.20811767       0.68296217       4.51276291       0.00655159      -0.00393102       0.00302939
C       12.78943060       2.29338294       2.67719969       0.00268625       0.00861715       0.01500754
C       13.81529500       3.03853985       4.77220562       0.03082651      -0.01036015       0.01167357
H       13.75030789      -0.01470423       3.86683823      -0.00410907      -0.00212578      -0.00663513
H       12.16864249       0.36414437       4.60131051       0.00651613       0.00030538       0.01041157
H       13.65311446       0.67352856       5.50391978       0.01604196      -0.01401802      -0.00222182
H       13.39164441       1.74635252       1.92999962       0.00344940       0.02060267       0.00767393
H       12.88633429       3.34836633       2.42416474      -0.00583046       0.01163980       0.02677218
H       11.73221266       2.01140773       2.59178195       0.00435519       0.00264126       0.01866208
H       13.77677118       4.02008904       4.27484417       0.03491634      -0.00836563       0.01058385
O       10.33586122       0.05249688       5.84905175      -0.00604844      -0.00428820       0.00296596
N        8.72182934       1.46883899       5.07810786      -0.00355661      -0.00092940       0.00152466
C        9.64129914       2.47139664       4.58836563      -0.00186573      -0.00139405       0.00447834
C        7.32408932       1.66731372       4.79091722      -0.00282386       0.00057019      -0.00199858
C        9.16284826       0.34505135       5.68068279      -0.00779581      -0.00240034      -0.00034490
H        9.38531636       3.44455723       5.01264879      -0.00150755      -0.00160930       0.00459369
H        9.58839749       2.51807046       3.49742763       0.00032901      -0.00136583       0.00459117
H       10.64607291       2.21963079       4.91456190      -0.00283748      -0.00266157       0.00641160
H        6.98255756       2.62619357       5.19314403      -0.00348204      -0.00044939      -0.00023180
H        6.73022145       0.86799193       5.22678230      -0.00455321      -0.00016505      -0.00614403
H        7.14642262       1.65608296       3.71252328       0.00039712       0.00402993      -0.00251013
H        8.33853523      -0.30773150       6.01587231      -0.00773433      -0.00283512      -0.00532025
O        4.76892972       0.53335623       3.55859935      -0.01070857      -0.00574040       0.00024103
N        3.37197680       1.92075713       2.41166654      -0.00308872      -0.00616889      -0.00875860
C        2.68122961       0.81358797       1.78434741       0.00046746      -0.00656891      -0.01142287
C        2.94457160       3.27658363       2.12830143      -0.00115840      -0.00637418      -0.01325146
C        4.35868977       1.65405174       3.28043668      -0.00563645      -0.00556892      -0.00593725
H        2.39076737       1.09795849       0.77582256      -0.00957268      -0.00076486      -0.00637746
H        1.81238883       0.51466916       2.37833009       0.00727549      -0.01984283      -0.00870444
H        3.35348403      -0.03851580       1.73229705       0.00606042      -0.00087300      -0.02464318
H        3.01674197       3.48164174       1.05918273       0.00024244      -0.01028976      -0.01375002
H        3.57143442       3.97560006       2.67776841      -0.00083646      -0.00582990      -0.01477036
H        1.92190089       3.45664727       2.45253833      -0.00111678      -0.00324759      -0.01483239
H        4.78043742       2.56905184       3.73128279      -0.00571127      -0.00498855      -0.00760348
O        6.46277954       7.14284617       1.28359479      -0.00252935       0.00645113       0.00371349
N        6.55423126       6.03744943       3.27618610       0.00503018       0.00713287       0.00419110
C        6.89262342       4.77735391       2.65348939       0.00454771       0.00733984       0.00406913
C        6.30671193       6.05969678       4.69942496       0.00843311       0.00767914       0.00483720
C        6.38469456       7.13353132       2.49872507       0.00061781       0.00648052       0.00555217
H        6.01822949       4.12337825       2.56609487       0.00460666       0.00722149       0.00534760
H        7.64784500       4.26513956       3.25029983       0.00536898       0.00743913       0.00292687
H        7.28726904       4.97717476       1.66073622       0.00303881       0.00718325       0.00352657
H        5.42517693       5.45955417       4.95227599       0.01002422       0.00633958       0.00700901
H        6.14117710       7.08412631       5.03176744       0.00629767       0.00757164       0.00397386
H        7.16556911       5.65932892       5.24436115       0.01080289       0.00936759       0.00318614
H        6.16183050       8.03720087       3.09371385       0.00074036       0.00573891       0.00524306
O        9.72395163       4.10168570      10.21425911      -0.00117719       0.00629798       0.00271976
N       11.47039464       2.65037678      10.38759157      -0.00121512       0.00531087       0.00982745
C       10.85487368       1.90663268      11.45036210      -0.00144485       0.01103355       0.01250663
C       12.74834370       2.20326410       9.88633742      -0.00144409       0.00275602       0.01198460
C       10.84813684       3.75089745       9.90138794       0.00241363       0.00306767       0.00404600
H       11.28192870       2.22926634      12.41782809      -0.00772758       0.02122921       0.01149006
H       10.96702063       0.82697790      11.28688559       0.00466944       0.01106563       0.02076295
H        9.79762094       2.14892282      11.49761965      -0.00308532       0.00530775       0.00738505
H       13.47498625       2.13064978      10.70072341      -0.00270210       0.00400720       0.01289502
H       13.12952537       2.91506604       9.15912546       0.00017140       0.00005147       0.01091032
H       12.65039696       1.22569651       9.40340892      -0.00216398       0.00165159       0.01521586
H       11.47804423       4.28520455       9.17966149       0.00111097       0.00056887       0.00414073
O        3.96907066       1.62338447      12.42324279      -0.00662720       0.01227780      -0.00900593
N        5.95556315       2.76134287      12.48358370      -0.00442162       0.00726813      -0.00286398
C        5.37696439       4.07742277      12.29527477      -0.00040433       0.00847077      -0.00573413
C        7.39924850       2.68729887      12.55867689      -0.00523651       0.00342628       0.00426897
C        5.19066248       1.66160049      12.53671317      -0.00788403       0.00947389      -0.00407154
H        5.73471706       4.51079391      11.35860723       0.00329070       0.00690824      -0.00508985
H        5.67898221       4.74248687      13.10666501      -0.00116974       0.00791617      -0.00511536
H        4.29513865       3.98737372      12.26259527      -0.00025561       0.01158166      -0.00899191
H        7.85238071       3.15446160      11.68008912       0.00048115       0.00584188       0.00891745
H        7.70354569       1.64338206      12.62392072      -0.00837345       0.00242496       0.00060664
H        7.78511953       3.22800644      13.42108950      -0.00831198      -0.00254580       0.00932655
H        5.79376218       0.74890854      12.68995545      -0.01075825       0.00833350       0.00079848
O       10.05113535      10.33229192       6.90781971       0.00208104      -0.01443851      -0.01512301
N       11.68143105      10.45600618       8.50980746      -0.00188130      -0.00419642      -0.01027445
C       12.50821335       9.43932804       7.90877472       0.00382932      -0.00271043      -0.00526697
C       12.08097786      10.94893496       9.80890914      -0.00685112       0.00068722      -0.00943761
C       10.51191161      10.80692913       7.93275642      -0.00023478      -0.00881264      -0.01209140
H       12.58739296       8.57158788       8.56761190       0.00483393       0.00111333      -0.00099835
H       13.51365778       9.82870836       7.73048601       0.00352955      -0.00154890      -0.00492672
H       12.04884413       9.14788483       6.96768873       0.00877416      -0.00942489      -0.00557968
H       12.06048376      10.15562459      10.56075446       0.00702791      -0.00076583      -0.01046982
H       11.38400155      11.71473808      10.14261372      -0.01804519      -0.01139779      -0.00586974
H       13.09223835      11.36798049       9.76291671      -0.01314715       0.01556358      -0.01059592
H        9.99462818      11.59073137       8.51198653      -0.00580144      -0.01102215      -0.01849970
O        0.99315309       6.15174116       0.46556315      -0.00878930      -0.00399792       0.01753635
N        2.28770442       8.03732545       0.65114224      -0.00393990      -0.00633287       0.00053819
C        1.18734991       8.97103624       0.73502101      -0.00283548      -0.00396502      -0.00063784
C        3.61809130       8.59664132       0.66667114      -0.00320586      -0.00749165      -0.00744988
C        2.07746461       6.71116148       0.49980671      -0.01120055      -0.00871789       0.00813813
H        1.25504243       9.70588733      -0.07101585      -0.00900615      -0.00695330      -0.00368467
H        1.20293738       9.50448522       1.69002911       0.00210100       0.00188139      -0.00451943
H        0.24657826       8.44356530       0.63117739      -0.00210637      -0.00605430       0.00694982
H        3.73734812       9.31277772      -0.14809066      -0.01001679      -0.01184922      -0.01105824
H        4.36872275       7.81859255       0.55543733      -0.00525707      -0.00838205      -0.00884893
H        3.80630286       9.11886759       1.61171095       0.00095667      -0.00319344      -0.01130894
H        3.03383001       6.16134758       0.41557606      -0.00909764      -0.01149398       0.00568349
O        3.63585588       9.30272653      10.21953679       0.00800526       0.00140485      -0.00124282
N        5.24820955      10.54323221      11.25784328       0.00800896       0.00193545      -0.00278838
C        4.32447815      11.55501131      11.71685435       0.00899810       0.00361371      -0.00510328
C        6.64835343      10.68976358      11.60637615       0.00705703      -0.00168944       0.00162953
C        4.80302041       9.49386397      10.54141655       0.00717485       0.00111601      -0.00125274
H        4.51157260      12.50983222      11.22074285       0.01296513       0.00305778      -0.00448313
H        4.43425523      11.70940863      12.79344763       0.00607833       0.00296030      -0.00487047
H        3.31004349      11.23119176      11.49591485       0.00908950       0.00628704      -0.00826705
H        6.99701961      11.68924513      11.33205621       0.00810432       0.00018552       0.01046001
H        7.26107609       9.96024703      11.08125209       0.00805716       0.00308332      -0.00364754
H        6.80029735      10.54591681      12.67691374       0.00477080      -0.01036954       0.00055635
H        5.61882804       8.80708392      10.26145354       0.00704741       0.00018412       0.00028324
O        5.83556294       9.76624385       6.38464761      -0.01612711      -0.01619171      -0.02105761
N        4.13938101      11.17309754       7.00145530       0.00226492      -0.00511995       0.00043656
C        4.43680753      12.15805203       5.98696894      -0.00014964      -0.00512852       0.00003710
C        2.88749945      11.31907051       7.71016849       0.00963749       0.00246567       0.01131653
C        4.87083903      10.03389535       7.08576532      -0.00520998      -0.00967109      -0.00846654
H        4.43150709      13.16104389       6.41847048       0.00535431      -0.00619528       0.00203106
H        3.69709014      12.14225611       5.18302076      -0.00450876      -0.00147037       0.00426558
H        5.41144684      11.94393601       5.56084909      -0.00347704      -0.00744036      -0.00579575
H        2.84374302      12.29044562       8.20926475       0.02141859       0.00192669       0.01285067
H        2.79593682      10.53634417       8.46157472       0.01024726       0.00197592       0.01047519
H        2.04340000      11.26566808       7.01164046       0.00356761       0.01006573       0.01836571
H        4.48862866       9.35700952       7.86641741      -0.00403905      -0.01037896      -0.00880820
O        9.18483749       8.99542635      10.55379023      -0.00551325       0.01826227      -0.02307832
N       10.32983190       7.37251066       9.42245777      -0.01084113       0.00580758      -0.00934400
C       11.12846888       6.97981431      10.57428747      -0.01174033       0.01343720      -0.00625968
C       10.42035176       6.61120555       8.19445190      -0.00809242      -0.00046798      -0.00521357
C        9.39990910       8.33990723       9.54411645      -0.00829604       0.00857252      -0.01722777
H       12.10656065       6.63340421      10.23575188      -0.00792992       0.02105706      -0.00253159
H       10.64280831       6.17603595      11.13005747      -0.00709152       0.00968868      -0.00791919
H       11.24995406       7.83701833      11.23406752      -0.02091407       0.01512095      -0.00728774
H       11.46889727       6.42620778       7.95011239      -0.00702465       0.00368780      -0.00437491
H        9.98170554       7.19391574       7.38394776      -0.01102571      -0.00710088      -0.00755413
H        9.91038648       5.64902516       8.27490846      -0.00225314      -0.00238541       0.00099838
H        8.83586930       8.49802369       8.60904461      -0.00928426       0.00093718      -0.01755548
O        9.85953250      13.92206796       1.80091800      -0.00702144      -0.01323929       0.02829006
N        8.52650695      12.28824122       2.67869798      -0.00999714      -0.01917777       0.01554988
C        7.48276194      12.42619363       1.67976600      -0.00892907      -0.01321758       0.01591253
C        8.37729765      11.20979973       3.64469812      -0.00907347      -0.02748606       0.00612479
C        9.62213851      13.01191185       2.63972463      -0.00821257      -0.01943505       0.01914871
H        6.58125081      12.84421834       2.13445102      -0.01201785      -0.02450690       0.01946157
H        7.27734532      11.43666730       1.27579325      -0.00126550      -0.00897932       0.00200628
H        7.84134363      13.07087394       0.88276970      -0.01051933      -0.00072987       0.02613619
H        7.44454825      11.33730555       4.19628176      -0.01191029      -0.03680504       0.00316481
H        9.20992504      11.21763239       4.34448571      -0.01302060      -0.02933585       0.01038690
H        8.36249247      10.26237231       3.10556899      -0.00254015      -0.02393135      -0.00034797
H       10.34243704      12.76480730       3.42554740      -0.00799307      -0.02866159       0.01566565
O       10.32067871       2.78914200       7.42677074       0.00766933      -0.00689030       0.00531036
N        8.48752816       1.83554220       8.38956704       0.00617971      -0.00125515       0.00469879
C        7.63029018       2.96813782       8.12285265       0.00864303       0.00088441       0.00574351
C        7.93001162       0.73460494       9.13898222       0.00389998      -0.00081186       0.00292635
C        9.79003869       1.87147830       8.02866605       0.00717300      -0.00261194       0.00278085
H        7.38497712       3.48780705       9.05260597       0.00692911      -0.00163269       0.00662568
H        6.71037309       2.63634658       7.63803888       0.00940618       0.00357540       0.00250690
H        8.16578376       3.65806126       7.47644672       0.01112951       0.00216138       0.00984482
H        7.56269245       1.07541200      10.11177683       0.00342861      -0.00157708       0.00265509
H        8.69252408      -0.02431520       9.30565844       0.00198793      -0.00294231       0.00135632
H        7.09936732       0.27240042       8.59641714       0.00246811       0.00274751       0.00221446
H       10.33197500       0.96078227       8.32864697       0.00334561      -0.00648999       0.00339110
O        1.86295448       4.52483982      10.05042277      -0.00056207       0.00270450      -0.00942767
N        3.64711054       3.33072225       9.25759537      -0.00333185       0.00215483      -0.00909118
C        4.14160305       4.38949928       8.40870682      -0.00758726       0.00058271      -0.01343643
C        4.36210140       2.08054383       9.27073242      -0.00648395       0.00063421      -0.01142255
C        2.54195474       3.51450421      10.01871097      -0.00350863       0.00484204      -0.00915688
H        4.25553334       4.02458414       7.38527670      -0.02014655       0.00268380      -0.01475817
H        5.10910484       4.75552848       8.76664949      -0.00208652      -0.00436514      -0.02271216
H        3.42278546       5.20347971       8.42429978      -0.00303572       0.00399077      -0.00446673
H        4.44355582       1.67567501       8.25719296      -0.01373647       0.00068703      -0.01194274
H        3.83427549       1.36913008       9.90154399      -0.00650139       0.00252822      -0.00881760
H        5.36924081       2.20608382       9.67726194      -0.00499305      -0.00188503      -0.01456474
H        2.32847413       2.62288177      10.63138312      -0.00279382       0.00472379      -0.00754121
