199
Lattice="13.480615441670937 0.0 0.0 0.0 13.480615441670937 0.0 0.0 0.0 13.480615441670937" Properties=species:S:1:pos:R:3:forces:R:3 energy=-222321.375 stress="0.0002043801941908896 -0.00020819615019718185 -0.00011423325122450478 -0.00020819615019718185 -0.0029987224843353033 -0.00024630095867905766 -0.00011423325122450478 -0.00024630095867905766 -0.00045711942948400974" pbc="T T T"
Sr      12.41564932      12.69188039       0.23105664       0.00409324       0.00054322      -0.00629522
S        6.36472175      12.63993280       3.97519123      -0.00469935      -0.01590029       0.04495192
N        4.41128800      12.87510777       5.99442658      -0.04139543       0.01154107       0.00609815
C        5.23595799      12.78952082       5.15772129      -0.03221011       0.00036626       0.02918643
S        8.02433574      10.44022787      12.35893865       0.01105356      -0.00281745      -0.01075585
N       10.44241304      11.85080157      12.41575021       0.00743866       0.00387353      -0.01229388
C        9.41556113      11.26104241      12.39708195       0.00851402       0.00059302      -0.01195733
O       11.93695827       7.22634024       3.41731088      -0.02272552       0.01661146       0.00391954
N       12.04949911       8.33661314       1.42398926      -0.00459391       0.00182891      -0.00274014
C       10.99070305       7.58871845       0.77548382      -0.00696182       0.00497018      -0.00231936
C       12.64561644       9.40056960       0.65587027       0.00566775      -0.00705326      -0.00711296
C       12.42778354       8.08734134       2.70006270      -0.01306684       0.00781530       0.00058913
H       11.37755252       7.06362199      -0.10360812      -0.00726491      -0.00110348       0.00149834
H       10.20500185       8.27203676       0.44072271      -0.00202504       0.00795221      -0.00781131
H       10.57770916       6.86604657       1.47274974      -0.01280364       0.01067412       0.00004604
H       13.25575203       9.01329094      -0.16749409       0.00510086      -0.01625329      -0.00282830
H       13.28271003      10.00491499       1.30121191       0.00734201      -0.00749752      -0.00887847
H       11.84620844      10.01786684       0.22825240       0.01162824      -0.00408664      -0.01345894
H       13.24078749       8.74560085       3.04972994      -0.00952041       0.00410762       0.00002521
O       12.82722372       1.06459420       1.78851578      -0.00722231       0.01227057      -0.01930231
N       12.47052802       3.25380692       2.32529380      -0.00046343       0.00985104      -0.00722805
C       12.56933815       3.07474672       3.76280372      -0.00399994      -0.00017408      -0.00839072
C       12.10385302       4.57431836       1.85385333       0.00419648       0.01423046       0.00167114
C       12.59011062       2.24198479       1.47792189      -0.00210696       0.01492167      -0.01346037
H       11.59096171       3.22702757       4.22530164      -0.00461760      -0.00180881      -0.00957902
H       13.26315658       3.81122153       4.16986420      -0.00361490      -0.00428155      -0.00198494
H       12.92218280       2.06939530       3.97329794      -0.00602073      -0.00211406      -0.01456159
H       11.10961178       4.83709200       2.21709579       0.00574717       0.01547356       0.00490406
H       12.10016870       4.57354072       0.76567183       0.00262179       0.02128175       0.00179391
H       12.81225677       5.31313496       2.22504233       0.00757957       0.00929420       0.00513561
H       12.45819725       2.53799226       0.42872706       0.00178156       0.02089949      -0.01195449
O        8.79536297       2.02404592       6.70232938       0.01112318       0.00040159       0.00339246
N        8.86388650       1.68289348       4.44200775       0.00274023      -0.00572966       0.00446060
C        9.77190985       0.56536289       4.50647681       0.00419346      -0.00455494       0.00392705
C        8.38381238       2.05568157       3.13076378      -0.00526971      -0.01198109       0.00586291
C        8.39142819       2.25248222       5.56427184       0.00668089      -0.00316776       0.00489986
H       10.65371716       0.73872834       3.88498460      -0.00026959      -0.00630687      -0.00275466
H        9.25841489      -0.33029820       4.14718100       0.00318968      -0.00708568       0.01191477
H       10.05895847       0.41987077       5.54363768       0.01143724       0.00055804       0.00249362
H        9.18681676       2.51531060       2.54840351      -0.00757658      -0.01837516      -0.00212426
H        7.57000746       2.76792217       3.22981220      -0.00202006      -0.00856748       0.00753643
H        8.00559567       1.17305475       2.61254454      -0.01201060      -0.01345742       0.01339942
H        7.58700184       2.97444353       5.35346257       0.00514889      -0.00454652       0.00590423
O        5.23281273       2.66194310       4.06869121       0.00129938       0.00344875       0.00141978
N        3.83832370       1.96003395       2.39366691       0.00240499      -0.01019061       0.00648847
C        4.86693823       1.84587577       1.37881165       0.00227337      -0.01036185       0.00630252
C        2.48215758       1.71834575       1.97376788       0.00306882      -0.01668300       0.00811981
C        4.13334958       2.32625437       3.66057727       0.00201344      -0.00289515       0.00425220
H        4.71403529       2.56974967       0.57704738      -0.00234022      -0.01628205       0.00191063
H        4.85924957       0.84385332       0.94781988       0.00794195      -0.01311883       0.01259471
H        5.83177464       2.03291040       1.83511064       0.00121424      -0.00125438       0.00435168
H        2.17715973       2.44734262       1.21349356      -0.00153230      -0.01861870       0.00824648
H        1.80758252       1.79803765       2.82431379       0.00355817      -0.02001661       0.00869554
H        2.37029404       0.72332114       1.53876021       0.00774927      -0.01716998       0.00828153
H        3.24698424       2.30509189       4.31860051       0.00306946      -0.00314447       0.00531089
O        8.96142604       5.19518576       2.47745263       0.00461584      -0.00084037       0.01258409
N        7.28625543       6.29611247       3.57744772      -0.00067651       0.00209434       0.00102847
C        6.21484232       5.46304510       3.07114578       0.00132708       0.00701322      -0.01077181
C        6.91612368       7.33670267       4.50575964      -0.00506841       0.00064301       0.00074969
C        8.56719062       6.06819447       3.24128395       0.00148880      -0.00072497       0.01085216
H        5.43487589       6.10172778       2.64805108       0.00855401       0.01024869      -0.01904633
H        5.78918916       4.85493067       3.87191283      -0.00944343       0.00817579      -0.01576266
H        6.60221640       4.80471052       2.29830672       0.00649586       0.00588964      -0.00700867
H        6.16801786       7.99329084       4.05525965       0.00226817       0.00561816      -0.00381784
H        7.78708021       7.92875671       4.77242936      -0.00508313      -0.00429507       0.01111753
H        6.49085038       6.90987296       5.41870596      -0.01559290      -0.00064659      -0.00488532
H        9.26711416       6.76715002       3.72638681      -0.00019100      -0.00327921       0.01674673
O       12.40794880       0.85320259      11.86854646       0.00444627       0.01125593       0.00291751
N       12.06862647       1.70699945       9.78835889      -0.00126144       0.00700355       0.00199948
C       13.42823022       2.19866877       9.66428943      -0.00316033       0.01057111      -0.00265230
C       11.13820485       2.02419212       8.71808351      -0.00415775       0.00053368       0.00286722
C       11.67660612       1.06395652      10.88524506       0.00270990       0.00798342       0.00380355
H       13.45627147       3.28366769       9.79028668      -0.00689234       0.01141033      -0.01112194
H       13.81184526       1.95375265       8.67446886      -0.00301421       0.00455136      -0.00118643
H       14.04340870       1.73157412      10.42662780      -0.00092569       0.01832467       0.00005957
H       11.02105208       3.10704555       8.63210712      -0.00752348      -0.00025192      -0.00101533
H       10.16518255       1.58549155       8.91733327      -0.00236624      -0.00142173       0.00656865
H       11.50619033       1.63964669       7.76714740      -0.00536259      -0.00183649       0.00343676
H       10.63614131       0.71865931      10.85982945       0.00357759       0.00534128       0.00608508
O        6.37201653       1.15654034      11.89646022       0.00319535      -0.01032007      -0.00547850
N        8.26376654       2.43456427      11.70867679      -0.00277747      -0.00062549       0.00365937
C        8.77931135       2.06060534      13.00783431      -0.00559487       0.00002199       0.00478742
C        8.85774663       3.59494808      11.08067491      -0.00405535       0.00141557       0.00666903
C        7.04913289       1.98729082      11.31559094       0.00129992      -0.00653845      -0.00175348
H        8.67060594       2.89692377      13.70211347      -0.01464281      -0.00252405       0.00641343
H        9.83488648       1.79035083      12.92399499      -0.00331533       0.00902572       0.00813264
H        8.21447149       1.20733753      13.37324577      -0.00037345      -0.00522870       0.00043354
H        8.69310999       4.49641809      11.67328785      -0.00577660      -0.00027809       0.00854024
H        8.42947835       3.74567495      10.09159321      -0.00310232       0.00292705       0.00675753
H        9.93601694       3.45794689      10.96822269      -0.00364894       0.00362008       0.00744032
H        6.73164129       2.44838035      10.36288036       0.00301185      -0.00723845      -0.00267923
O        9.67988673       8.81852058       7.54272145       0.00919485       0.00033569       0.00162425
N        9.52370364       6.61162633       6.95654785       0.00346185       0.00096905       0.00149182
C       10.88057972       6.49988750       6.46389646       0.00355496      -0.00226246       0.00273829
C        8.75697010       5.38905170       7.03363634      -0.00025949       0.00324261      -0.00081905
C        9.06243764       7.76233003       7.47690876       0.00635394       0.00207472       0.00135428
H       10.88908587       6.11434293       5.44387584       0.00328293      -0.00372826       0.00339681
H       11.45431442       5.82383697       7.10436891       0.00185104      -0.00206375       0.00427982
H       11.34612223       7.48043502       6.46788175       0.00497910      -0.00299624       0.00112358
H        8.62736138       4.95591531       6.03998508      -0.00068670       0.00505946      -0.00148571
H        7.78115093       5.59536388       7.46823295       0.00005022       0.00570922      -0.00168814
H        9.26307611       4.65183161       7.65949308      -0.00302365       0.00068586      -0.00158679
H        8.02944280       7.66185391       7.84912866       0.00588042       0.00512447       0.00082573
O        2.37729055       8.36691770       3.82703939       0.01160046      -0.00790405      -0.00744179
N        2.37656907       6.72973072       2.23283607       0.00234780      -0.01334155      -0.00162529
C        2.17549166       7.64472567       1.13223549       0.00327961      -0.01650499      -0.00444847
C        2.55448143       5.33344970       1.91449374      -0.00053486      -0.01472577       0.00297865
C        2.45445839       7.19521814       3.50389430       0.00714263      -0.00900865      -0.00374258
H        1.34631085       7.29871882       0.51143291       0.00149560      -0.01631671      -0.00211580
H        3.07100846       7.72075710       0.50935716       0.00235543      -0.02110078      -0.00602086
H        1.94261192       8.62436426       1.54078694       0.00624388      -0.01462978      -0.00740054
H        1.68582971       4.95059611       1.37171131      -0.00189555      -0.01496226       0.00554414
H        2.67649632       4.76172103       2.83225720      -0.00031620      -0.01157639       0.00480497
H        3.44425942       5.18159441       1.29583780      -0.00181612      -0.01866085       0.00228599
H        2.59934846       6.38166733       4.23500971       0.00710686      -0.00693026      -0.00127837
O        4.29714513       9.49792084      10.56051725      -0.01355052       0.02155709       0.02609110
N        5.09876460      11.47723077       9.74044397      -0.00738092       0.00606245      -0.00508492
C        3.82528941      12.16390802       9.80288666      -0.00221457       0.01520887      -0.00390077
C        6.25781001      12.26766597       9.37115614      -0.00434051      -0.00526441      -0.01867760
C        5.20916568      10.20137980      10.13910942      -0.01230729       0.01052326       0.01017317
H        3.65493320      12.68912768       8.86089151      -0.00309868       0.00966579      -0.00671118
H        3.83057749      12.88932579      10.62218550       0.00646180       0.02047911      -0.00899661
H        3.04266545      11.42634418       9.96490821      -0.00632256       0.02173680       0.00515169
H        6.09894529      12.72360215       8.39087556      -0.00762200      -0.01032498      -0.02025202
H        7.13682615      11.62575310       9.34143157      -0.00905374      -0.01163122      -0.02082264
H        6.42268917      13.04806652      10.11697346       0.00688491      -0.00136340      -0.02545562
H        6.24623048       9.83161024      10.04732928      -0.01585978       0.00270012       0.00693113
O        1.20600789      11.94927081       0.50559820       0.00219932      -0.00505300      -0.00834892
N        2.88685586      11.22503215       1.87302834       0.00183250      -0.00258266      -0.00717613
C        2.29038325      11.67903386       3.12545510      -0.00214344      -0.00687022      -0.00786030
C        4.15668317      10.52165953       1.99043929       0.00430664       0.00288564      -0.00577522
C        2.31191345      11.39908592       0.69763733       0.00281858      -0.00288782      -0.00800496
H        3.04730559      12.21278791       3.70265300      -0.00847822       0.00325447      -0.00923672
H        1.95081913      10.82113695       3.70697319       0.00835413      -0.00947040      -0.00579633
H        1.45275504      12.33561953       2.90739228      -0.01007988      -0.01744099      -0.00812160
H        4.88599733      11.16864819       2.48668003      -0.00004935       0.00491333      -0.00222045
H        4.51038921      10.24833265       0.99834568       0.00786819       0.00618285      -0.00527000
H        4.00206404       9.63057420       2.60111664       0.00725918       0.00138336      -0.00751540
H        2.89023737      11.00781189      -0.14857722       0.00454326      -0.00086431      -0.00776589
O        1.72680939       9.38346359       7.86648302      -0.01444745      -0.00749213       0.03166187
N        3.89044364       9.05702214       7.19356457      -0.01978505       0.00401536       0.01122267
C        3.86720122       7.63116286       7.39255363      -0.01328232       0.00332201       0.01090150
C        5.14040397       9.65417553       6.78049185      -0.02331832       0.00553253      -0.00206841
C        2.79062914       9.80912432       7.43973194      -0.02516103      -0.00285795       0.01943502
H        4.51473151       7.34339052       8.22748241      -0.00546676       0.00482271       0.00515985
H        4.21031760       7.12153780       6.48680902      -0.01913346       0.00452106       0.00820112
H        2.84732337       7.32889744       7.61411314      -0.01058775       0.00073080       0.01904121
H        5.94185912       9.37028672       7.47172913      -0.01625611       0.00720936      -0.00935251
H        5.04915376      10.73863468       6.76593429      -0.02511059       0.00509042      -0.00149098
H        5.42137929       9.32950235       5.77453672      -0.03267333       0.00496627      -0.00453445
H        2.96487250      10.87154166       7.20027619      -0.02357027       0.00016546       0.01315032
O        9.44053407       6.50444163      10.22727010       0.01720592      -0.00387740       0.00972198
N       11.18796734       7.97567819      10.26859480       0.01827011      -0.00485065      -0.00182128
C       12.19950408       6.97840935      10.01228229       0.01660450      -0.00557282      -0.00423253
C       11.61585609       9.35483035      10.29893085       0.01979366      -0.00518745      -0.01072722
C        9.88479461       7.64318029      10.33930371       0.01865488      -0.00367546       0.00369615
H       12.90832209       6.92734223      10.84458106       0.02900402       0.00492757      -0.01594770
H       12.75612832       7.23346689       9.10778925       0.01527667      -0.00611256      -0.00383115
H       11.70737899       6.01601031       9.89719022       0.01614736      -0.00573549      -0.00141821
H       12.27720500       9.53839667      11.14949345       0.03053603      -0.00375264      -0.01934648
H       10.74941191      10.00446281      10.39137129       0.02129504      -0.00488557      -0.00207316
H       12.16300476       9.59617051       9.38518643       0.00936510      -0.00766206      -0.01750481
H        9.23993267       8.51694024      10.52440094       0.01918569      -0.00305063       0.00272125
O       11.18897374      11.92840646       2.13431654       0.01280620      -0.01288050      -0.00486219
N       10.03469061      10.42266734       3.38790923      -0.00454898       0.00654963       0.00244731
C        8.84014636      10.42681654       2.56475191       0.00106719       0.00471035      -0.00563475
C       10.03486902       9.55795545       4.54644394      -0.01766812       0.01860860       0.01154628
C       11.09700374      11.16457955       3.10967276       0.00155592      -0.00234598       0.00132325
H        7.97321275      10.67278574       3.18370268      -0.00211734       0.00860023      -0.01188868
H        8.70074224       9.43981303       2.11661560       0.00144230       0.00242057      -0.00044993
H        8.94403357      11.16180158       1.77354615       0.00763458      -0.00034356      -0.00939414
H        9.33088822       9.90926967       5.30022074      -0.02454171       0.02755684       0.00063050
H       11.03330626       9.50999919       4.96484491      -0.02252489       0.02264459       0.02332567
H        9.77416975       8.54697888       4.23726809      -0.01601101       0.01555169       0.01976946
H       11.92471267      11.04592492       3.82121519      -0.00369278       0.00005864       0.00780287
O       13.38983530      10.41259434       5.37763920       0.01224267       0.00378859      -0.00043309
N       12.30584707      11.81121478       6.82180332       0.01335496       0.00029191       0.00332711
C       12.97667294      13.00044736       6.35019480       0.01261457       0.00134164       0.00463434
C       11.26651932      11.95616698       7.81897572       0.01371146      -0.00124663       0.00381497
C       12.65252420      10.59897259       6.33436103       0.01282811       0.00147349       0.00033921
H       13.45102169      13.51731176       7.18873880       0.00851473       0.00244851       0.00608021
H       12.27162013      13.68281844       5.86926639       0.01262099      -0.00007273       0.00260155
H       13.74533799      12.70580745       5.64015969       0.01530792       0.00285320       0.00745529
H       11.67370297      12.28038253       8.78219953       0.01387066      -0.00154936       0.00377598
H       10.75325044      11.00545746       7.95058092       0.01442464      -0.00154260       0.00351994
H       10.53235886      12.69570735       7.48721272       0.01297516      -0.00169456       0.00463709
H       12.15153536       9.78017580       6.87536228       0.01328909       0.00022727      -0.00120854
O        6.57568764       4.19052808      13.47950496      -0.01658225       0.00014472      -0.00407457
N        6.28003967       6.37128627      12.86526222       0.00033644       0.00148511      -0.00773361
C        7.59802371       6.80226484      13.28446279      -0.00180182      -0.00445203       0.00471516
C        5.46089190       7.34351099      12.17712884       0.01000839       0.00572759      -0.01332183
C        5.90997990       5.08500306      12.98007402      -0.00747934       0.00375605      -0.01035142
H        7.50931574       7.67441397      13.93545435      -0.00401054      -0.00293928       0.00229113
H        8.18574780       7.08853022      12.41006110       0.00873864      -0.00911272       0.01039279
H        8.08492270       5.98771405      13.81427173      -0.01092663      -0.00556561       0.01121974
H        5.32949079       8.23755319      12.78877527       0.00702069       0.00496316      -0.01318128
H        4.48347492       6.92034276      11.95513690       0.01062746       0.00986105      -0.02307320
H        5.92081608       7.65283433      11.23837276       0.02072129       0.00565022      -0.00807175
H        4.89866942       4.90479530      12.57125337      -0.00455397       0.00862440      -0.01894680
