191
Lattice="13.211608563953359 0.0 0.0 0.0 13.211608563953359 0.0 0.0 0.0 13.211608563953359" Properties=species:S:1:pos:R:3:forces:R:3 energy=-347934.21875 stress="-0.0014688484370708466 0.00027274215244688094 0.0006351488118525594 0.00027274215244688094 -0.0011558184633031487 0.0010055804741568863 0.0006351488118525594 0.0010055804741568863 -0.0001291962107643485" pbc="T T T"
Sr      11.65597717      13.67519514      -0.27504377      -0.01391055      -0.00461270      -0.00699256
Br      10.05110389      11.87610625       8.42292970       0.01020301       0.01493246       0.02765429
O       11.63562953      11.52574061       8.34082998       0.00939989       0.01038389       0.02775073
O        9.67616102      12.99726789       7.31452803       0.01708707       0.02432120       0.03528786
O        9.17496076      10.53167217       8.21384124       0.00635391       0.01964605       0.01556961
O        9.74475966      12.49941978       9.91225417       0.00795190       0.00521499       0.03135806
Br       5.09521880      12.07378501       5.13260857       0.01168296       0.00447884      -0.00503329
O        5.16235094      13.64570019       4.70098599       0.00187954       0.00233042      -0.01382229
O        3.76384695      11.42286320       4.47963659       0.01662707      -0.00840127      -0.00286460
O        6.41467641      11.30988072       4.56093453       0.01689005       0.00988269       0.00067666
O        5.03901437      11.96073365       6.75164900       0.01115317       0.01387031      -0.00452042
O       12.67988384      10.82391236       4.07310800      -0.00392783      -0.02533901      -0.00738430
N       10.73862305      11.47664358       3.05234264      -0.01412261      -0.00748225      -0.00249816
C        9.87855363      10.71533483       3.94119576      -0.01062188      -0.00332312       0.00280286
C       10.16187959      12.14678825       1.90775004      -0.02050505      -0.00858819      -0.00145005
C       12.08517592      11.42535945       3.20791375      -0.02219313      -0.00730503      -0.02785796
H        9.65206669       9.73505673       3.51383933      -0.00894694      -0.00728059       0.01070103
H        8.94341709      11.24735413       4.11138028      -0.01181197      -0.00602242       0.00291377
H       10.39819150      10.57049700       4.88567402      -0.00769249       0.00242807       0.00316417
H       10.45967570      11.64193816       0.97213167      -0.01931253      -0.00460191      -0.00305721
H       10.44354943      13.21362416       1.91989371      -0.02947282      -0.00601329      -0.00309441
H        9.07275866      12.13225892       1.96756160      -0.02087083      -0.01546790      -0.00086021
H       12.61635087      12.03210502       2.43767367      -0.01707724      -0.02273238      -0.02057743
O       12.46168554       1.80994423       1.51921774      -0.00906432      -0.00092977      -0.00650744
N       12.54699353       3.43316706       3.12451277      -0.00454479      -0.00074327      -0.00764801
C       11.78177283       4.40982856       2.38507632      -0.00727481      -0.00210172      -0.00611222
C       12.95604742       3.84479788       4.46168691       0.00171387       0.00084360      -0.01058471
C       12.78243809       2.21833496       2.66738070      -0.00578377      -0.00184602      -0.00950845
H       12.29445459       5.36964725       2.44031026      -0.00776288      -0.00170770      -0.00818973
H       10.79721300       4.52328063       2.84713867      -0.00607687      -0.00234753      -0.00361520
H       11.66784707       4.09182378       1.35280871      -0.01004058      -0.00217456      -0.00551003
H       13.63883224       4.69392831       4.40915597       0.00236073       0.00011480      -0.01557260
H       13.44529815       3.02078831       4.96690432       0.00384131       0.00146198      -0.01201086
H       12.06839212       4.14150424       5.02762022       0.00460747       0.00238745      -0.00685936
H       13.30248954       1.57464630       3.38040797      -0.00259930      -0.00066575      -0.00969279
O        8.58134232       3.18843622       6.97135820       0.00918281       0.01105326      -0.00270188
N        9.27745571       1.78985870       5.29434797       0.00617577      -0.00233039       0.00800538
C        7.97700991       1.23278858       4.98552876       0.00449836      -0.00122841       0.01310756
C       10.40590213       1.21497181       4.60631683       0.00331482      -0.00794525       0.00788299
C        9.45914201       2.67389515       6.27834572       0.00847894       0.00503504       0.00021976
H        8.01327383       0.14572960       5.05807843       0.00269591      -0.00084752       0.01788120
H        7.66667171       1.49482222       3.97131728       0.00310712      -0.00539500       0.01259476
H        7.24721083       1.60084540       5.69355919       0.00680518       0.00430243       0.01270351
H       10.38039787       0.13008830       4.70109434       0.00244443      -0.00735718       0.01431829
H       11.33418975       1.56887655       5.04959338       0.00510439      -0.00563042       0.00227076
H       10.37077475       1.48179908       3.54526566      -0.00039963      -0.01503071       0.00631985
H       10.52744001       2.91359451       6.41841772       0.00861192       0.00540414      -0.00227670
O        2.36645403       2.08910011       3.73390994      -0.00644853       0.01115105      -0.00892496
N        3.52660389       2.16222819       1.76516163       0.00555257       0.00227733      -0.00591217
C        4.51126976       3.09927200       2.25989437       0.00379755       0.00266005      -0.00357548
C        3.57378534       1.76889937       0.37639552       0.01034595      -0.00015179      -0.00576556
C        2.55534026       1.71482384       2.59262663      -0.00003740       0.00552433      -0.01516366
H        4.41019075       4.07241714       1.76873962       0.00492682       0.00176087      -0.00560626
H        5.51599571       2.70285332       2.09074987       0.00464749       0.00294137       0.00095523
H        4.35144953       3.22366787       3.32666819      -0.00144382       0.00367548      -0.00406805
H        3.28808556       2.59809126      -0.27985073       0.01771883       0.00060672      -0.00902696
H        2.88863260       0.93914393       0.20570491       0.00767632       0.00229281      -0.00620339
H        4.57860064       1.43755470       0.10612231       0.00871247      -0.01042244      -0.00063085
H        1.92063488       0.95609703       2.10243863      -0.00003725       0.00828072      -0.01232697
O        2.35759228       5.43145727       5.48642285       0.00063622       0.00458837      -0.01380473
N        4.41941101       4.49593878       5.78392048      -0.00397778      -0.00141832      -0.00134520
C        5.14021037       5.74189872       5.66895400       0.00137343      -0.00506851      -0.00809235
C        5.21386734       3.30290738       5.95012007      -0.00854317      -0.00367340       0.00480782
C        3.07426762       4.45872232       5.69002350      -0.00331640       0.00283635      -0.00561945
H        5.77364296       5.73829274       4.77514264       0.00075603      -0.01261987      -0.00839883
H        5.78491389       5.89314101       6.53486648       0.00227085      -0.00330859      -0.00921714
H        4.43094281       6.55863086       5.60434925       0.00485671      -0.00232878      -0.01184282
H        5.94178168       3.23273169       5.13823013      -0.00919271      -0.01100684       0.00507981
H        4.59189107       2.41127772       5.91831151      -0.01205078      -0.00126600       0.00945327
H        5.78422878       3.33474254       6.88253654      -0.00866759      -0.00071359       0.00472414
H        2.67521795       3.44000140       5.80931542      -0.00785932       0.00532711      -0.00066467
O       13.20576510       1.57310585       6.53187378       0.01228479       0.00977033      -0.00415838
N       12.68337364       2.00909536       8.70669477       0.01290062       0.00375244      -0.00124422
C       12.63028224       3.44540803       8.52732648       0.01256349       0.00374544       0.00000389
C       12.20785660       1.48341859       9.95688509       0.01866467       0.00073475       0.00028462
C       12.94701758       1.18357029       7.65795572       0.00774139       0.00512201      -0.00134265
H       13.15064081       3.94372499       9.34731124       0.00941716       0.00502612       0.00088626
H       11.59457426       3.79865543       8.50748845       0.01214179       0.00134573      -0.00367569
H       13.11104956       3.70314027       7.58756548       0.01466674       0.00433160       0.00111228
H       12.81321768       1.89859818      10.78526846       0.02095367       0.00095293      -0.00178023
H       12.27332435       0.39221025       9.94665429       0.02417870       0.00099441      -0.00170075
H       11.15940578       1.75342263      10.11668144       0.01761228      -0.00445512       0.00491487
H       12.88781287       0.12111463       7.92385446      -0.00404053       0.00611174      -0.01038751
O        9.88530802       2.00094887      12.35923836      -0.02667857      -0.03229371      -0.00367371
N        8.50992127       2.23801807      10.53812317      -0.01591356      -0.00856780      -0.00638846
C        8.91591801       3.58784214      10.18476873       0.00726096      -0.01416883      -0.00058070
C        7.59863089       1.57529306       9.61733959      -0.01629397       0.00549105      -0.01530400
C        8.99634966       1.58118767      11.57452916      -0.03043489      -0.01834145      -0.00525707
H        8.03330751       4.23031574      10.15262306       0.01896426       0.00176021      -0.00024541
H        9.34041037       3.58601459       9.18089193       0.00843643      -0.01725445       0.00008941
H        9.62165520       3.96180164      10.92158777       0.01223803      -0.02898291       0.00189720
H        6.66152356       2.13168888       9.55089050      -0.01308519       0.01068567      -0.01556807
H        7.41531387       0.56595711       9.96742134      -0.02375095       0.00296658      -0.02676450
H        8.05211385       1.53325825       8.62879169      -0.01235431       0.01330525      -0.01362750
H        8.57085488       0.58005057      11.69433657      -0.04854234      -0.01004837      -0.00379426
O       12.50751914       7.53919447       6.49232401      -0.00296915       0.00081832       0.02970624
N       10.37445301       6.92176596       5.96642293      -0.00065500       0.00511530       0.01452297
C       10.12834499       6.29479750       7.24680273      -0.01258101       0.00978961       0.01470529
C        9.26645603       6.96292746       5.04218517       0.00466476       0.01051190       0.00833101
C       11.56667153       7.52370814       5.71969017       0.00216019       0.00051883       0.02144927
H        9.76599189       5.27405615       7.10574806      -0.02279723       0.01349667       0.01457348
H        9.36761011       6.85444936       7.79894470      -0.00847545       0.01889220       0.01111040
H       11.06336627       6.29627257       7.80228280      -0.01500648       0.00071499       0.01834878
H        8.92758651       5.94568495       4.81574847      -0.00293823       0.01255903       0.01130568
H        9.58402614       7.44531723       4.11793670       0.01374716       0.00350177       0.00795114
H        8.42206499       7.51764909       5.46360725       0.00714046       0.01950169       0.00128084
H       11.60288387       8.00593677       4.72561503       0.01272186      -0.00363907       0.02031970
O        1.55693465       9.06249235       0.51173724       0.00762850       0.00179780      -0.01810457
N        2.05803374       6.85338285       0.81927586       0.00187445       0.00258331      -0.00017321
C        3.45597466       7.09184034       1.09345429       0.00069024       0.00184654       0.00643801
C        1.58582171       5.49618495       0.90470323      -0.00022211       0.00354435       0.00405050
C        1.22112912       7.89735961       0.56713289       0.00496582       0.00184226      -0.01144321
H        4.08441591       6.57542586       0.36138408       0.00398859      -0.00196716       0.01198006
H        3.71302244       6.74546858       2.09837702      -0.00542667       0.00533874       0.00914770
H        3.63445325       8.16004828       1.01875754       0.00256438       0.00116986       0.00313795
H        2.13426530       4.84698490       0.21464389       0.00427383      -0.00065754       0.01163018
H        0.53519728       5.46071628       0.62399581       0.00183213       0.00312219      -0.00334094
H        1.70167469       5.09339341       1.91741871      -0.00758858       0.00902598       0.00693578
H        0.17869146       7.57402602       0.41145421       0.00519580       0.00342794      -0.01376331
O        2.73557825      11.01639480      10.96259336      -0.01310873      -0.00064659      -0.00942734
N        4.90092459      11.25098773      10.26522586      -0.01180622       0.00264859      -0.00115895
C        4.74648376      12.63667405       9.88705973      -0.01258998       0.00280757       0.00137966
C        6.20655024      10.65106306      10.06502409      -0.01101870       0.00441956      -0.00165369
C        3.86310569      10.56760802      10.78249190      -0.01221108       0.00090775      -0.00599864
H        5.16166708      12.79584977       8.89119117      -0.01383866       0.00507453       0.00176013
H        5.25787862      13.28262676      10.60924152      -0.00953606       0.00133409       0.00053447
H        3.68818001      12.87891577       9.88541330      -0.01135433       0.00329089       0.00338149
H        6.47377627      10.65624100       9.00624929      -0.01136056       0.00413593      -0.00122482
H        6.20002407       9.62400100      10.42641180      -0.00927614       0.00473452      -0.00155292
H        6.97075057      11.21267873      10.61325863      -0.01170157       0.00476152      -0.00194083
H        4.13315935       9.52792559      11.03577394      -0.01168738       0.00112307      -0.00692113
O        6.85668450      12.80679781       1.47707705       0.01449358      -0.00364792      -0.00658563
N        4.98099073      11.48777817       1.46277348       0.00998442       0.00310710      -0.01329317
C        5.69393354      10.27186174       1.18046350       0.00481319       0.00223366      -0.02287466
C        3.53723876      11.39470357       1.55128296       0.01041035       0.00595813      -0.00692180
C        5.65219317      12.63362203       1.66117779       0.01379371      -0.00048220      -0.00610398
H        5.35786374       9.82225845       0.24162139      -0.00456628       0.00555657      -0.02087361
H        5.53427429       9.56370047       1.99972850       0.01004003       0.00019082      -0.02371401
H        6.74895208      10.51701912       1.11695699       0.00488511      -0.00077993      -0.03155155
H        3.09457856      11.25685408       0.56110418       0.00732179      -0.00185449      -0.00431693
H        3.14893011      12.28826312       2.03276005       0.01358455       0.01107627      -0.01416872
H        3.25324865      10.55102205       2.17767807       0.01134968       0.01212075       0.00181940
H        4.99613637      13.43439365       2.02633261       0.01756316      -0.00060111      -0.00000349
O        5.96043209       8.37801689       7.07254084      -0.00338030      -0.00543815       0.00330234
N        3.70742253       8.45513722       7.49568888      -0.00346780      -0.00278932       0.00005198
C        3.30207675       8.86748770       6.16770759      -0.00106572      -0.00248621      -0.00036387
C        2.65058318       8.28726039       8.46608923      -0.00463563       0.00264047      -0.00045190
C        5.00255167       8.28564505       7.82814745      -0.00353849      -0.00452419       0.00133806
H        2.77547877       9.82016463       6.21406558       0.00122055      -0.00119507      -0.00091579
H        2.64112432       8.11434984       5.73206133      -0.00257069      -0.00091642      -0.00061478
H        4.19071544       9.00210175       5.55760317      -0.00051364      -0.00456931       0.00018284
H        2.16650843       9.24375667       8.68028913      -0.00048994       0.00502408      -0.00200018
H        3.06849878       7.89921673       9.39499361      -0.00696827       0.00205427       0.00029348
H        1.89874675       7.59428017       8.07971298      -0.00745314       0.00565392      -0.00002421
H        5.12208603       8.02444845       8.89345335      -0.00562830      -0.00481561       0.00182420
O       12.10892442      11.61159527      12.01204456       0.00909449      -0.00974366       0.01762941
N       11.47517452       9.74771019      10.86319545       0.01212284      -0.00811206       0.01326920
C       10.10374251       9.72181492      11.34103989       0.01039767      -0.00884409       0.00748044
C       11.81118409       8.74027902       9.86869486       0.01519224      -0.00239426       0.00882754
C       12.35339021      10.65856392      11.23157826       0.01168555      -0.00827646       0.01924202
H        9.92989894       8.78632905      11.87312425       0.00655776      -0.01233736      -0.00001079
H        9.42513004       9.79548115      10.49144791       0.01326874      -0.00212710       0.00592154
H        9.93632122      10.55465245      12.01358879       0.00928810      -0.01362821       0.01300055
H       11.73249992       7.74424582      10.31099358       0.01040158      -0.00546750       0.00081977
H       12.82019753       8.89917382       9.50182841       0.01779222      -0.00237007       0.01601508
H       11.12218409       8.82239711       9.02800682       0.02094221       0.00416780       0.00501913
H       13.35405411      10.54853723      10.80600747       0.01345971      -0.00992336       0.02349171
O       11.17426576       8.82206872       1.01321735      -0.00400788      -0.00130320       0.00671440
N        9.34012018       7.45555185       1.13553592      -0.00247859      -0.00301699       0.00534441
C        8.37670896       8.53371670       1.17277584      -0.00344887      -0.00413451       0.00800974
C        8.82871808       6.11338634       1.26978760      -0.00100943      -0.00347823       0.00567417
C       10.66655459       7.71645720       1.06701008      -0.00274390      -0.00126040       0.00448211
H        7.83058170       8.53302075       2.11873020      -0.00023724      -0.00321104       0.00981289
H        7.66132343       8.42848251       0.35301223      -0.00596839      -0.00602549       0.01068830
H        8.90911740       9.47508008       1.07037252      -0.00478832      -0.00368845       0.00501400
H        8.48449124       5.91500556       2.28949978       0.00859790      -0.00719494       0.00815660
H        9.59819865       5.39208843       1.00546627      -0.00364205      -0.00251880      -0.00415112
H        7.98298293       5.97401737       0.59616006      -0.00727886      -0.00108236       0.01315427
H       11.26090104       6.78588777       1.04764681      -0.00192842      -0.00082952       0.00104820
O        5.72347297       7.36099859      11.08323357      -0.00079224       0.00635505       0.00722355
N        5.64775730       5.12241948      11.55438575      -0.00086458       0.00379165      -0.00319744
C        4.30631522       4.93037869      11.04945696       0.00049216       0.00519277      -0.00709604
C        6.26058945       4.01041722      12.24475258      -0.00170923       0.00108343      -0.00671050
C        6.23682889       6.33854055      11.50155073      -0.00120918       0.00355315       0.00474948
H        3.62199073       4.67737701      11.86288594      -0.00297423       0.00729481      -0.00944868
H        4.29898252       4.11600398      10.32214041       0.00144541       0.00463349      -0.00646828
H        3.97490678       5.84988966      10.57777635       0.00357324       0.00526625      -0.00915986
H        5.76663592       3.82449854      13.20060185      -0.00329691      -0.00345747      -0.00842816
H        7.31203651       4.21953904      12.43014668      -0.00221846       0.00083116      -0.00375386
H        6.19110995       3.10291961      11.64283711       0.00001766       0.00377299      -0.01072158
H        7.27310261       6.31156085      11.87932319      -0.00299859       0.00295164       0.00814134
