199
Lattice="13.727883512227521 0.0 0.0 0.0 13.727883512227521 0.0 0.0 0.0 13.727883512227521" Properties=species:S:1:pos:R:3:forces:R:3 energy=-635190.8125 stress="-0.0008685944485478103 -0.00021461221331264824 -0.0007672978681512177 -0.00021461221331264824 0.00040714244823902845 1.1465582701930543e-05 -0.0007672978681512177 1.1465582701930543e-05 -0.0013014294672757387" pbc="T T T"
Tb      14.71255115      14.28635203       0.94132801       0.00168720       0.01605624      -0.02221942
Br       4.57939414      12.02229826       5.41958508      -0.01982275       0.00297891      -0.00167090
Br       7.79085244      13.66696280      14.14379681      -0.01732711      -0.02772654      -0.00958990
Br      13.19760600      12.71171637      -0.61765658      -0.01259167       0.00310162       0.00894416
O       13.05943965       1.69294978       1.96019756       0.00406545      -0.00481370       0.00665373
C       13.11657146       3.58567958       3.33517913       0.02177234      -0.01512587       0.00606248
C       13.08210968       2.36500430       4.26785609       0.00317221      -0.00874892      -0.00362104
C       12.51707906       3.05477573       2.05724374       0.00564826      -0.00522029       0.01285347
C       13.12506634       1.15261885       3.32716525       0.02000612      -0.00122106       0.00716397
H       12.54646748       4.42704802       3.72613358       0.01948181      -0.00340071       0.00847580
H       14.13634043       3.93338151       3.15959651       0.01137972      -0.01464545       0.00074366
H       13.90284731       2.36360946       4.98342857       0.01751214      -0.00996842       0.00346127
H       12.14916371       2.34554100       4.83229370       0.02048531      -0.00776586       0.00336510
H       11.42999556       2.97565951       2.11026978       0.00800598      -0.00419848       0.01239853
H       12.82167935       3.57116243       1.15158212       0.00207614      -0.00374226       0.00676106
H       14.07212178       0.57669919       3.40866195       0.00808069      -0.00544521      -0.00282130
H       12.28891001       0.46930494       3.47559660       0.01059112      -0.00922421       0.00537066
O        8.72726448       0.56850931       5.26424194       0.00507377      -0.01064497       0.00296274
C        9.06440277       2.80783387       4.54965257      -0.00798522      -0.01061094      -0.00311511
C        8.84451781       1.90509415       3.33653504      -0.01058674      -0.01359385      -0.00028515
C        9.36895818       1.78083332       5.63652891      -0.00084569      -0.00621742      -0.00120261
C        8.10296932       0.73978661       3.97045784      -0.00121011      -0.01632112       0.00538534
H        9.87411264       3.53325586       4.42978273      -0.01232183      -0.00791341      -0.00761252
H        8.15694105       3.36267762       4.79234694      -0.01024258      -0.01340576      -0.00061604
H        8.29287320       2.36406215       2.51843320      -0.01673608      -0.01793103       0.00263008
H        9.79970164       1.55402451       2.93021904      -0.01014540      -0.00971363      -0.00461204
H       10.44699349       1.59250351       5.68669133       0.00086260      -0.00095055      -0.00408728
H        9.03403184       2.09300658       6.63195713       0.00060824      -0.00550705      -0.00180531
H        7.04361036       0.96488805       4.10251885      -0.00196916      -0.01932363       0.00998798
H        8.18985357      -0.19050876       3.41410425       0.00020376      -0.01658499       0.00777659
O        1.23485958       3.29709131      13.62216143       0.00105214      -0.03840467      -0.00745663
C        1.47621342       4.19659314      11.45942796      -0.00345200       0.00382590       0.00999531
C        1.90467184       2.72901410      11.38988376       0.00762367       0.01043993      -0.01808524
C        1.64596228       4.52325402      12.92978124      -0.00500947      -0.02333018       0.01522186
C        1.44895066       2.19427045      12.74235277       0.00876053      -0.01884919      -0.03185850
H        2.07165694       4.83832253      10.81257829      -0.00447084       0.01870415       0.02388380
H        0.42928909       4.30151322      11.17034025      -0.00239223       0.00285092       0.00915201
H        1.46293682       2.18410526      10.55862081       0.00992697       0.02503784      -0.02880061
H        2.98859432       2.64035844      11.30626108       0.00711134       0.01784631      -0.01764259
H        2.68765252       4.74210393      13.18589733      -0.00664055      -0.02222900       0.01715854
H        1.01623417       5.32574124      13.30909888      -0.00769803      -0.03280322       0.02800969
H        0.48994058       1.63554248      12.64912131       0.01095174      -0.01905392      -0.04148429
H        2.26901937       1.52906545      13.13681429       0.01198326      -0.01938725      -0.04320475
O        5.06579868       1.90742966       3.27280225       0.00749919       0.01611467       0.00351940
C        3.94183518       2.86132955       1.43827788       0.00598009      -0.00175315      -0.00596756
C        2.97035306       2.01184740       2.26236211       0.01025233      -0.00891688      -0.00801959
C        5.26165903       2.26011564       1.89020254       0.01035786       0.01814871       0.00575411
C        3.69186767       2.00817695       3.61567214       0.00442004      -0.00683201      -0.00609082
H        3.80267690       2.80210040       0.36012184       0.01526895      -0.01725124      -0.00680366
H        3.84852472       3.90925873       1.73952182      -0.00300224       0.00102994      -0.01590200
H        1.94741301       2.41959617       2.30018970       0.01056548      -0.00956735      -0.00368098
H        3.02030828       0.97266184       1.88507092       0.01064479      -0.00677350      -0.01164278
H        5.51906004       1.35910983       1.32198505       0.03092273       0.02187234       0.00945759
H        6.10675389       2.94540230       1.80618556      -0.00312534       0.03527737       0.01344108
H        3.49405713       2.95649524       4.14045844      -0.01377469      -0.01276895      -0.00420934
H        3.44282409       1.17552504       4.27943544       0.01550624      -0.01634699      -0.01212305
O        6.43461118       5.44673792       5.20708881      -0.00988722       0.01965697      -0.00176308
C        7.40431041       6.92953358       3.67136759       0.00485178       0.00617552      -0.00395593
C        7.12436260       5.61608965       2.94069219       0.00163081       0.00471674       0.00005871
C        7.45427862       6.44378801       5.11046456      -0.00209647       0.01119912      -0.00224400
C        6.14916018       4.93280465       3.89738166      -0.00334112       0.01134460       0.00015777
H        8.31440992       7.43141400       3.34432837       0.00829875       0.00097968      -0.00291082
H        6.56947393       7.62338869       3.54245296       0.00863364       0.00919932      -0.00906269
H        6.71595159       5.74519836       1.93875876       0.00396822       0.00341086      -0.00124943
H        8.04420656       5.03309241       2.84663745      -0.00078395       0.00097062       0.00338560
H        8.43273076       5.99768998       5.34072105      -0.00613153       0.00485364       0.00190876
H        7.24953628       7.21483325       5.85511022       0.00123553       0.01511264      -0.00534394
H        5.11128734       5.18778836       3.64779850      -0.00210541       0.00924779      -0.00607451
H        6.22672237       3.84506625       3.91366969      -0.00344726       0.01154590       0.00763835
O       13.70078765       1.79197706       9.06802533      -0.00147629      -0.00556818      -0.00193010
C       11.34942882       1.65080936       9.37684840      -0.00115818      -0.01025179      -0.00188857
C       11.73004108       1.16869226       7.98077120       0.00118655      -0.01275964      -0.00054270
C       12.61230497       2.40272806       9.77895160      -0.00304925      -0.00710893      -0.00255883
C       13.18111978       0.78642898       8.18991051       0.00030336      -0.01065081       0.00303479
H       10.46056425       2.28154342       9.39767397      -0.00225025      -0.01069941      -0.00505517
H       11.17691833       0.80000664      10.03937775       0.00065178      -0.00974762      -0.00097656
H       11.10799430       0.35987325       7.60219693       0.00259660      -0.01474401       0.00069277
H       11.67225638       2.00744127       7.28270375      -0.00137341      -0.01515332      -0.00213447
H       12.56147798       3.45823175       9.48344337      -0.00524619      -0.00713345      -0.00396883
H       12.80994499       2.35599196      10.85283970      -0.00239478      -0.00630558      -0.00201356
H       13.26552027      -0.20078668       8.66158203       0.00206703      -0.00743419       0.00724480
H       13.78574027       0.79256559       7.28119596       0.00244915      -0.01222339       0.00164074
O        8.85209760       4.46347246      12.87629701      -0.00302345      -0.01095457       0.01903071
C       10.52421809       2.82253261      12.73489153      -0.00104141      -0.00653940       0.00938374
C       11.13351495       4.16889262      12.34228577      -0.00484896      -0.00551466       0.00614005
C        9.05243750       3.09120864      12.49468057      -0.00162882      -0.00843647       0.01110654
C       10.10763670       5.14267381      12.91347570      -0.00444257      -0.00733715       0.01066002
H       10.89600106       1.96995540      12.16961174       0.00101147      -0.00859383       0.01296422
H       10.68129043       2.61716029      13.79472572       0.00121986      -0.00413975       0.00927216
H       12.14060958       4.34227070      12.72626907      -0.00392556      -0.00416712       0.00391358
H       11.16985906       4.26132221      11.25247697      -0.00713065      -0.00464601       0.00656521
H        8.81013902       2.96718704      11.42911715      -0.00343387      -0.00219114       0.01106149
H        8.39337523       2.44730194      13.07754715      -0.00068507      -0.01282975       0.00775996
H       10.34497266       5.39547185      13.95663609       0.00110512      -0.00659936       0.00883937
H       10.02615384       6.07408149      12.34935401      -0.01071559      -0.00713694       0.01091972
O       10.32594259       6.71546959       7.37336702       0.00342306       0.00422723      -0.00057562
C       11.81518465       6.47099528       5.59221334       0.00052772       0.00077623      -0.00394541
C       12.41007289       5.73161963       6.79080571      -0.00101811      -0.00174630      -0.00479618
C       10.89725217       7.45423882       6.29523805       0.00157222       0.00187099      -0.00338969
C       11.20605606       5.64131676       7.73156771      -0.00067848      -0.00038587      -0.00465605
H       12.55624262       6.95257588       4.95454345       0.00013140      -0.00061110      -0.00354438
H       11.21519304       5.79117166       4.98004635      -0.00137162       0.00133067      -0.00430235
H       12.82428144       4.75177400       6.55078478      -0.00192315      -0.00107744      -0.00513380
H       13.20616405       6.33081228       7.23879329      -0.00034708      -0.00209349      -0.00367886
H       11.47102279       8.31019822       6.67930234       0.00399485       0.00160122      -0.00476748
H       10.08421747       7.83377899       5.67527110       0.00201833       0.00246716      -0.00187480
H       10.66077637       4.69906979       7.60301121      -0.00396478       0.00169766      -0.00878493
H       11.48381890       5.73800071       8.78611705      -0.00083840      -0.00565815      -0.00471076
O        1.61817659       6.80028000       1.93672304       0.00275522      -0.00948995      -0.00145864
C        3.79779056       7.62389982       2.23395243      -0.00308794       0.00641186      -0.00616385
C        3.20153239       7.37549227       3.61738395       0.00037485       0.00691178      -0.00466484
C        2.53587180       7.76385062       1.40134806      -0.00496531      -0.00390102      -0.00465736
C        2.01799328       6.47567583       3.28022261       0.00503710      -0.00076339       0.00011219
H        4.44521376       8.49879385       2.18930756      -0.00879046       0.01003993      -0.00969404
H        4.37257960       6.75328512       1.90379726       0.00154015       0.00870332      -0.00456937
H        3.89269250       6.90751774       4.31573892       0.00403732       0.01327886      -0.00429125
H        2.87089657       8.31922827       4.05751886      -0.00475699       0.00625518      -0.00713972
H        2.11487863       8.77390950       1.50531138      -0.01193248      -0.00670105      -0.00576028
H        2.67095659       7.55322730       0.33866735      -0.00522101      -0.00479820      -0.00436205
H        2.31277888       5.41821263       3.30409024       0.01008430       0.00098473       0.00485004
H        1.16414421       6.61001464       3.95031682       0.00490534      -0.00189690       0.00014785
O        5.20956169      12.76830633      10.39853684      -0.01231629       0.00646392       0.01511109
C        6.50142546      10.84133044      10.53449758      -0.00465456       0.01304960       0.00097325
C        7.46213236      12.02047753      10.71321770      -0.00666118       0.01366325      -0.00059700
C        5.37316096      11.50061129       9.75751025      -0.01109967       0.01062769       0.00908270
C        6.51584545      13.22779847      10.79243435      -0.00894606       0.01274621      -0.00612231
H        6.94941800       9.98878929      10.02342940      -0.00736220       0.01450175      -0.00357647
H        6.13290824      10.49478240      11.50350064       0.00556651       0.01660058       0.00555545
H        8.07961919      11.95800810      11.60947878      -0.01371229       0.01357635       0.00369400
H        8.11761630      12.10125953       9.84287730      -0.00256024       0.01257183       0.00260797
H        5.64816586      11.63825349       8.70227791      -0.01356298       0.01847395       0.00926000
H        4.41890443      10.97541206       9.79922584      -0.00862092       0.00735408       0.01250733
H        6.45410328      13.60806639      11.81424692      -0.00051957       0.02613865      -0.01105148
H        6.83738005      14.04310798      10.13310994      -0.01792476       0.00244403      -0.02180484
O        2.39240198      12.54959319       1.26911373      -0.00208040       0.00894316      -0.01233983
C        4.53995692      11.80036201       1.95738912      -0.00055194       0.01428412      -0.00846472
C        4.33488288      11.33228374       0.51723854       0.00160384       0.01124913      -0.00742945
C        3.13387455      11.99359617       2.45747597      -0.00195470       0.01045090      -0.01086819
C        3.13001500      12.12267171       0.03911325       0.00349899       0.01228515      -0.00930750
H        5.08042209      11.09713732       2.58534704       0.00213876       0.01741630      -0.00685026
H        5.10356286      12.73477624       1.98160803      -0.00336145       0.01610994      -0.01159438
H        5.20820402      11.53457591      -0.10132200       0.00246766       0.01033436      -0.00685842
H        4.12085159      10.26111650       0.48084769       0.00006831       0.01150244      -0.00617715
H        2.64286900      11.05825925       2.73226602       0.00142983       0.00872672      -0.01136927
H        3.04036847      12.69302937       3.28457611      -0.00599096       0.00919713      -0.01030558
H        3.42866183      13.03318741      -0.49291544       0.00726874       0.01354825      -0.00448553
H        2.43275703      11.56155662      -0.58093694       0.00749946       0.01495484      -0.01619330
O        6.39427944       3.66487910       8.94160674       0.00828230      -0.01159674       0.00690705
C        6.36051910       4.71179715      11.04990826       0.00945283       0.01021499      -0.00509721
C        4.92380490       4.47946883      10.60333575       0.00915408       0.01144037      -0.00383067
C        7.08349433       4.65069262       9.71803529       0.00887847      -0.00348669      -0.00436676
C        5.10606312       3.41920528       9.52045929       0.00561491       0.00100872       0.00585741
H        6.53347030       5.64548228      11.58024021       0.01173429       0.01579639      -0.01403084
H        6.67969259       3.89334864      11.69569084       0.00708026       0.01686844       0.00270157
H        4.28620190       4.14774031      11.41836459       0.00720118       0.02099280      -0.00053570
H        4.49661396       5.39283975      10.18485796       0.01221438       0.00802183      -0.01171054
H        7.03984615       5.62179798       9.20810649       0.00945972      -0.00951564      -0.01470900
H        8.13183301       4.35546214       9.80055305       0.00899217      -0.00384882      -0.00134662
H        5.09656402       2.40751630       9.94498093      -0.00199230       0.00451314       0.01283056
H        4.34934287       3.46432890       8.73224064       0.00773925       0.00049484       0.00326198
O        3.13831739       9.03023128       8.88163462      -0.00140327      -0.00018731       0.00757286
C        4.23543494       8.40004369       6.87600103      -0.00577861       0.00631118       0.00238240
C        5.14666582       8.10033383       8.06332758      -0.00251567       0.00547877      -0.00044592
C        3.25178793       9.38675875       7.48633051      -0.00929433      -0.00010730       0.00694144
C        4.13478433       8.06545300       9.20022274       0.00034517       0.00001299       0.00163120
H        4.75328178       8.83812256       6.02331865      -0.01026793       0.01013836       0.00296511
H        3.73266468       7.48239064       6.55993933      -0.00325687       0.00432467       0.00100029
H        5.70031091       7.16630042       7.96473864       0.00087867       0.00898248      -0.00387511
H        5.85612163       8.91891133       8.20381432      -0.00510503       0.00874928       0.00051776
H        3.63070184      10.40778801       7.39136418      -0.01474217       0.00226742       0.00616418
H        2.25625535       9.35477984       7.03657809      -0.01017308      -0.00523733       0.01073976
H        3.66716835       7.07166879       9.26049815       0.00161147      -0.00132376      -0.00283965
H        4.56005469       8.30215734      10.17986444       0.00137939      -0.00428128       0.00152206
O        8.39388092       7.84544226      11.20169267      -0.00097507       0.00206746       0.00247321
C       10.12100076       9.45229286      11.16884287      -0.00205082       0.00343406       0.00496271
C       10.52450690       8.28192184      10.27284764      -0.00029129       0.00383738       0.00531030
C        9.05734313       8.80556928      12.04156786      -0.00266442       0.00250041       0.00346494
C        9.17763554       7.61399787      10.02706340       0.00049990       0.00330417       0.00324050
H       10.94072113       9.87424725      11.74778609      -0.00339253       0.00396562       0.00579779
H        9.68484804      10.25114205      10.56563765      -0.00233471       0.00322798       0.00440109
H       11.01176679       8.57690453       9.34500586       0.00145552       0.00366541       0.00651163
H       11.19721171       7.60714811      10.81132183      -0.00129834       0.00376360       0.00702800
H        9.50796074       8.28851233      12.89503571      -0.00306195       0.00266740       0.00383413
H        8.31911305       9.50501948      12.43212637      -0.00353855       0.00173220       0.00281787
H        8.67528723       8.05751278       9.15902810       0.00135598       0.00402281       0.00293639
H        9.24755213       6.53854833       9.85541648       0.00111876       0.00366002       0.00246286
O        9.94482729       9.80526335       1.22973644      -0.00039476      -0.01179670       0.00928390
C       11.26658720      11.22163671       2.60133191      -0.01015776      -0.00281096       0.00955275
C       11.91691563       9.84115700       2.50458160      -0.00246418       0.00070497       0.01166081
C        9.84627688      10.94660432       2.11294640      -0.00763640      -0.00963661       0.00569504
C       11.28551303       9.32366271       1.22170159       0.00248408      -0.00339116       0.01105878
H       11.27918798      11.64553383       3.60600078      -0.01532573      -0.00287971       0.00928783
H       11.77010983      11.91136765       1.91860022      -0.01079781      -0.00088771       0.01086697
H       13.00616921       9.86492601       2.45722975      -0.00284421       0.00682261       0.01311367
H       11.61996987       9.21762165       3.35299874       0.00036752      -0.00062992       0.01176834
H        9.19024190      10.67238238       2.94618972      -0.00908929      -0.01037739       0.00438961
H        9.38852706      11.77875507       1.57248324      -0.01029390      -0.01298368       0.00319910
H       11.82612624       9.72058709       0.35031172       0.00172478       0.00008765       0.01217598
H       11.26105202       8.23315043       1.14749495       0.00916560      -0.00335044       0.01084707
