193
Lattice="13.43982308092483 0.0 0.0 0.0 13.43982308092483 0.0 0.0 0.0 13.43982308092483" Properties=species:S:1:pos:R:3:forces:R:3 energy=-628919.4375 stress="0.00026805183733813465 4.5863074774388224e-05 0.00010299649875378236 4.5863074774388224e-05 0.001049879821948707 0.0008700094476807863 0.00010299649875378236 0.0008700094476807863 -0.0006466226768679917" pbc="T T T"
Tb      11.32319418      11.09205090       1.55044152       0.01023197       0.00079247       0.00388493
Br       6.91168443      12.09224150       3.62335146      -0.01002779       0.00030431       0.01602558
Br       7.17821104      13.73967246      11.02455272      -0.00428170       0.00558409      -0.00085517
Br       0.18162853      12.38977229       1.26753365       0.01057020       0.00608295       0.01669951
O        5.25373375       9.68389783       7.45711157       0.00329629       0.00102526      -0.00657868
C        5.64388439      10.58249683       8.48650935       0.00349203      -0.00296926      -0.00401884
C        4.50080429      11.01219570       9.38374721       0.00401270      -0.00176005      -0.00396460
H        6.44972461      10.14811526       9.09389009       0.00144652      -0.00504160      -0.00296357
H        6.06632900      11.45194906       7.97929652       0.00592300      -0.00369787      -0.00315422
H        4.85708565      11.75029079      10.10438696       0.00200267      -0.00025085      -0.00447986
H        3.69802684      11.45591432       8.79276113       0.00260268      -0.00451966      -0.00388268
H        4.09079899      10.16007971       9.93242069       0.00501958      -0.00166360      -0.00206953
H        4.77605723       8.93304481       7.84292133       0.00131489       0.00064455      -0.00605059
O        9.52627837       7.70414914      10.11921159      -0.00179231      -0.00559960      -0.00733548
C        8.73242421       7.54875063      11.27406572       0.00202787       0.00181708      -0.00210226
C        8.32085802       8.90658356      11.79952384       0.00938727       0.00035942       0.00117482
H        7.83526262       6.95860755      11.05903380      -0.00111848       0.00403458       0.00167362
H        9.28776372       6.98919294      12.04847906       0.00320080      -0.00351763      -0.00405064
H        7.71149405       8.80228498      12.69950420       0.01750735       0.00515434       0.00497685
H        9.19443446       9.52167823      12.02457635       0.01424180      -0.00020716      -0.01074195
H        7.73145840       9.44466519      11.05641469       0.00563650       0.00256458       0.00353856
H        9.44476374       6.89280176       9.57640709      -0.00534531      -0.00012607      -0.00346299
O        3.63648206       9.51003148       0.95822085      -0.00167364      -0.00807041      -0.01523602
C        4.81208513       9.76616634       0.18364155       0.00545394       0.00525457       0.00711209
C        4.95883484      11.22402935      -0.18578966      -0.00002215      -0.00068837      -0.00094867
H        5.69537265       9.42217441       0.73923069       0.00456294       0.01526824       0.00964475
H        4.72340819       9.14106613      -0.70931543       0.01972582       0.00190514      -0.00159106
H        5.83029808      11.38138069      -0.82431861      -0.00754231       0.00853806       0.00067842
H        4.07888400      11.57329673      -0.72576689      -0.00223088      -0.00254868       0.00202995
H        5.08261134      11.83547504       0.70892204      -0.00364299       0.00643102       0.00052398
H        3.64780067      10.09931094       1.75395482      -0.00708372      -0.00416420      -0.00485741
O       13.02070931      12.53665596       5.30689405      -0.01096505       0.00629448      -0.00107227
C       11.61264214      12.67569234       5.35886510      -0.00812435      -0.00194634      -0.00462037
C       10.96253590      12.16680084       4.07416511      -0.00760412      -0.00042397      -0.00419830
H       11.22338664      12.09996579       6.20294643      -0.00297743       0.00194079      -0.00837836
H       11.31143961      13.71341588       5.51550510      -0.01960738      -0.00068718       0.00195836
H        9.87167577      12.21603678       4.14795434      -0.00748840      -0.00270087      -0.00917518
H       11.32617571      12.79329733       3.23974906      -0.00650117      -0.00244500      -0.00140296
H       11.27821053      11.11307882       3.95347257      -0.00898470      -0.00253876      -0.00426667
H       13.39394352      13.42919911       5.26028020      -0.01267421       0.01085999      -0.01156537
O        8.56560509       0.07959230       6.03186918       0.01172581      -0.00374147       0.00108600
C        7.92814596       0.56256612       7.20655681       0.00977633       0.00372380      -0.00039876
C        8.84689550       1.56309928       7.86322627       0.00715807       0.00285012       0.00282940
H        6.96112852       1.02374088       6.96406269       0.01237106       0.00528452      -0.00770694
H        7.71051204      -0.24713435       7.91210322       0.00263856       0.00622725       0.00024372
H        8.43946919       1.86730169       8.82651513       0.00435513       0.00647353      -0.00092827
H        9.82099670       1.10246395       8.03907418       0.00552022      -0.00044933       0.00836243
H        8.99815706       2.43515144       7.22435934       0.01303822       0.00075103       0.00009753
H        7.92546357      -0.41973802       5.49481428       0.01407161       0.00854038      -0.00115208
O        4.65841437       5.88745023      11.83546833       0.00548795       0.01522562       0.02057254
C        5.32845382       4.62501247      12.00684629       0.00113711       0.01471297       0.01933634
C        6.53483360       4.70050543      12.91148930       0.01503265       0.00681598       0.00207773
H        4.62135430       3.86172605      12.35009310      -0.00185680       0.02118611       0.02565536
H        5.64697262       4.33514594      11.00586291      -0.01688083       0.01148498       0.01572442
H        7.08992794       3.76495966      12.83186727       0.01041610       0.00554892      -0.01071884
H        7.19077846       5.51373569      12.60400681       0.01105943       0.00926645      -0.00145135
H        6.26321511       4.85077853      13.95577167       0.02562467       0.00136361       0.00614950
H        4.12070213       6.11604055      12.60908473       0.01930782       0.02299852       0.02660027
O        9.02229366       5.41988854       8.64065081      -0.00395066       0.00499806      -0.00306627
C        7.69737087       5.00690159       8.97339724      -0.00403339       0.00326911       0.00793003
C        6.66204065       6.06455615       8.64303131      -0.00569981       0.00033098       0.00137435
H        7.46042986       4.07216798       8.45510885      -0.00170670       0.00051218       0.00787327
H        7.71008741       4.78391732      10.04300896      -0.00229255       0.00807451       0.00430989
H        5.65898842       5.73025878       8.91214570      -0.00387748      -0.00048085       0.01028764
H        6.86486165       7.00176190       9.16283329      -0.00470131       0.00342682      -0.00366971
H        6.66462526       6.27202823       7.57345271      -0.01203222      -0.00624276       0.00190064
H        9.05794096       5.48090932       7.66278638      -0.00267805      -0.00203618       0.00459453
O        3.10811399       5.69030236       9.69817529      -0.01609075      -0.00920337       0.00794700
C        2.68103540       4.33412166       9.59796475      -0.01269956      -0.00832474      -0.00737539
C        3.68839248       3.43688920       8.90252881      -0.01059976       0.00087532      -0.01528677
H        2.45177110       3.95597302      10.60086150      -0.02232470      -0.02492237      -0.01735342
H        1.74348270       4.34938983       9.03739467      -0.00958157       0.00102410      -0.01717505
H        3.23802226       2.46655866       8.68485556       0.00158738      -0.00578013      -0.00534278
H        4.00415926       3.88826123       7.96056470      -0.02373945      -0.00138243      -0.02152190
H        4.57209597       3.25264427       9.51403064      -0.00323093       0.01415053      -0.02128392
H        3.69329088       5.79890326      10.48523170      -0.01990266      -0.01183037       0.01240240
O        0.12163257       1.91007613       5.38720264       0.01450813      -0.00750466      -0.01512785
C        1.31321934       2.68957949       5.54579883       0.01221486      -0.01253739      -0.01829070
C        1.17775454       4.07958768       4.96519913      -0.01246438       0.00627202      -0.00085422
H        1.58870753       2.73910651       6.60529732       0.00344609      -0.00412611       0.00464725
H        2.09226598       2.12631238       5.03233965      -0.00875574       0.01299348       0.00704190
H        2.10863396       4.63944501       5.08077024       0.00443360       0.00327143      -0.00153355
H        0.92651600       4.02521212       3.90510346      -0.00078912      -0.00133926      -0.00581194
H        0.38886861       4.63966974       5.47498457       0.00233439      -0.01036057      -0.00090905
H       -0.60575131       2.37956674       5.80704787       0.00543663      -0.01184607      -0.00304078
O        9.84632792      12.17752922      10.91233637      -0.01973161      -0.02234177       0.00276753
C       10.54152052      11.80107726       9.72123222      -0.00893527      -0.00005239       0.00134534
C        9.67319311      10.95942790       8.81524639       0.00608358      -0.00815850      -0.00638178
H       10.89424521      12.70174942       9.20990700      -0.01579337       0.00572598       0.00938228
H       11.41871476      11.23958463      10.05035180      -0.00544706       0.00709927       0.00463714
H       10.23030991      10.68042960       7.91905086       0.01153000       0.01244376      -0.01002522
H        9.36085340      10.04478737       9.31673507       0.02154170      -0.01737384      -0.01816766
H        8.79194722      11.51762516       8.50083084      -0.00117731      -0.01764573      -0.00446463
H        8.99368393      12.69375690      10.76437339      -0.01135550      -0.00743840       0.00263403
O        4.07957539       6.21332906       5.49917476      -0.01427144       0.01037773      -0.01062980
C        5.22256043       6.88211350       4.97290585      -0.00898290       0.00807863      -0.00489873
C        4.89292169       8.24549708       4.40161226      -0.00377643       0.00975639      -0.00405684
H        5.98216253       6.99676326       5.75508830      -0.01380900       0.00598924       0.00105745
H        5.64241189       6.21914569       4.21382465      -0.00633916       0.00847951      -0.00159997
H        5.77913367       8.71440875       3.96533872      -0.00134353       0.00724484      -0.00224141
H        4.13071173       8.17023535       3.62516313      -0.00211644       0.01122621      -0.00666258
H        4.54059109       8.91410682       5.18774061      -0.00369807       0.00999193      -0.00533843
H        3.80149660       6.71000287       6.29199423      -0.01130162       0.00376242      -0.00704951
O        2.55627816       7.21319851       0.35635795       0.00837857      -0.00586131      -0.00563975
C        2.54792630       6.43583851       1.56388018      -0.00736511      -0.00371963      -0.00295025
C        3.88445520       5.77453098       1.80815162      -0.01001680      -0.00234888       0.01595554
H        2.27716744       7.06990984       2.41385422      -0.00847316       0.01093310      -0.00552487
H        1.76745978       5.67948678       1.45259404      -0.00875446       0.00910965       0.00191316
H        3.88540723       5.24984860       2.76432536      -0.01645423       0.01310867       0.02303767
H        4.10410583       5.04666085       1.02601894      -0.01388523      -0.01941000       0.02526258
H        4.68339911       6.51823286       1.83199041      -0.00707595      -0.01025291       0.00301133
H        2.96978978       8.09411563       0.59128123       0.00562394      -0.00919846      -0.01169737
O        3.80440641      11.20129658       3.03836119       0.00163239      -0.00422960      -0.00080024
C        2.87160410      11.35420509       4.11477939      -0.01065816      -0.00465077      -0.00234216
C        3.37769464      12.29809031       5.18264553      -0.00438836      -0.00489411      -0.00098664
H        1.94532560      11.72497833       3.67213842      -0.00924015      -0.00926721       0.00482088
H        2.66305037      10.37172686       4.55730960      -0.00084408      -0.00390530       0.00259331
H        2.60961460      12.42373364       5.94786073      -0.00739847       0.00311051      -0.00140855
H        4.28059565      11.90858013       5.65627859      -0.00664146      -0.00338098      -0.00003293
H        3.61044114      13.27520687       4.75494375      -0.00422865      -0.00824308      -0.00322956
H        4.71018169      11.40011445       3.34853433      -0.01661176       0.00128088      -0.00828488
O        8.90213866       5.80239115       5.95313791       0.00505243      -0.01264220       0.00296324
C        8.84704339       7.22252001       5.79951481      -0.00614828      -0.01361045      -0.00060517
C       10.19080268       7.76688215       5.36314313      -0.00874949      -0.00491987       0.00299025
H        8.06672323       7.49567153       5.08616232      -0.00661400      -0.01969603      -0.00077522
H        8.56388947       7.65853582       6.76248914      -0.01030776      -0.01533377      -0.00139910
H       10.15657970       8.85792132       5.29803977      -0.01602081      -0.00427589       0.01212838
H       10.96302983       7.49554392       6.08462051      -0.00734209      -0.00791860      -0.00016883
H       10.47113035       7.35902852       4.39251015      -0.01030096       0.00343437      -0.00095126
H        8.36299399       5.33621292       5.28582599       0.00238121      -0.01594225       0.00456026
O       13.57471375       7.83971698      12.77293479       0.00546068       0.00204913      -0.00461732
C       12.97291959       6.62348738      12.28878427      -0.00008577       0.00571947      -0.00608954
C       13.12067954       6.50192971      10.79091113      -0.00214101       0.00586754      -0.00860471
H       13.42785810       5.77043729      12.80258526      -0.00670727       0.00626990      -0.00329080
H       11.91826928       6.65660621      12.57398395      -0.00290293       0.01882293      -0.00636686
H       12.58138740       5.62338688      10.43185070       0.00980860      -0.00657330      -0.00060718
H       12.69475582       7.37761166      10.30168881      -0.01723577      -0.00396177      -0.01192321
H       14.17126241       6.40807602      10.51159221       0.00168809       0.01782644      -0.00575209
H       14.48064235       7.64237053      13.12497963       0.01011606      -0.00626998      -0.01359714
O        7.15920755       4.13950250       4.40300511       0.00240895       0.00358853       0.01170105
C        6.38745234       3.64250655       5.50072007       0.00487620      -0.00061810       0.00667775
C        5.12761599       2.92340465       5.06620994       0.00291777       0.00369084       0.01223204
H        7.00690945       2.98034454       6.11413335       0.00283286       0.00555366       0.01197329
H        6.12522185       4.51361573       6.10182723       0.00352062       0.00615823       0.00647658
H        4.55898074       2.60891918       5.94383222       0.00485440       0.00237499       0.01131353
H        4.49711637       3.58662112       4.47338395       0.00298546       0.00186175       0.01133025
H        5.36581867       2.03657378       4.48004513       0.00354305       0.00124250       0.01091892
H        7.36281472       3.37534584       3.82739330      -0.00010141      -0.00351410       0.00312609
O       12.21740874       9.16872053       0.93138247       0.03247236       0.00780582       0.01043680
C       12.92628772       8.82191424       2.15945438       0.01620808      -0.00174330       0.01604465
C       12.68418930       7.39070604       2.56512000       0.01012523      -0.00328392      -0.00352413
H       13.98537653       9.04893748       2.01835308       0.02942574      -0.01064120       0.02694397
H       12.56880422       9.51064908       2.95326576       0.02136453      -0.00466068       0.01302869
H       13.13614337       7.20230880       3.54075729      -0.00402980      -0.02028036      -0.00205062
H       11.61869134       7.17585385       2.60855844      -0.00019315       0.00529018      -0.00630733
H       13.13610326       6.71087068       1.84366156      -0.00247035      -0.00156550      -0.00134534
H       12.74315298       8.65044700       0.18678489       0.02553809       0.00486876       0.00905699
O        3.43551799       7.56664149       7.85677659      -0.00187784       0.00048786       0.00435758
C        2.20089054       8.29174123       7.90105038      -0.00090003       0.00377406      -0.00519910
C        1.12066436       7.61568518       7.08264621      -0.00143719      -0.00208980       0.00084805
H        1.88490065       8.40281626       8.94307456      -0.00238669       0.01569194      -0.00707191
H        2.41759066       9.28698440       7.50961392       0.00145121      -0.00099590      -0.01522824
H        0.20937943       8.21677171       7.08265363      -0.00242601      -0.00389795       0.00231913
H        1.45337919       7.48701638       6.05098560      -0.00528885      -0.00564699       0.00009063
H        0.87832447       6.63256292       7.49180613       0.00266385      -0.00118098       0.00636943
H        3.36338861       6.81857524       8.49498986      -0.00574838       0.00389682       0.00607383
O        7.39532610       1.78578605       2.83275408       0.00035107       0.00421062      -0.00417751
C        6.73606372       1.60849263       1.57659832       0.00226188       0.00149270      -0.00502270
C        5.23461810       1.79565959       1.64899263       0.00179052      -0.00269475      -0.00693107
H        7.17597178       2.33499457       0.89584591       0.00144348       0.00021639      -0.00714710
H        6.95762804       0.61342293       1.18610322       0.00603062       0.00083053      -0.00182660
H        4.80861688       1.68965927       0.64870414       0.00251587      -0.00646953      -0.00673775
H        4.77779703       1.03960074       2.28973557       0.00466789      -0.00287670      -0.00482914
H        4.98206196       2.78321863       2.03872760      -0.00034797      -0.00183302      -0.00869256
H        7.32869823       0.93068630       3.30182485      -0.01007018       0.00910027       0.00023934
O       10.34569628      11.94071457      13.27339329       0.01386410       0.00700216       0.00004360
C        9.48871632      12.94599035      13.91504710       0.00607204       0.00003527       0.00150476
C        9.97642458      14.34525207      13.63478210       0.00407444       0.00198996       0.00431262
H        8.46598042      12.79553574      13.56406163       0.01042324       0.00039301      -0.01096579
H        9.48338325      12.72613543      15.00491419       0.00601219      -0.00419778       0.00367315
H        9.39262368      15.05616340      14.21975604       0.00791726      -0.00431830       0.01379403
H       11.03072791      14.45026364      13.89757077       0.00208430       0.00419108       0.00637365
H        9.83808988      14.57729885      12.57915545       0.00155374       0.01240952       0.00587299
H       10.19498988      12.02347293      12.20980444       0.00252390      -0.00654137      -0.00449210
O        9.45655787       7.23886253       1.47275283       0.00567624      -0.00339448      -0.03421164
C        8.52386558       8.16495615       2.00971930      -0.00295968      -0.00405735       0.00643085
C        9.08335122       9.57961669       2.06312765       0.01205896      -0.00832170       0.00107302
H        7.58646517       8.15371765       1.44335956       0.00451416       0.00983578      -0.00735164
H        8.29885572       7.81276926       3.01510066      -0.00734718       0.00088734      -0.00107551
H        8.34908671      10.28807185       2.46376713       0.02101356      -0.00091121       0.00287528
H        9.95992828       9.56145536       2.73761054       0.00936778      -0.01738049       0.00095368
H        9.34684395       9.87930739       1.03188043       0.02029458      -0.00380913       0.00517632
H        9.61149814       7.47743329       0.55201157      -0.01550452      -0.02498107       0.02270502
