190
Lattice="14.120801222401596 0.0 0.0 0.0 14.120801222401596 0.0 0.0 0.0 14.120801222401596" Properties=species:S:1:pos:R:3:forces:R:3 energy=-424328.28125 stress="1.1829200047941413e-05 0.00017226971976924688 -0.00012598669854924083 0.00017226971976924688 2.5698698664200492e-05 0.00017119790572905913 -0.00012598669854924083 0.00017119790572905913 6.5373947109037545e-06" pbc="T T T"
Tb      11.53915313      14.11779558       0.77008316      -0.01960447       0.01049346       0.00704779
S       15.44554160      13.29846022      12.64504189      -0.00675750      -0.00739891      -0.00251403
N       12.93522761      12.82493932      13.75558185      -0.00210497       0.01803622       0.01805996
C       14.01200929      13.00300746      13.26494155      -0.00434083       0.00704359       0.00998938
S        9.02357476      14.29515217      13.81316473      -0.02710461       0.00105375       0.01342744
N        7.95256520      11.67669135      13.98654137       0.02685994      -0.02131319       0.03509461
C        8.41562465      12.74650247      13.94417855       0.00723127      -0.01030946       0.02622248
S        8.94058912      13.33714584       4.48478339      -0.00244904      -0.00221610       0.02465767
N       10.95624297      12.98438705       2.59028493      -0.01752141       0.00840776       0.00670042
C       10.08819488      13.12455833       3.40288489      -0.01112908       0.00326929       0.01429611
C       11.49632846       3.29887674       3.55789583      -0.00039119      -0.00599599      -0.00359528
C       10.29545303       2.93940804       4.42608877      -0.00188652       0.00025153      -0.00293804
C       11.89594944       2.14227096       2.63665040      -0.01220903      -0.00311926      -0.01082747
C        9.73261137       4.09987779       5.23677848       0.00712705       0.00149322       0.00153323
C       13.28727473       2.27753392       2.02365583      -0.00885576      -0.01455404      -0.00627818
C        8.62007418       3.65516633       6.17837881       0.00395608       0.00530834      -0.00033805
H       11.27935582       4.18551455       2.95122126       0.00687099      -0.00003815       0.00262637
H       12.34660852       3.56303004       4.19484818       0.00279555      -0.01734703      -0.00321651
H       10.57828269       2.12646623       5.10409824      -0.00719877      -0.00417554      -0.00609004
H        9.50035244       2.52249990       3.79871658      -0.00645104       0.00886724      -0.00267294
H       11.84053434       1.20486897       3.20820131      -0.02423583      -0.00606450      -0.01667307
H       11.10798152       2.08949000       1.85453106      -0.01130082       0.01255427      -0.01244318
H       10.53622457       4.57086670       5.81319976       0.01046398      -0.00644225       0.00331104
H        9.35516240       4.87075453       4.55544932       0.01252167       0.00669184       0.00450903
H       13.38177701       3.17177901       1.40660351       0.00122989      -0.01411954      -0.00381027
H       13.57806121       1.41050241       1.39954188      -0.01372296      -0.01539744      -0.00714226
H       14.03548872       2.33902777       2.81422177      -0.01167655      -0.02333004      -0.00323862
H        7.80396624       3.18491035       5.62468351       0.00108424       0.01294744      -0.00258496
H        8.99002462       2.91925344       6.89577686      -0.00108555      -0.00023532      -0.00347140
H        8.20486157       4.49429193       6.73929365       0.00933549       0.00568667       0.00296172
C        6.57189931       3.23876946       2.66779727      -0.00051078      -0.00269371      -0.00207296
C        6.79600180       4.66781214       2.19116424       0.00072443      -0.00186002       0.00093381
C        5.31039197       3.06114837       3.50355245       0.00082675      -0.00335535      -0.00021596
C        8.09930437       4.84406231       1.42219934      -0.00034603      -0.00208500      -0.00102679
C        5.14841365       1.63991127       4.02520887       0.00206583      -0.00389698      -0.00127797
C        8.33052756       6.27109371       0.94645080       0.00078735      -0.00151312       0.00119738
H        6.54005490       2.56263260       1.80560984      -0.00281111      -0.00064860      -0.00355980
H        7.43462057       2.91862363       3.26188728      -0.00001630      -0.00528861      -0.00424382
H        6.78815342       5.34568474       3.05229157       0.00339691      -0.00384243       0.00254378
H        5.95751444       4.98021090       1.55632929       0.00012633       0.00096418       0.00321199
H        5.33890524       3.76129925       4.34545402       0.00204523      -0.00407963       0.00037286
H        4.43668809       3.34227447       2.90562910      -0.00015399      -0.00295556       0.00141732
H        8.93287560       4.52760714       2.05967936       0.00038368      -0.00440472      -0.00306594
H        8.09875893       4.16412399       0.56495161      -0.00289034      -0.00045855      -0.00233683
H        5.10439970       0.92257555       3.20350723       0.00128970      -0.00311217      -0.00190599
H        4.24048360       1.52689742       4.61994678       0.00287053      -0.00489289      -0.00019965
H        5.99688961       1.35479771       4.65045178       0.00302713      -0.00417198      -0.00272045
H        7.50605519       6.61091771       0.31665051       0.00019677       0.00075065       0.00322232
H        8.40081128       6.96343818       1.78761031       0.00324838      -0.00312722       0.00229280
H        9.25018582       6.36071183       0.36562305      -0.00007203      -0.00175386      -0.00023045
C       12.92373366       2.12108830       9.06166096       0.00463095      -0.00372571       0.00038333
C       12.51195604       1.56637159      10.41885195       0.00073691      -0.00251448      -0.00032732
C       12.68599510       1.14151524       7.91815348       0.00558883      -0.00390577       0.00033133
C       12.61956820       2.59061073      11.54024341      -0.00558962      -0.00047231      -0.00159580
C       13.22691833       1.64623267       6.58769654      -0.00008650      -0.00072850      -0.00073770
C       12.24617993       1.99671785      12.90191893      -0.01399426       0.00318594      -0.00213414
H       12.37232116       3.04804590       8.86087016       0.00553477      -0.00348741      -0.00126769
H       13.98370276       2.39839046       9.09092612       0.00470781      -0.00442322       0.00222260
H       13.13041685       0.69477331      10.65993100       0.00087720      -0.00129801       0.00356378
H       11.47824059       1.20377695      10.36599778       0.00147790      -0.00395948      -0.00451404
H       13.14826335       0.18052401       8.16416001       0.00965418      -0.00244370      -0.00155178
H       11.61186260       0.94741807       7.83173701       0.00607789      -0.00765089       0.00304280
H       13.63903166       2.98452672      11.58645976      -0.00549555      -0.00108641       0.00362897
H       11.96675129       3.43965612      11.32228367      -0.00341702      -0.00039408      -0.00767677
H       12.79329619       2.61699715       6.33682027      -0.00392710      -0.00174099       0.00214047
H       13.00023978       0.95694701       5.77180868      -0.00076550      -0.00025512      -0.00097740
H       14.31135061       1.77074620       6.62888513      -0.00030787       0.00259268      -0.00424743
H       11.29753194       1.44716222      12.79950333      -0.01443011       0.00414897      -0.00447848
H       13.04335103       1.31080195      13.21630434      -0.01686286       0.00285780       0.00348299
H       12.12534301       2.77453698      13.66071895      -0.01630612       0.00552796      -0.00483862
C        8.86898363       8.02575629       7.67422788       0.00372368       0.00027409      -0.00322145
C        9.58232533       8.57321939       6.44545254       0.00473988      -0.00055531      -0.00308230
C        9.82354572       7.44873680       8.71272294       0.00292456       0.00005427      -0.00264840
C        8.64130347       9.13950733       5.38924510       0.00560248       0.00072324      -0.00324660
C        9.10268029       6.87234316       9.92148254       0.00199091      -0.00185978      -0.00399762
C        9.36266176       9.54368575       4.11193395       0.00614688      -0.00175427      -0.00373235
H        8.26381001       8.81617090       8.13437855       0.00391115       0.00077161      -0.00377807
H        8.15969841       7.24780727       7.36371935       0.00337778       0.00063670      -0.00342769
H       10.18250241       7.77238371       5.99682334       0.00370471      -0.00135601      -0.00288174
H       10.29369227       9.34848338       6.75211311       0.00557089      -0.00151211      -0.00293715
H       10.43079684       6.66801975       8.24157484       0.00405945       0.00094634      -0.00271115
H       10.52489757       8.22679896       9.03093415       0.00187024       0.00022668      -0.00104056
H        7.87602350       8.38971767       5.16186232       0.00386022       0.00227436      -0.00251754
H        8.10834877      10.00322015       5.80149078       0.00782703       0.00227532      -0.00382306
H        8.51185562       7.63436226      10.43422112       0.00018500      -0.00316051      -0.00430223
H        9.79755375       6.44948409      10.64871930       0.00167863      -0.00128914      -0.00338666
H        8.41943000       6.07893636       9.61594955       0.00361566      -0.00273295      -0.00547075
H       10.12153819      10.30035433       4.31594201       0.00814921      -0.00351912      -0.00432801
H        9.86286710       8.68221951       3.66286484       0.00389534      -0.00319551      -0.00342331
H        8.68055304       9.96223264       3.37148879       0.00703596      -0.00045379      -0.00386010
C        4.95757460       6.96445635       5.03577819       0.00116606       0.00173438      -0.00023997
C        4.98864921       8.37833299       4.46817834       0.00173089       0.00245488       0.00149843
C        4.34419083       6.88590666       6.42897785       0.00167145       0.00023896      -0.00010848
C        5.67793580       8.48079320       3.11261797       0.00077879       0.00344554       0.00108203
C        4.32566038       5.47516639       7.00176658       0.00121225      -0.00059384      -0.00219922
C        5.74501126       9.90704118       2.58566301       0.00185639       0.00403625       0.00287443
H        4.40658792       6.30573978       4.35366475       0.00046651       0.00292698      -0.00088923
H        5.98006712       6.56764368       5.07517667       0.00088862       0.00115775      -0.00121716
H        5.50158898       9.03902296       5.17681986       0.00275260       0.00117514       0.00189948
H        3.96518017       8.76144672       4.38517047       0.00197807       0.00332555       0.00264622
H        4.90593875       7.54589323       7.09875086       0.00222085      -0.00096726       0.00056662
H        3.32451997       7.28434526       6.39819038       0.00181404       0.00072113       0.00082530
H        6.69150456       8.07602038       3.19912219       0.00043863       0.00227717      -0.00035170
H        5.16073535       7.83714113       2.39193332      -0.00054489       0.00495313       0.00073254
H        3.74732603       4.80011986       6.36716433       0.00060064       0.00065079      -0.00292875
H        3.88505540       5.45204728       8.00012775       0.00170518      -0.00191793      -0.00199342
H        5.33695561       5.06817811       7.07554654       0.00109354      -0.00121681      -0.00332937
H        4.74308234      10.30234333       2.40342952       0.00195858       0.00540708       0.00506032
H        6.22734610      10.56636612       3.31090372       0.00381138       0.00248130       0.00293659
H        6.30876679       9.98034787       1.65553163       0.00078727       0.00454761       0.00230819
C        8.08613851      12.12121735       9.25535749       0.00153625       0.00295237      -0.00102065
C        9.27845981      11.93435627      10.18490273       0.00150615       0.00178239      -0.00117733
C        8.09489785      13.43194266       8.47872292       0.00355509       0.00282565      -0.00126151
C        9.25331539      10.58659064      10.89541227       0.00046504       0.00254232       0.00024132
C        6.89653833      13.57227670       7.54936302       0.00305963       0.00547949      -0.00021756
C       10.44722567      10.35557201      11.80871514       0.00392190       0.00024299      -0.00473911
H        8.05427032      11.28842510       8.54147460       0.00053578       0.00288454      -0.00089274
H        7.16287488      12.05203451       9.84147357       0.00136918       0.00427329      -0.00112601
H        9.29491826      12.73988556      10.92730808       0.00293317       0.00251991      -0.00182772
H       10.20710655      12.02477744       9.60892473       0.00137833       0.00019167      -0.00164361
H        8.11575678      14.26833469       9.18543715       0.00615703       0.00295728      -0.00149590
H        9.01757443      13.49889164       7.89337542       0.00314665       0.00051376      -0.00222975
H        8.33428739      10.51021904      11.48370171       0.00267878       0.00537670       0.00426224
H        9.21106832       9.79877704      10.13700343      -0.00496955       0.00184524       0.00135088
H        6.87901062      12.76541958       6.81312916      -0.00006001       0.00495592       0.00048116
H        6.91914736      14.51529691       7.00069096       0.00544919       0.00486419      -0.00111384
H        5.95887841      13.52961673       8.10819340       0.00342414       0.00880541       0.00068022
H       11.39062200      10.45110362      11.26635069       0.00149162      -0.00345813      -0.00944288
H       10.45491956      11.08158348      12.62237482       0.00994977       0.00095551      -0.00554742
H       10.41523740       9.36258190      12.26137989       0.00292857       0.00082682      -0.00332185
C        1.45672437      11.09021811       2.89672914       0.00451678      -0.00252296       0.00717080
C        0.86977575       9.93877990       2.08863413       0.00333017       0.00121140       0.00286546
C        0.67532087      12.39417006       2.77886723       0.00755215      -0.00046475       0.00875476
C        1.63893595       8.63643029       2.28867457       0.00126198      -0.00099248      -0.00311646
C        1.27326178      13.50419789       3.63338514       0.00926673      -0.00422135       0.01245132
C        1.07798519       7.46650584       1.49179152      -0.00256501       0.00374502      -0.00739998
H        1.50833258      10.80005052       3.95315869       0.00216123      -0.00543769       0.00647160
H        2.49089460      11.26410247       2.57940593       0.00543952      -0.00388468       0.00938277
H        0.86083684      10.20372027       1.02569515       0.00336521       0.00546472       0.00397807
H       -0.17878877       9.79070048       2.37212366       0.00322273       0.00125698       0.00247984
H        0.65952578      12.70214518       1.72880406       0.00954738       0.00154744       0.00950745
H       -0.36638034      12.21762743       3.06961507       0.00660458       0.00115804       0.00647673
H        2.68830741       8.79477628       2.01765510       0.00122777      -0.00201136      -0.00396337
H        1.63790784       8.38499652       3.35493936       0.00224330      -0.00552416      -0.00421333
H        1.33423395      13.20378326       4.68131558       0.00703906      -0.00728441       0.01161560
H        0.67760283      14.41728124       3.59152223       0.01293586      -0.00176980       0.01503233
H        2.28319116      13.75264913       3.30174765       0.01021941      -0.00602346       0.01419047
H        0.03867270       7.26909306       1.76375128      -0.00260070       0.00495855      -0.00661084
H        1.10329821       7.67323518       0.42013761      -0.00394855       0.00852655      -0.00650477
H        1.64780903       6.55206963       1.66799408      -0.00453024       0.00152512      -0.01256417
C        6.29096909       3.43500220      12.12617861      -0.00140171       0.00155365      -0.00095178
C        5.07856045       4.34025052      11.94984449      -0.00340288      -0.00085789       0.00041096
C        7.57797618       4.15257928      11.74015011      -0.00394231       0.00242680      -0.00753705
C        3.73848402       3.67963649      12.24277293      -0.00143763      -0.00219047       0.00597791
C        8.84144664       3.32989891      11.92982198      -0.00182775       0.00545660      -0.00875077
C        2.57500474       4.64822124      12.07669758      -0.00353682      -0.00479454       0.00591416
H        6.34901788       3.08753669      13.16413846       0.00247072       0.00473108      -0.00017279
H        6.17635167       2.53482458      11.51213038      -0.00198724      -0.00049675       0.00213225
H        5.06914353       4.72582710      10.92258083      -0.00708313      -0.00353853      -0.00065678
H        5.19500858       5.21903821      12.59591950      -0.00284033       0.00098512      -0.00228825
H        7.49760336       4.45839197      10.69391785      -0.00792032      -0.00115760      -0.00822935
H        7.65695586       5.08060617      12.31724496      -0.00356340       0.00460207      -0.01080972
H        3.60367267       2.81862101      11.58033097      -0.00170061      -0.00460118       0.00926493
H        3.74550228       3.27937180      13.26172775       0.00194859       0.00112492       0.00737044
H        8.96584993       3.04592892      12.97581366       0.00394174       0.01263071      -0.00763024
H        9.72532795       3.89408909      11.62660187      -0.00417784       0.00506943      -0.01673561
H        8.81085901       2.40688390      11.34799286      -0.00327110       0.00187527      -0.00310828
H        2.67749508       5.50170629      12.75041126      -0.00307980      -0.00216359       0.00256096
H        2.53739214       5.04191418      11.05832627      -0.00702206      -0.00847994       0.00454363
H        1.61604285       4.17192863      12.28471172      -0.00214624      -0.00559399       0.01025928
C        4.78699395       9.52325691      11.02221434      -0.00216791       0.00206396      -0.00123756
C        4.02519449       9.55071000       9.70295420      -0.00364012       0.00326276      -0.00054447
C        4.41520196       8.33641616      11.90343731      -0.00304273       0.00268722      -0.00068046
C        4.41923576      10.71514750       8.80175654      -0.00282088       0.00231773      -0.00135919
C        5.14308380       8.34157155      13.24002168      -0.00244355       0.00239758      -0.00093418
C        3.61654009      10.77453146       7.50934399      -0.00375316       0.00242004      -0.00077370
H        5.86503988       9.50321196      10.82334096      -0.00247401      -0.00015227      -0.00287321
H        4.60154896      10.45399817      11.57016899       0.00144511       0.00253808      -0.00054143
H        2.94897408       9.59737434       9.90763312      -0.00331512       0.00492430       0.00047940
H        4.18894873       8.60748293       9.16807479      -0.00574582       0.00286233      -0.00080454
H        3.33317264       8.34053125      12.07302650      -0.00298175       0.00386957      -0.00008768
H        4.63296871       7.40832161      11.36444020      -0.00432374       0.00220001      -0.00034416
H        4.29666300      11.65142716       9.35598154      -0.00148371       0.00285184      -0.00176351
H        5.48630265      10.64348763       8.56975929      -0.00306883       0.00119106      -0.00199909
H        6.22616936       8.33287821      13.09954909      -0.00249884       0.00233513      -0.00123305
H        4.87429740       7.47651241      13.85047076      -0.00223935       0.00225224      -0.00105916
H        4.90631645       9.23963703      13.81262253      -0.00229330       0.00211960      -0.00041991
H        3.74474097       9.86096309       6.92657149      -0.00521863       0.00183141      -0.00025292
H        2.54965115      10.88633862       7.71495962      -0.00347474       0.00386504      -0.00010227
H        3.92562827      11.61248987       6.88226464      -0.00322482       0.00150603      -0.00173883
