200
Lattice="12.955528424721395 0.0 0.0 0.0 12.955528424721395 0.0 0.0 0.0 12.955528424721395" Properties=species:S:1:pos:R:3:forces:R:3 energy=-615736.0625 stress="0.0004921925137750804 -1.2336565760051599e-05 -0.0001252337133337278 -1.2336565760051599e-05 0.0015550110256299376 4.733444620796945e-05 -0.0001252337133337278 4.733444620796945e-05 0.0014276723377406597" pbc="T T T"
Tb      10.83521203      13.76547648      -0.48888764       0.00442469       0.02832374      -0.01687694
Br       6.36387972      13.31627478       2.09628763      -0.00420885      -0.00022160       0.00199504
Br       2.50702998      13.12213497      10.26758778       0.01166917       0.00028286      -0.00571848
Br       9.10048281      12.12071049      11.05191102       0.00900877       0.00151391      -0.01482175
N       10.12286318       9.23904676       5.86543850       0.00630078       0.00780198      -0.00714119
H        9.45031256       9.75585749       5.30346335       0.00741502       0.00129524      -0.00321215
H        9.64890730       8.39922780       6.17774527       0.01216985       0.00492714      -0.00195062
H       10.85757789       8.94539063       5.22507197       0.00851396       0.00224045      -0.01099855
N       11.32811394       7.00282976       0.67080441       0.00533912      -0.01284175      -0.00106739
H       10.75388514       7.01805029      -0.16666194       0.01140163      -0.02772728      -0.00049600
H       10.69154607       6.87298932       1.46309799       0.00728460      -0.01247984       0.00310732
H       11.87679051       6.15223659       0.60970011       0.02289511      -0.00390545       0.01185297
N        9.75118899       2.87104985      11.58108024      -0.00992960       0.01255083       0.00867562
H        8.97946648       3.23508926      12.13406422      -0.01405585       0.01232299       0.01539081
H        9.37446575       2.69030618      10.63242076      -0.00610572       0.02378179       0.01034832
H       10.39086675       3.65513577      11.47984888       0.00089347       0.00419098       0.02723450
N        8.76249331       7.13090676      11.41496992       0.00401929       0.00213930      -0.00730257
H        8.33613669       6.86367220      12.29881072       0.01233421       0.00711235      -0.00027294
H        8.04195414       7.01763611      10.70734887       0.00099845      -0.00968684       0.00067393
H        8.91228346       8.13349400      11.47477261      -0.00533805       0.00469157      -0.01569710
N       10.76824224       1.01220101       5.56943497       0.00317532      -0.00222987       0.01615518
H       10.85438811       2.01333412       5.69799877       0.00846738      -0.00793318       0.02795957
H       11.11716172       0.55498758       6.40942026      -0.00423669      -0.01802155       0.00967921
H        9.77567207       0.79325835       5.55109667      -0.00182120       0.00285005       0.00770842
N       11.42313074       4.13617288       2.96550934       0.01179507       0.00188909      -0.01206839
H       11.38397323       5.15057640       3.01221503       0.00598676      -0.00382974      -0.00270783
H       11.71385306       3.83238576       3.89203743       0.01758757      -0.00688346      -0.01388226
H       10.44959552       3.85359802       2.85918001       0.01070446      -0.00449898      -0.00661327
N        0.22354646       9.21029387      12.24845518       0.01539291       0.01072580       0.00271168
H       -0.06120471       9.02408771      11.29332463       0.02502322       0.02320465      -0.00172870
H       -0.21792898       8.48731008      12.81931878      -0.00082978       0.01022132      -0.00663007
H        1.22503107       9.06314464      12.27130175       0.01046488      -0.00145802       0.01316807
N        5.98186754       8.19110829       8.87196860       0.00746562      -0.01494843       0.00330439
H        6.64808394       8.95535505       8.90903955       0.02408208      -0.03129882       0.02369759
H        5.09218880       8.61327153       9.13476730       0.01299293      -0.00245784      -0.00284699
H        5.89607040       7.94866704       7.88835678       0.01645463      -0.00032315      -0.00209479
N       -0.73054559       1.06040067      10.46483938       0.00474960       0.00995973      -0.01420301
H       -1.22223788       0.53154782       9.74320310       0.01429846       0.00844280      -0.02011493
H        0.22020443       0.65357107      10.49761572       0.00497457       0.01246640      -0.01818969
H       -0.56549214       1.97819795      10.04742060       0.00996500       0.00271061      -0.02660787
N        3.03774242       1.33044030       6.83959372       0.00981632       0.00383312      -0.00406777
H        3.37983729       0.59998716       6.21747121      -0.00303479       0.00207558      -0.00872830
H        2.12856902       1.60799087       6.48929803       0.00631642       0.01055431       0.00582499
H        2.88074334       0.90564244       7.75220307       0.01848362       0.00655462      -0.00279641
N       11.51033195      11.65804499       3.49865614      -0.02729522       0.00325398       0.00051010
H       10.57466220      11.39829631       3.79905335      -0.00536399      -0.01747764      -0.00123567
H       11.82369246      12.32935694       4.19413986      -0.03755588       0.01692641       0.00170588
H       12.07474338      10.81538481       3.58109371       0.00511271       0.01926781       0.01071513
N        1.62649725      10.36233902       2.45744705      -0.01458065       0.00124460       0.00105650
H        2.34744865      10.72811259       1.83108678       0.01625353       0.00038122      -0.01514413
H        1.19580858       9.57253683       1.99291353       0.00170119       0.02334914      -0.00455705
H        2.07432121      10.01897982       3.30067038      -0.00167894       0.00180263      -0.02088601
N       12.37394010       8.36249503       3.61189809      -0.00146241      -0.01035109       0.00931485
H       12.13706109       7.52419980       4.14306657      -0.01562562      -0.01369580       0.00976270
H       13.38182442       8.44548803       3.65706169      -0.00257946      -0.03947198      -0.00101281
H       12.13810477       8.18200677       2.63963016      -0.01953030      -0.00381902       0.01485703
N        2.31323027       6.49069173       5.29762033       0.00696293      -0.00377265       0.01539131
H        2.34427183       7.49547278       5.14366145       0.00750672      -0.00325766       0.03487420
H        2.15629355       6.04263604       4.38840353      -0.00636013       0.01002613       0.01082197
H        3.25179520       6.22393717       5.57940735       0.00991172      -0.01478178      -0.00042569
N        5.44104456       3.85700080       0.75062080       0.00342748       0.00211272       0.00470953
H        4.99582149       3.81927709       1.66403247      -0.01364587      -0.00551745      -0.00026787
H        5.70572218       2.89522260       0.55524548       0.01911329       0.00896388       0.00797305
H        4.70710727       4.10044068       0.09255305       0.01326912      -0.00087739      -0.00647670
N       11.30716038      11.43213687       7.89102923       0.00493420       0.00748500       0.00702709
H       10.84661364      11.24666668       8.77651128      -0.00185683      -0.00323756       0.00148815
H       12.29887894      11.28765131       8.04366222       0.00727185       0.02015685       0.01149415
H       10.99642090      10.69569546       7.25135279       0.01101859       0.01799872      -0.00646587
N        4.09861111      12.09618670       4.64759979      -0.02568717      -0.00336161       0.00407529
H        4.05697354      11.08344873       4.62318556      -0.01185375      -0.00459431       0.00280800
H        4.98860767      12.36317383       4.23188620      -0.03206664       0.00818394      -0.00543101
H        3.38723410      12.44996351       4.00882497      -0.03411688      -0.00953965       0.01428462
N        3.97738040       2.63364999       3.75519148      -0.00016505       0.00330074      -0.01576763
H        3.30283870       1.87096395       3.76553557       0.00180904       0.01202420      -0.01974268
H        4.12949094       2.90308315       4.72164233       0.00330277       0.00700188      -0.01750624
H        4.83711118       2.20018143       3.42763811       0.00688158      -0.00563106      -0.01142150
N        8.60037338       2.18298332       8.82451472      -0.00952506      -0.00697775       0.00360093
H        9.15384955       1.67955825       8.13735324       0.00476414      -0.00173946       0.00867794
H        8.09531598       2.89127276       8.30191249      -0.01109333      -0.01294196      -0.00399275
H        7.90602708       1.51213859       9.13781118      -0.00154640      -0.01097229      -0.00015219
N        9.40661876       6.81517387       3.13247343      -0.00222316       0.00016056       0.00312838
H        9.25195622       6.11130514       3.84992564      -0.01473964       0.00421213       0.00479283
H        8.56097048       6.83718470       2.56133663       0.00550899       0.00314993      -0.00680657
H        9.47498413       7.70113032       3.62076488      -0.00075577       0.00201865       0.00026696
N        1.00814024       3.52155871       9.21173487      -0.00586337      -0.01254800       0.00418811
H        1.67003748       2.75763636       9.34426902      -0.01222037      -0.02044636       0.00296919
H        0.96623096       4.01664214      10.09693925       0.00485677      -0.01398087       0.00514083
H        1.44411538       4.17157372       8.56581567      -0.00079079      -0.01814461       0.00367248
N        8.20090592      12.16828552       6.44276576      -0.00211744      -0.00210187       0.00260913
H        8.97785090      11.83263500       7.00098202      -0.00041120       0.00152279       0.00291668
H        8.24026583      11.66716634       5.55905751      -0.00841872      -0.00375711       0.00936620
H        7.33452748      11.89413140       6.90775451      -0.00190366      -0.00382809       0.01188091
N        1.91160184       9.68313593       5.94205986      -0.01113039      -0.00780052      -0.00462487
H        2.21714421      10.61252642       6.21257413       0.01534187      -0.01409042      -0.01023388
H        1.83600891       9.13422089       6.79456083      -0.00449777      -0.00421299      -0.00034170
H        0.96817394       9.78333107       5.58113422      -0.01491529       0.01402466       0.01917304
N        5.20822850      11.71476010       7.58289723       0.00391516      -0.00767380      -0.00531930
H        4.77647907      11.90655192       6.67944053       0.00199248       0.01066701       0.00094144
H        4.99922542      12.51639650       8.17089207       0.00682134      -0.01907766       0.01281791
H        4.68673856      10.94902094       8.00016201       0.00276904      -0.01384178      -0.01901728
N       12.12517207       6.34642102       5.96056750       0.00046035      -0.00969391      -0.00181934
H       11.90913938       5.36113472       6.06265780       0.01012358      -0.01512729       0.00612823
H       11.80183758       6.83340431       6.78650603       0.00738233      -0.00898546      -0.01091220
H       13.14293327       6.40560370       5.93897584       0.00531009      -0.00935402      -0.00923651
N        1.95403781       0.45297301       2.56867023      -0.01429749      -0.02179257       0.03148472
H        1.20414713      -0.22555685       2.67173186       0.02358282       0.01892944       0.01146298
H        2.50670122       0.10966706       1.78647795       0.00578842      -0.00218118       0.02069028
H        1.56422047       1.34447679       2.29084006      -0.00852828       0.00112901      -0.00989918
N        6.73374465       6.72875470       1.33643321       0.00552267      -0.00082111      -0.01131615
H        6.25933943       6.93482319       2.20942388       0.01361672      -0.00799514      -0.00264119
H        6.31185507       5.87997286       0.96129030      -0.00061607       0.00334242      -0.00964938
H        6.54265766       7.51461940       0.72225643      -0.00440520       0.00403809      -0.00158495
N        5.15772178       9.49509290       2.65002127      -0.00044622       0.01002982      -0.00118086
H        5.05218429      10.50574384       2.69265275      -0.01162276       0.01079819      -0.01515574
H        4.22365409       9.13376040       2.48750193       0.00927435      -0.00468061       0.00362621
H        5.69822023       9.33269949       1.79653830       0.00362454       0.00696995      -0.00098339
N        8.23631191       3.49840291       2.53022362      -0.00381425       0.02284376      -0.00912614
H        7.83946302       4.21424028       1.92973981      -0.01041782       0.02049537      -0.00232366
H        8.26611956       3.89078006       3.47004286      -0.00866061       0.01812979      -0.00440482
H        7.55426848       2.74211609       2.55230734       0.00069802       0.01842167      -0.01056036
N        8.30391520      10.54981972       3.38843005      -0.00415817      -0.00197265       0.01541686
H        7.91538511      11.41286521       3.00554520      -0.01219021      -0.00455132       0.01717115
H        7.51352221       9.91010956       3.42469463       0.00268363      -0.00957731       0.01325168
H        8.91867467      10.17506230       2.67323622       0.00014917       0.00661331       0.01400039
N        6.93257723       1.89794148       5.54872178      -0.00228134      -0.00182582       0.00933773
H        7.36782744       1.10971219       6.03308250       0.00661388      -0.01104922      -0.00561093
H        6.69399667       1.53871363       4.62708217       0.00603426       0.01925693       0.00167842
H        6.05281760       2.08495378       6.01853836      -0.00395727      -0.02810199       0.01258751
N        5.54751099       5.27850698      10.17474337      -0.01460692       0.00586797      -0.00364383
H        5.37724858       4.70219186       9.34941374      -0.01180198       0.01278675      -0.00859913
H        6.30042637       4.85430938      10.70264318      -0.01592404       0.00114200      -0.00576603
H        5.87137885       6.18491725       9.83680678      -0.01194664       0.00899827       0.00367057
N        6.96173928       9.88682101      13.21362075       0.00565219       0.00212438      -0.00279761
H        6.63719705      10.10272481      12.26294585       0.00013125       0.00273202      -0.00058659
H        7.94218560       9.64172097      13.13318439       0.00339871      -0.00960217      -0.00790356
H        6.95241248      10.78964759      13.68554399       0.01661551       0.00072102      -0.00235581
N        3.13397350       9.64271121       9.72390301      -0.00293264      -0.00638585       0.00091431
H        3.25046966       9.16225087      10.60922861      -0.00674947       0.01860045       0.00987857
H        2.43380918       9.11884344       9.20569393       0.00530206      -0.02280277       0.00422622
H        2.76173181      10.56919977       9.93208228      -0.01141774      -0.00160958      -0.02552111
N        2.24289142       2.74431761      -0.15959399      -0.00798798      -0.00815355      -0.01355240
H        2.53436070       3.68891731      -0.41375419      -0.01197911      -0.01081751      -0.02674074
H        2.45846191       2.12584468      -0.94127117      -0.01232485      -0.01919273      -0.00631847
H        2.86699413       2.46821069       0.59197168      -0.00358005       0.00500146      -0.01190758
N       13.05064320       3.24414678       5.77383116      -0.00326669       0.00299066       0.00814888
H       13.13530101       2.34746460       5.30679799      -0.00515047       0.00690030       0.00222200
H       13.08581408       3.06425064       6.77362132       0.01134345      -0.00255053       0.00781439
H       13.87835636       3.78616037       5.54578491      -0.00981817       0.00877313       0.00084256
N        8.40308772       4.55961655       5.57236197       0.00850313      -0.00449305       0.01294819
H        7.97435774       3.62282236       5.61721260       0.00112914       0.00267396       0.02070241
H        7.83874379       5.15650413       6.16666100       0.02576151       0.00538888       0.02252062
H        9.32223588       4.50528589       5.99288585       0.01702874      -0.01170924      -0.00085028
N        5.57820336       5.72461452       4.79072462      -0.01088328      -0.00377263      -0.01128995
H        5.64164339       6.71327613       5.03544121       0.00256286      -0.00533758      -0.00931621
H        4.91500760       5.62608624       4.03173446      -0.00894405       0.00673291      -0.01285118
H        6.48533265       5.43233529       4.44380177      -0.01306294      -0.01809382      -0.00718606
N        9.73376086       1.00476908       1.68895998      -0.00609708      -0.00798628      -0.00552285
H        8.82649814       0.52952982       1.76186084      -0.01273355       0.00182886      -0.00786738
H        9.49333453       1.96523141       1.97365004       0.01470787      -0.00291267      -0.00308023
H       10.30145942       0.62139332       2.44579675       0.00210720      -0.02868561      -0.02370352
N       11.83448259      11.77878551      13.46189630       0.00554337      -0.01465386      -0.00085048
H       11.06104046      11.16581745      13.19533607      -0.00895698       0.01090801       0.00641567
H       11.83512854      11.76217886      14.49743994       0.01994487       0.01755415      -0.00057688
H       12.64830495      11.23547825      13.15895880       0.01429000       0.00834048      -0.03467965
N        1.97537813       4.78729943       2.69421620      -0.01575647       0.00230239      -0.00615144
H        1.06612884       4.33717295       2.73603110      -0.02209712       0.01352398      -0.02292436
H        2.68122797       4.08110354       2.91985913      -0.02703995      -0.00602535       0.00413111
H        2.11380373       5.04280240       1.72223897       0.00479870      -0.00282188      -0.00322023
N        4.46160948       4.14409625       7.38730532       0.00822326       0.00330652       0.00789290
H        4.87416390       4.53298423       6.53829774       0.00390542      -0.00435104       0.00431663
H        3.65342536       4.72120721       7.59197500       0.00960922       0.00872788       0.00726093
H        4.09621014       3.21191843       7.18125447       0.00272908       0.00446801       0.01218717
N        5.78540136      11.09016415      10.68964062      -0.00919753      -0.00321883       0.00468865
H        5.48333404      11.95695445      11.12185412       0.00775267       0.00380556       0.00023551
H        5.00086014      10.76857291      10.13231642      -0.01586787       0.00510440       0.00953656
H        6.52725295      11.34344440      10.04691010      -0.00610732      -0.02109192      -0.00009493
N       -0.53853193       2.17281251       0.73711205       0.00197166      -0.00889102      -0.00729609
H       -0.31006576       1.40593753       1.37203285      -0.00605498      -0.00684004      -0.00276676
H       -0.85418366       2.92957831       1.36207905       0.01981311      -0.00933823       0.00004116
H        0.38646949       2.46506406       0.36033843       0.00799134      -0.01589297       0.00373537
N        5.42726011       8.82716713       5.68462607      -0.00762026       0.00181127       0.00484384
H        5.46430128       9.03200315       4.68252091      -0.00499870       0.00180139       0.00383317
H        5.95468289       9.55333053       6.15910919      -0.00747472       0.00188957       0.00256138
H        4.45850800       8.96366133       5.95869553      -0.00791129       0.00791124       0.00043336
N       11.64942474       6.45390105       9.81600170      -0.00537822       0.00183236      -0.00264481
H       11.58980787       5.67815582       9.16559500      -0.01448139       0.00071561       0.00028006
H       11.64152451       7.29951593       9.25625873      -0.00585248       0.00010768      -0.00367898
H       10.77797069       6.46856299      10.34528207      -0.00382461       0.00716320       0.00249037
N        3.21236398       5.74917539      12.10236787      -0.00741851       0.00553063       0.00297238
H        3.56223159       6.46247896      12.73190841      -0.00513990      -0.00105793       0.00568693
H        2.39367124       6.14000018      11.65049073      -0.00243730       0.01252391       0.00155518
H        3.94020107       5.60934026      11.38589864      -0.00507738       0.00838736       0.00081394
N        1.77371205       7.07454120       8.40404671       0.00605407       0.00587571      -0.00454254
H        2.62101176       6.77236156       8.87318339       0.01209757       0.00604855      -0.01100843
H        1.78655254       6.67893041       7.46476265      -0.00366273       0.00847563      -0.00242376
H        0.99195940       6.67687071       8.91498863       0.00911600       0.01013353       0.00638761
N        3.68343975      11.56261514      13.31560648      -0.00857334       0.00543875       0.00023091
H        4.43141324      12.17493249      13.63945991      -0.00019570       0.00806839       0.01161810
H        3.32167492      11.96797679      12.45180447      -0.01115799       0.01339516       0.02466337
H        4.15536729      10.70365825      13.05225386       0.00576326       0.01295543      -0.01574697
