196
Lattice="13.703345188165132 0.0 0.0 0.0 13.703345188165132 0.0 0.0 0.0 13.703345188165132" Properties=species:S:1:pos:R:3:forces:R:3 energy=-648532.375 stress="-0.000554040540009737 -3.7347890611272305e-05 1.705793238215847e-05 -3.7347890611272305e-05 -0.0010800628224387765 0.0002843160036718473 1.705793238215847e-05 0.0002843160036718473 0.00010064545494969934" pbc="T T T"
Tb      15.28345921      12.59567772       0.21984735      -0.01008862       0.00196472      -0.00363535
Br      13.71936590      11.39438256      -1.65482734      -0.02095383      -0.00068256       0.00712425
Br      13.25066276      13.65050810       1.75776442       0.00366515      -0.00011674       0.01381561
Br      10.28509476      16.61397118       4.38907744      -0.03107288      -0.02675867      -0.00209728
O        8.56607256      12.49947680       3.76261924      -0.00309980       0.01152851      -0.01835966
N        7.78518169      12.26172294       1.62907816      -0.00254479       0.00910276      -0.01262659
C        9.09436831      12.15164600       1.01718794       0.01502919       0.01740100      -0.00553081
C        6.64788148      12.03069366       0.77609324      -0.02905793      -0.00662190      -0.01595032
C        7.64694837      12.41161728       2.96716704       0.00578207       0.00634640       0.00253129
H        9.18856453      12.87891830       0.20731313      -0.01429995       0.00974572       0.00528204
H        9.23366603      11.15659542       0.58848701      -0.00346059       0.02663901       0.00121416
H        9.85203243      12.35062820       1.77030404      -0.00391749       0.01503891      -0.01706368
H        6.74752709      12.62870257      -0.13237919       0.00115301       0.00191839       0.01221117
H        5.72479272      12.31486335       1.28176213       0.00223492       0.00155261       0.00853461
H        6.58171061      10.98065290       0.47248359       0.00549902       0.00542104       0.01695501
H        6.58900237      12.43630685       3.28660091       0.01975930      -0.00548711       0.00718975
O        3.48338025       1.24770839      10.66917481      -0.00094420      -0.00410974      -0.01165444
N        2.11103855       2.43908008      12.04622315      -0.00804055      -0.00486001      -0.01392753
C        1.43208851       1.26191501      12.53002273      -0.01674899      -0.00336424      -0.02343464
C        1.67394393       3.73502166      12.52450787      -0.00338399      -0.00515950      -0.00827197
C        3.07305157       2.31752015      11.10622593      -0.00253034       0.00063312      -0.00576699
H        0.39156560       1.21546979      12.19279648      -0.01446393       0.00390671      -0.02973521
H        1.41192414       1.28854244      13.63151204      -0.02494215      -0.00730062      -0.02359933
H        1.97562662       0.39492186      12.11973859      -0.02073614      -0.00561669      -0.02388898
H        0.68597228       3.99233027      12.13344006      -0.00231111       0.00037003      -0.00720616
H        2.39822179       4.48760738      12.22215108      -0.00064760      -0.00666226      -0.00474040
H        1.62110158       3.72972260      13.61612648      -0.00357034      -0.00951899      -0.00824210
H        3.47161899       3.29166289      10.79164278       0.00397143      -0.00270790       0.00260261
O        3.09634472       0.12588217       1.56519603      -0.00016522       0.01871292      -0.02754781
N        3.83704226       2.05183819       2.51915450       0.00136948       0.00465256      -0.00469854
C        5.22206761       1.60706553       2.50775550      -0.00253007      -0.00379498      -0.00213379
C        3.54406381       3.44336154       2.82456298       0.00559348      -0.00087562       0.02023856
C        2.88318339       1.24714198       2.07422389       0.00035310       0.01398516      -0.02040307
H        5.80607997       2.26777660       3.14222146      -0.00313975      -0.00585294      -0.00126456
H        5.63554369       1.61671027       1.49636459       0.00104699      -0.00543500      -0.00028080
H        5.27515371       0.59310888       2.89613190      -0.00889356      -0.00631547      -0.00687674
H        4.10481192       3.77320137       3.69719339       0.00336048      -0.01992405       0.02834220
H        2.47943143       3.55138558       3.01887784       0.00587389      -0.00127544       0.01794866
H        3.81753708       4.08382709       1.98023784       0.01055206       0.01446681       0.03439668
H        1.85947498       1.62464971       2.18512444       0.00322796       0.02194035      -0.02474115
O        5.59298647       6.40103328       3.95821312       0.00314116      -0.00939062       0.00477570
N        7.69313879       5.89635531       3.20389805       0.00317173       0.00084244      -0.00215818
C        7.28104194       4.78756304       2.37172276       0.00580759      -0.00234058       0.00023989
C        9.11315743       6.18582764       3.21087005       0.00090360       0.00831625      -0.00800253
C        6.80541486       6.61643316       3.90096791       0.00181806      -0.00404299       0.00117360
H        7.80906437       3.88153266       2.68905691       0.00828838       0.00016630       0.00219105
H        7.53781897       4.99881678       1.32914607       0.00361238      -0.00290763      -0.00045508
H        6.20528184       4.66728726       2.47108085       0.00605434      -0.00510703       0.00248159
H        9.66048080       5.28987713       3.52458874       0.00727080       0.01086608      -0.01249522
H        9.31169630       7.00126421       3.90214998      -0.00005031       0.00855486      -0.00849281
H        9.43294058       6.49245499       2.21234184      -0.00508452       0.01123390      -0.00896832
H        7.27792193       7.44640124       4.44848739      -0.00045806      -0.00166935       0.00022277
O       12.54866419       4.08003541       8.69030529      -0.00559354      -0.00742412      -0.00207067
N       12.23852722       1.82905885       8.47101745      -0.00259878      -0.00610560      -0.01529524
C       12.95099412       1.48682974       9.68218035      -0.00597258      -0.00877250      -0.01340638
C       11.62525121       0.74737175       7.72763015       0.00067236      -0.00311856      -0.02230897
C       12.12397429       3.10857063       8.06517844      -0.00458780      -0.00522959      -0.00940225
H       13.74366932       0.76649702       9.46592057      -0.00243738      -0.00452518      -0.01376215
H       12.27894461       1.03407711      10.41739712      -0.00590923      -0.01326483      -0.01662621
H       13.38577596       2.39610439      10.09173475      -0.01142702      -0.00990501      -0.00568072
H       12.36601829      -0.02251038       7.50457582       0.00166187      -0.00136489      -0.02950797
H       11.21535585       1.12982894       6.79175444      -0.00120276       0.00292751      -0.01936191
H       10.82500222       0.29066539       8.31795762       0.00393438      -0.01104391      -0.02425110
H       11.59962906       3.19815923       7.09838677      -0.00424641       0.00061091      -0.00779915
O        8.77921320       5.11004799      12.89606279       0.01224941      -0.00768024       0.01847112
N       10.47878155       3.64942525      12.47156356       0.00768044      -0.01293797       0.01550577
C       10.19319099       3.53875575      11.05689182       0.01371976      -0.00373970       0.01420794
C       11.56982247       2.86458831      13.00225432       0.00353275      -0.01949517       0.01463638
C        9.73321559       4.43946577      13.26792538       0.00939226      -0.01568800       0.01883192
H        9.97923548       2.49766773      10.79412947       0.00832701      -0.00078264       0.00731621
H       11.04480545       3.86977325      10.45839449       0.01797938      -0.00590742       0.01913902
H        9.32594246       4.15738541      10.83677366       0.01814121       0.00245838       0.01358664
H       11.36525653       1.79416929      12.92031574       0.00219068      -0.01838762       0.00407659
H       11.71452390       3.10378184      14.05348248      -0.00174627      -0.02892230       0.01735353
H       12.48320560       3.08928202      12.44878085       0.00618115      -0.01683671       0.02066325
H       10.06727388       4.41054032      14.31801662       0.00370713      -0.02419160       0.01911902
O        9.12358446       9.15486123       6.37379883       0.00806896      -0.01010513       0.00221505
N       10.57053362       7.37931016       6.42997253       0.00592777      -0.00013880      -0.00055959
C       11.77773161       8.17279167       6.38658992       0.00578077       0.00236344      -0.00123324
C       10.73783262       5.93958677       6.43047123       0.00502139       0.00175527      -0.00077913
C        9.35205454       7.94898510       6.40922860       0.00388339       0.01663256       0.00113530
H       12.31418775       7.98443402       5.45220819       0.00469816       0.00053459      -0.00155631
H       12.43577981       7.91573680       7.21575978       0.00627145       0.00259480      -0.00104856
H       11.51003904       9.22275900       6.44823212       0.00616212       0.00158194      -0.00200451
H       11.33411601       5.61626710       5.57492443       0.00328042       0.00241504      -0.00220457
H        9.77011217       5.45107514       6.33900889       0.00387052       0.00244782       0.00254455
H       11.23907858       5.61082990       7.34444926       0.00671741       0.00204564      -0.00210759
H        8.54466983       7.20217365       6.44177762       0.00455749       0.00070167       0.00288974
O        2.04478897      10.81498208       1.47503204       0.01046473       0.00490936      -0.00294971
N        3.70912339       9.35637581       1.96971796       0.00617085       0.00132715      -0.00069511
C        4.03811564       9.98501415       3.23792901       0.00244901      -0.00113779       0.00017026
C        4.56153955       8.25978976       1.55322872      -0.00094751      -0.00449166       0.00369072
C        2.75745337       9.82063897       1.19110581       0.00698495       0.00795841      -0.00359449
H        4.96814126      10.54760503       3.14514953       0.00768286      -0.00872913       0.00491376
H        4.18338461       9.20480670       3.98379805      -0.00734218      -0.00240973       0.00088346
H        3.24459963      10.66036611       3.53698193       0.00648406       0.00474732      -0.00389421
H        5.59133365       8.61785165       1.48245869       0.00259709      -0.01343086       0.01208122
H        4.23194233       7.89096169       0.58616989       0.00362180      -0.00230264       0.00154030
H        4.53750722       7.46411871       2.29729653      -0.01335167      -0.00412127       0.00343227
H        2.61718799       9.28681589       0.24567281       0.01106341       0.00945795      -0.00535241
O        3.50841326      12.06900725      12.72342097      -0.01653198       0.00304259      -0.00110658
N        5.20102341      11.96850821      11.18431011      -0.01578537      -0.00382682       0.00491039
C        4.95276864      10.61202859      10.72159881      -0.02286678      -0.00493750       0.01102812
C        6.31007397      12.64814552      10.53797191      -0.01411134      -0.00921811       0.00316846
C        4.46884129      12.57563645      12.10238096      -0.01458269       0.00001591       0.00243211
H        5.86539077      10.02798159      10.83685940      -0.02684405      -0.00948451       0.01829173
H        4.68995703      10.63809883       9.66205754      -0.02163369      -0.00704739       0.01072159
H        4.14616182      10.15483702      11.28012313      -0.02662185       0.00284820       0.01357819
H        7.23448825      12.09172701      10.71126245      -0.01653227      -0.01081502       0.00502105
H        6.40017438      13.65463926      10.93656933      -0.01162473      -0.00766340      -0.00146343
H        6.12531890      12.71381405       9.46369086      -0.01493091      -0.01487189       0.00386429
H        4.77585870      13.60631749      12.30091554      -0.01422468      -0.00077286       0.00473537
O        4.70697484       4.67294202      12.19553944       0.00392896      -0.00388157       0.01772785
N        6.30508751       3.04496797      12.02458039       0.00499443       0.00178038       0.00978541
C        6.26493874       2.97490964      10.57535889       0.00488958       0.00880203       0.00970659
C        7.21119422       2.17301970      12.73625488       0.00426556      -0.00116199       0.00614960
C        5.52654729       3.91570214      12.69458361      -0.00029159       0.00047249       0.01135003
H        5.67330236       2.12271780      10.23088337       0.00557685       0.01010796       0.00574633
H        7.28268200       2.88650599      10.19524512       0.00574845       0.00916449       0.01029683
H        5.81692561       3.89126800      10.19682933       0.00616181       0.01009232       0.01328820
H        6.83586990       1.14611742      12.78383674       0.00229353      -0.00057673       0.00507315
H        7.35019456       2.54151816      13.75079289       0.00790152      -0.00338452       0.00652587
H        8.18417348       2.16288734      12.24708675       0.00269401      -0.00238814       0.00370754
H        5.71217491       3.88183548      13.78136033       0.00238328      -0.00669010       0.01329464
O        5.00665936      11.88635953       5.51859161      -0.00473738       0.00698900      -0.00974923
N        4.89938091       9.92131523       6.68784999       0.00267032       0.00110781      -0.00285366
C        3.45459610       9.89488296       6.77434715       0.00454110       0.00021011       0.00333256
C        5.61071172       8.74345999       7.14915990       0.00509330       0.00121954      -0.00238847
C        5.54481023      10.92641901       6.05492702       0.01144505      -0.01116717      -0.00031817
H        3.13786684       9.72696368       7.80549373       0.00803168       0.00074597       0.00394994
H        3.04678002       9.08129915       6.16646491       0.00089232       0.00260177       0.00354806
H        3.06506846      10.84340463       6.41428219       0.00390479       0.00232917       0.00541861
H        5.29268141       8.48592721       8.16069294       0.00774810       0.00314463      -0.00015336
H        6.68250592       8.93566301       7.13996917       0.00478917      -0.00002668      -0.00510840
H        5.40371208       7.88773205       6.49948933       0.00281794      -0.00129411       0.00074780
H        6.64054761      10.79070173       6.06522747      -0.00000358      -0.00277565      -0.00902606
O       13.82690597       8.57580163       9.16295262       0.00817490      -0.01595235       0.00360548
N       11.71305454       8.09549066       9.91915063       0.00478679      -0.00148225       0.00568845
C       11.09432953       9.34098318       9.50694704       0.01212821       0.00151521       0.00511019
C       10.85147301       7.09032969      10.49414401      -0.00106756       0.00399854       0.00580538
C       13.02606670       7.85129453       9.73030053       0.00171465      -0.01134425       0.00558734
H       10.59861101       9.80502269      10.36111320       0.01152594       0.00257379       0.00385931
H       10.34565178       9.15870760       8.73147310       0.01439667       0.00652555       0.00176731
H       11.86645448      10.00030903       9.12004882       0.01715893      -0.00126189       0.00966971
H       10.30172153       7.48700462      11.35034552      -0.00116479       0.00849982       0.00336042
H       11.45215535       6.24112775      10.81490444      -0.00554076       0.00233606       0.01009449
H       10.12554510       6.73819883       9.75437090      -0.00074741       0.00428768       0.00507069
H       13.31300044       6.87027320      10.14910037      -0.00418495      -0.01199341       0.00539473
O        8.28155582       9.00063484       2.18892016      -0.01694208       0.00502908      -0.01654899
N       10.35268581       9.65313451       2.91955834      -0.00771335       0.00807548      -0.00891954
C       11.09011459       9.04919036       1.83083055      -0.00795175       0.02036614      -0.01206616
C       11.10498998      10.49370335       3.83260019      -0.00377189       0.00403307      -0.00277519
C        9.01388584       9.55572315       3.00715581       0.00405091       0.02051848       0.01659358
H       11.80470503       8.32174748       2.22808728      -0.00809936       0.01430048      -0.02265245
H       11.64683553       9.80638729       1.27432131      -0.00961085       0.02270585      -0.01041089
H       10.39235510       8.54341292       1.16906817      -0.01095304       0.02429831      -0.01700941
H       11.96608633       9.94444000       4.21471755      -0.00156650      -0.00219505      -0.00921845
H       10.46743994      10.79275294       4.66029951       0.00418532      -0.00070053       0.00424755
H       11.46807278      11.38538535       3.31727909      -0.00395711       0.00778633       0.00150928
H        8.63029522      10.02790197       3.92054804      -0.00425503      -0.00497863      -0.00174993
O        8.58415498      10.01256703      11.79994665      -0.01554370       0.02023637      -0.00958133
N        7.35143642       8.08748952      11.90520567       0.00370474       0.00854972      -0.00595900
C        7.38597607       7.78659591      10.49018272      -0.00193302       0.01228705      -0.00762168
C        6.54545982       7.20096027      12.71389867       0.01461592      -0.00066352      -0.00440285
C        7.97699155       9.15153156      12.43381490      -0.00512338       0.01214796      -0.00794765
H        6.37395414       7.76498584      10.08502815      -0.00347888       0.00791500      -0.00235569
H        7.81739077       6.79500081      10.34340934       0.00301924       0.01541016      -0.01346896
H        7.99231551       8.52819819       9.97650556      -0.00895953       0.01822132      -0.00748709
H        5.48923464       7.31561677      12.46091747       0.01315269      -0.01017925      -0.00021748
H        6.72014517       7.41402408      13.76631347       0.01611829       0.00064729      -0.00457478
H        6.83481619       6.17410703      12.51934136       0.02350415       0.00229281      -0.00553089
H        7.89130985       9.17644008      13.53381860       0.00017649       0.01099017      -0.00709128
O        7.12044405       6.05849270       7.82450246       0.00325966      -0.00816667      -0.01030736
N        7.36847865       3.88270759       7.15656909      -0.01894637      -0.00516331       0.02228464
C        6.42484626       3.96805336       6.06159304       0.01132646      -0.00690501      -0.00303651
C        8.09863319       2.63892541       7.29211034       0.01927410      -0.01978454      -0.00770521
C        7.63717798       4.95179535       7.92041622       0.00161326       0.00024128       0.01347056
H        5.64225116       3.21447082       6.18644031       0.01686415      -0.01196471       0.00320955
H        6.95170631       3.78394315       5.12224750       0.01497224      -0.02239779      -0.00767481
H        5.98218875       4.95962766       6.04227262       0.01581714      -0.02230003      -0.00338671
H        7.40754085       1.81321654       7.47782511      -0.02734253      -0.02344349       0.02508358
H        8.79398871       2.72164903       8.12625276       0.00884633      -0.00983323       0.04070470
H        8.67070121       2.44882359       6.37612600       0.00837830      -0.00387992       0.02755281
H        8.41226092       4.73231439       8.67591950       0.00037146      -0.01484693       0.00592089
O        3.99193960       7.53291580      10.19686345       0.00249779       0.00732332      -0.00148083
N        2.91451812       5.77253900       9.20039193      -0.00147703       0.00930700      -0.00186764
C        3.94032332       5.52615019       8.21360063       0.00097255       0.00300321       0.00220226
C        1.68838966       5.01954239       9.06292156      -0.00497358       0.01543734      -0.00526138
C        3.03597893       6.77728297      10.09311174      -0.00221765       0.01008606      -0.00410110
H        3.58283023       5.78782699       7.21233520       0.00703678       0.00528782       0.00076559
H        4.20651389       4.46577232       8.21515698      -0.00561665       0.00168645       0.00323942
H        4.82137210       6.11637873       8.44250108       0.00363895      -0.00244820       0.00598265
H        1.15083972       5.28450652       8.15009833      -0.00308353       0.02131571      -0.00471833
H        1.03122971       5.21316784       9.90561136      -0.00406505       0.01566627      -0.00490816
H        1.89952786       3.94748175       9.03286325      -0.01002929       0.01470250      -0.00862111
H        2.15798638       6.85023472      10.75540066      -0.00358236       0.01690281      -0.00852713
