196
Lattice="13.22291317068969 0.0 0.0 0.0 13.22291317068969 0.0 0.0 0.0 13.22291317068969" Properties=species:S:1:pos:R:3:forces:R:3 energy=-432063.375 stress="0.0008958299295045435 0.00014575189561583102 0.000387280379072763 0.00014575189561583102 0.0008628106443211436 0.000824403774458915 0.000387280379072763 0.000824403774458915 0.001978975022211671" pbc="T T T"
Tb      11.82879532      12.89134946      -1.16069311       0.00551319      -0.03597504      -0.01364830
O        8.63392810      12.01129160       7.04535739       0.00235283       0.00592718       0.00077379
O       10.45461568      11.21007028       6.07733578       0.00813067       0.00699174       0.01392138
O       10.08430289      13.43052008       6.02584840      -0.00214744       0.00436497      -0.00781786
C        9.81213719      12.26590108       6.32563094       0.00185341       0.00373724       0.00264260
H        8.23265307      12.81092863       7.46310021      -0.00331623       0.00757096      -0.00468628
O        6.12617294      11.71358605       9.28729180      -0.00785381       0.00677514      -0.00371251
O        6.82551979      13.05473862      10.90199469      -0.01376582       0.00827578      -0.00623226
O        7.28712565      13.57333371       8.76940964      -0.01102865       0.00740981      -0.00814998
C        6.76957804      12.84091701       9.68591133      -0.01357782       0.00346926      -0.01207674
H        6.06836102      11.63586141       8.30627921      -0.00950063       0.00353348      -0.01186643
O        6.87955212      10.99533362       5.20125702       0.00106502      -0.00466472      -0.00095960
O        4.91873032      10.04758242       4.85904512      -0.00504065      -0.00631225      -0.01254630
O        5.34239551      11.01059618       6.84728879      -0.00196087       0.00239712      -0.02682829
C        5.62580134      10.66687712       5.68787831       0.00413162       0.01735167       0.02982727
H        7.41933421      11.40172715       5.91599347       0.00021816       0.00147912       0.00366812
O       11.09826654      10.47030106       9.97074930       0.00559589       0.02512211       0.01037944
C       10.86904331      11.83535835       9.83473662      -0.01281850       0.02081847      -0.00954103
C        9.81610879      12.31368216      10.87551559      -0.01206002       0.02307658      -0.00898860
H       11.86396788      12.37761836       9.90121572      -0.02033210       0.03579186      -0.02686237
H       10.50902538      12.11557368       8.84386946      -0.02241088       0.00042850      -0.01131040
H        9.78790445      13.41826705      11.05240234       0.00327030       0.02114983       0.00119646
H        8.81197905      12.09673262      10.52393302      -0.01414874       0.03885695      -0.01245365
H        9.87917294      11.74300958      11.82647660      -0.02068847       0.01274787      -0.01437054
H       10.66105123       9.99409835       9.18049545       0.01153821       0.01222543       0.01226757
O       10.37008196       6.62677782       3.31257717       0.01164150       0.00377655      -0.00603426
C       10.05862723       7.99657818       3.60206361       0.00385320       0.00158691      -0.00390455
C       11.28368972       8.80319452       3.96795736      -0.00111938       0.00737807       0.00028621
H        9.52394246       8.44553926       2.75710844       0.00351325       0.00064990      -0.00428420
H        9.35314385       7.96540284       4.43170693       0.00180432      -0.00399729      -0.00567779
H       11.01886559       9.82624122       4.23916419      -0.00654227       0.00565544       0.00156052
H       11.77978116       8.36542398       4.83641483      -0.00019686       0.00833598       0.00036636
H       12.00894269       8.82465585       3.15032969       0.00022644       0.01258505       0.00145786
H       11.01012829       6.62790112       2.59632501       0.01619847       0.00869255      -0.00232484
O       11.05541990       0.72961685       0.69318039       0.00686538      -0.02592026      -0.01301751
C       11.54260978       0.56183501       2.11807352       0.00388551      -0.01460683      -0.01086509
C       10.71395436       1.37050547       3.07008305       0.00353703      -0.00671250      -0.01711303
H       11.49354725      -0.50381899       2.33739404       0.00366380      -0.01285264      -0.00221168
H       12.58736285       0.86683390       2.08960898       0.00399894      -0.01522100      -0.01135268
H       10.95856214       1.08812696       4.09832772       0.00420385       0.00126873      -0.01509324
H       10.86150229       2.44322095       2.94186798       0.00356064      -0.00761172      -0.02491698
H        9.65252208       1.13461421       2.96205215       0.00313768      -0.00667177      -0.01467164
H       10.14901949       1.05540787       0.77275867       0.00567222      -0.02779764      -0.01733632
O        5.58025230       5.81018512       5.11040324       0.00428927      -0.00560874       0.00494152
C        6.11517323       6.72250419       4.16738610       0.00322011      -0.00186156       0.00874782
C        6.15308088       6.04070656       2.81981429       0.00743619       0.00290495       0.00637370
H        5.51796345       7.64041954       4.11834881       0.00072414      -0.00296628       0.01031954
H        7.13280271       7.02421744       4.45221841       0.00191867       0.00056474       0.01127814
H        6.60634489       6.69612104       2.07709006       0.00681592       0.00699966       0.00949649
H        6.73701844       5.12080494       2.87260212       0.01026518       0.00442123       0.00433162
H        5.14462902       5.78442948       2.48961615       0.00870751       0.00087097       0.00382724
H        5.44015178       6.28484900       5.95052000       0.00124661      -0.00678547       0.00590086
O        7.80590066       2.68984546       9.79889349       0.00914896      -0.00035140       0.00115710
C        8.62282938       3.43444811       8.90766654       0.00317460       0.00284535      -0.00164062
C        8.88644543       2.70761609       7.60915750      -0.00311959       0.00640583      -0.00504822
H        8.12832376       4.39529894       8.71504511       0.00088871       0.00292856       0.00302580
H        9.57565719       3.66540380       9.41157591       0.00553530       0.00306768      -0.00607288
H        9.49414420       3.31446949       6.94054817      -0.00804601       0.00859143      -0.00751037
H        9.41340015       1.76770753       7.76322094      -0.00065364       0.00675681      -0.01012676
H        7.95166143       2.47148832       7.10145590      -0.00599423       0.00605947       0.00010483
H        7.64975679       1.76470948       9.42750847       0.00070124       0.00275800      -0.00401655
O        4.90452468      11.22471634       1.42872310      -0.00334334      -0.00193870       0.00663133
C        4.08971383      10.07006879       1.39708231      -0.00409973      -0.00142688       0.00149024
C        4.75456185       8.93588634       0.63476083      -0.00401434       0.00114512      -0.00253326
H        3.84618033       9.74240096       2.41507629      -0.00464356      -0.00523119       0.00049520
H        3.15425657      10.36293620       0.91357948      -0.00378090       0.00056194       0.00236455
H        4.11445134       8.05164844       0.59602007      -0.00334981       0.00071755      -0.00467783
H        4.98477249       9.24910435      -0.38385003      -0.00552926       0.00432163      -0.00181863
H        5.68914303       8.65934876       1.12423220      -0.00326243       0.00011735      -0.00433610
H        5.71728646      10.96649860       1.90099594      -0.00459871      -0.00337680       0.00657460
O        0.08263497       1.22419687      11.42818045      -0.00422230      -0.01921188       0.00301614
C       -0.11417963       2.63871387      11.80857811      -0.00471443      -0.01437491      -0.01573141
C        1.14542535       3.27855838      12.33165655      -0.00687513      -0.01453635      -0.01007192
H       -0.50459372       3.16824055      10.93864919       0.00823699      -0.02401780      -0.02749908
H       -0.89516615       2.62167473      12.57138073      -0.01336928      -0.00171860      -0.02468470
H        0.92221793       4.30768562      12.61918986      -0.00481208      -0.01177265      -0.01803965
H        1.53862895       2.75796688      13.20518801      -0.01599406      -0.01062155      -0.00355795
H        1.91885098       3.30681855      11.56540282      -0.00077407      -0.02321725      -0.00453579
H        0.83375567       1.14572388      10.74369230       0.00200245      -0.02246292       0.00777495
O       10.08005941       9.37953738       7.84659698       0.01384270       0.01066129       0.01769923
C        8.71781867       8.94759272       7.70677019       0.01320961       0.00878000       0.02030174
C        8.63281635       7.46860640       7.40251700       0.01347553       0.01091582       0.00939784
H        8.17537756       9.18654295       8.62583515       0.01778057       0.00119644       0.02439433
H        8.24865126       9.51386278       6.90225687       0.00906897       0.01442915       0.02639616
H        7.58867764       7.16127155       7.31717599       0.01314983       0.01138007       0.01029730
H        9.12413020       7.24540529       6.45724245       0.01059915       0.01761706       0.00614588
H        9.11343690       6.87184857       8.17966482       0.01567144       0.00508405       0.00386317
H       10.23602327      10.07808381       7.12382154       0.01184186       0.00993595       0.01479326
O        5.56066865       4.16365767       9.62503181       0.01094979       0.00428587       0.01612574
C        4.41057874       3.62096388      10.22594869       0.01167244       0.00201333       0.01598167
C        4.73691992       2.60038467      11.30008116       0.01362410      -0.00260091       0.01122218
H        3.84059298       4.45869504      10.65238442       0.01276207       0.00069582       0.02042559
H        3.75825881       3.16600212       9.46234758       0.01024440       0.00523210       0.01493001
H        3.82883159       2.17311507      11.73020715       0.01406306       0.00012837       0.01529260
H        5.34451235       1.78106562      10.90818189       0.00918399      -0.00418729       0.00710514
H        5.30805887       3.06697009      12.10316366       0.01952326      -0.00660157       0.00945550
H        6.30578760       3.52388753       9.71773320       0.01034415       0.00286338       0.01148659
O        3.14262562       8.48017411       5.82729791       0.00215113       0.00601614      -0.00115225
C        1.88001804       9.10299203       5.88470969      -0.00128287       0.00336969      -0.00112712
C        1.79897884      10.19248414       6.93878322      -0.00420023       0.00230056      -0.00074530
H        1.62211954       9.51464967       4.90074751      -0.00028148       0.00331017      -0.00136751
H        1.14000690       8.32182270       6.09348644      -0.00071564       0.00152189      -0.00245978
H        0.81328459      10.66410457       6.93029558      -0.00537802      -0.00002439      -0.00107859
H        1.97699490       9.77605649       7.93133815      -0.00408169       0.00162680      -0.00087391
H        2.56827519      10.94440713       6.75306442      -0.00574861       0.00425816       0.00057526
H        3.81730492       9.14811891       5.46461922      -0.00272939       0.00163858       0.00033384
O        8.29821968       8.48749387      11.30540116       0.00511992       0.00578606       0.01967208
C        8.27360926       7.06333164      11.22842040       0.00058000       0.00644600       0.00561023
C        7.16028691       6.43526124      12.03863160      -0.00017983       0.00156476       0.00099742
H        8.20843343       6.73441181      10.18550009      -0.00210684       0.01723009       0.00233096
H        9.24621842       6.74158306      11.60906138       0.00025386      -0.00050376       0.00092116
H        7.23953525       5.34706334      12.00941251      -0.00494869       0.00149438      -0.01234766
H        7.20531511       6.77150021      13.07405287       0.00347222      -0.01101618       0.00512223
H        6.18349524       6.69714894      11.62778013       0.00004004       0.01052071       0.00630543
H        7.47058539       8.82644483      10.94752568       0.00477557       0.01163321       0.02548262
O       -0.31004255       6.44454758      10.50896508      -0.01396495       0.02827936       0.01016234
C        0.51423718       5.74198724       9.55956644      -0.00864777       0.02012573       0.01996006
C        1.38961225       6.66849679       8.74792309      -0.01295650       0.01422894       0.00844926
H        1.13051502       5.06340141      10.15006500      -0.00603245       0.03135650       0.02996232
H       -0.11203095       5.13488151       8.89823456      -0.00549072       0.00837132       0.02753893
H        1.99424557       6.09884838       8.03870714      -0.01054633       0.00728419       0.01591102
H        0.78370052       7.37941327       8.18289893      -0.01588722       0.00419453      -0.00129202
H        2.06327818       7.22971373       9.39484941      -0.01540016       0.02533717       0.00130321
H       -0.94865226       6.95363979       9.99798815      -0.00985834       0.02592333       0.00265965
O        7.28132549      10.31879866       2.60572436      -0.00432152      -0.00462291       0.00438371
C        8.38369765      11.01751779       2.06506650      -0.00371140      -0.00493377      -0.00202924
C        7.97013431      12.32475369       1.40585677      -0.00708553      -0.00855058      -0.00664258
H        9.13683479      11.19905662       2.84320234      -0.00423396      -0.00093558      -0.00237542
H        8.83522200      10.36111004       1.31093916      -0.00362834      -0.00764453       0.00143373
H        8.83896474      12.78944798       0.93195956      -0.00847995      -0.00989003      -0.01062101
H        7.22100378      12.16824688       0.63004003      -0.00874975      -0.01225488      -0.00449878
H        7.56679999      13.01956902       2.14256337      -0.00623861      -0.00523368      -0.00902703
H        7.16279275      10.55827255       3.55074352      -0.00044202      -0.00411600       0.00105499
O        0.79165685      11.30910252       2.69195372      -0.01146452       0.01061571      -0.00534746
C        1.16122015      12.13407352       3.80295344      -0.00720260       0.00502133      -0.00228228
C        2.62746055      12.50041883       3.80887379      -0.00462282      -0.00432967       0.00034989
H        0.55007159      13.03501180       3.71920893      -0.00084952       0.00956559      -0.00024593
H        0.86970531      11.64895814       4.73905716      -0.01149771       0.00410163      -0.00398487
H        2.81107656      13.23107203       4.59874131      -0.00090732      -0.00682548       0.00162302
H        3.26783864      11.63449404       3.98361273      -0.01008797      -0.00851274      -0.00000102
H        2.91829131      12.94616315       2.85746084      -0.00046220      -0.00498123       0.00132678
H        1.22139816      10.44284368       2.77495158      -0.01225023       0.00978206      -0.00936590
O       13.41844193       4.60579858       6.21480996       0.00174567      -0.00773299       0.00707471
C       12.08663574       4.39875420       5.70790518       0.00295115      -0.00165386       0.00071028
C       11.10386870       5.35824359       6.32756654       0.00472462       0.00371554      -0.00451922
H       12.08347600       4.49897839       4.61858267       0.00874861      -0.00265709       0.00052553
H       11.84393087       3.36370775       5.95141030      -0.00332955      -0.00033963       0.00043096
H       10.11521993       5.22111046       5.89122071       0.00562377       0.00782441      -0.00813688
H       11.03175965       5.20694463       7.40582209       0.00015838       0.00534280      -0.00452386
H       11.39499129       6.39343146       6.13924738       0.01025988       0.00221233      -0.00487113
H       13.69812316       5.48866170       5.94808861       0.00693967      -0.00906977       0.00772920
O        1.98382649       0.79932179       9.76180135       0.00387388      -0.00402313       0.01599830
C        2.13204615       0.92309733       8.31216712      -0.00663820      -0.00103261       0.01493637
C        3.55492687       0.67508351       7.88571310      -0.01137358      -0.00700413       0.00484417
H        1.44986982       0.20874583       7.84573782      -0.01423633       0.00282496       0.01957878
H        1.80076818       1.93060129       8.05761349      -0.00380395       0.00124168       0.01915949
H        3.63488714       0.81163050       6.80736024      -0.01840659      -0.00763897       0.00412062
H        4.24697926       1.37188233       8.35976038      -0.00510907      -0.00922751      -0.00019379
H        3.87982074      -0.34378996       8.10440750      -0.01358442      -0.00813967       0.00309158
H        2.74727012       0.32085058      10.10286224       0.01570189       0.01304951       0.01377566
O        1.27173600       8.45322629       2.28504600      -0.00954723       0.00493702      -0.01505393
C        1.83107811       7.20324867       2.68990381      -0.00104921       0.01213598      -0.00351536
C        0.76332497       6.14287868       2.88583277       0.00567746       0.00646952       0.00276779
H        2.56831165       6.86326632       1.95330714       0.00300583       0.01168227       0.00073600
H        2.36934819       7.39369677       3.61964237      -0.00420122       0.02317251      -0.00383180
H        1.19965270       5.19192745       3.20355130       0.01128964       0.01067410       0.00783207
H        0.03674207       6.46637195       3.63451778       0.00372551       0.00631828       0.00108536
H        0.22406232       5.96701030       1.95008308       0.00682691      -0.00224150       0.00362904
H        0.83916027       8.33187102       1.42587090       0.00043711      -0.00448164      -0.01903731
O        1.96931428       2.91587007       4.89493131       0.00262076      -0.00957137       0.00613277
C        3.21132518       3.58668690       5.10454325       0.00150168      -0.00574956       0.00123650
C        4.25947842       2.95081986       4.22990424       0.00228000      -0.00825775       0.00371990
H        3.13013625       4.65552420       4.87044237      -0.00103599      -0.00710690      -0.00490482
H        3.51319758       3.52025662       6.15949403       0.00272764       0.00093587       0.00126725
H        5.21834668       3.43433287       4.40525540       0.00084998      -0.00338501      -0.00110673
H        4.33531267       1.88618687       4.44833212       0.00688790      -0.00645036       0.01113515
H        3.99152549       3.06236676       3.17807864      -0.00016722      -0.01671078       0.00338151
H        1.29800820       3.42408624       5.37871150       0.00242333      -0.01069183       0.00702039
O       12.95838493       8.37451927      -0.15015568       0.01600073      -0.02088824      -0.03145200
C       11.79718932       9.19886152      -0.09426356       0.00961460      -0.03156960      -0.02030998
C       12.23568092      10.63308774       0.17836935       0.00407122      -0.03281970      -0.00783372
H       11.22265391       9.13820594      -1.02014032       0.00910288      -0.02409605      -0.02054054
H       11.15549831       8.87795578       0.73342612       0.01017950      -0.04181860      -0.02322915
H       11.32329616      11.24341911       0.34290037       0.00269473      -0.03383571      -0.01043326
H       12.83547142      10.71259130       1.08941936      -0.00175923      -0.03509090      -0.00420249
H       12.87296819      10.97903084      -0.67610967       0.01007763      -0.02953157      -0.00220910
H       12.96402112       7.85278728      -0.96368718      -0.00358859      -0.04695685      -0.01575300
O        5.08149491       7.37156711       7.31791624       0.00147763       0.00022134      -0.00133765
C        5.08006567       7.26594622       8.73178971      -0.00317282      -0.00140184      -0.00080937
C        4.77447791       8.58811709       9.40200629       0.00372347      -0.00004148      -0.00063974
H        4.38457055       6.48541306       9.05989246      -0.00973415       0.00285518      -0.00391266
H        6.07197557       6.90593605       9.01192381      -0.00646901      -0.00893164       0.00144373
H        4.80566765       8.48548283      10.48945789      -0.00196696      -0.00171341      -0.00059961
H        5.47397971       9.36513943       9.09805992       0.01056074      -0.00453573       0.00337374
H        3.77717947       8.94029332       9.13271047       0.00746711       0.00784569      -0.00491808
H        4.26813490       7.81727827       6.99833746       0.00246067       0.00093605      -0.00222091
