196
Lattice="18.588791507611475 0.0 0.0 0.0 18.588791507611475 0.0 0.0 0.0 18.588791507611475" Properties=species:S:1:pos:R:3:forces:R:3 energy=-1671574.625 stress="0.0005322108045220375 2.2021349650458433e-05 -9.739149754750542e-05 2.2021349650458433e-05 0.0005558420089073479 -0.00010650108015397564 -9.739149754750542e-05 -0.00010650108015397564 0.00023412113660015166" pbc="T T T"
N        9.52711070      12.27424667       7.37278867       0.00153887       0.00054666       0.00013199
C        9.98987518      12.61553967       8.77991500      -0.00094958      -0.00071680       0.00116408
C       10.65775106      11.67057376       6.55384733       0.00051802      -0.00006866      -0.00053072
C        9.05611503      13.54780040       6.69063872       0.00191487       0.00159752       0.00118868
C        8.39862108      11.25852753       7.47642542       0.00010243       0.00103110      -0.00213779
C       11.22462593      13.48573311       8.88244224      -0.00010544      -0.00119910       0.00381043
C       11.31891962      10.44950861       7.15205665      -0.00087288      -0.00132924      -0.00121161
C        8.44844109      13.35758652       5.31910229       0.00106445       0.00377317       0.00089467
C        7.09836592      11.78448976       8.04990201       0.00208747      -0.00229347       0.00462130
H        9.14445352      13.10804807       9.25448257      -0.00048718      -0.00343829       0.00064710
H       10.15017671      11.66380131       9.28330915      -0.00003349      -0.00285989      -0.00056025
H       10.22265274      11.42579911       5.58790094       0.00176230       0.00361706      -0.00042409
H       11.37852479      12.47232736       6.39852715       0.00288332       0.00032946       0.00262182
H        8.34515030      14.01020746       7.37431802       0.00361758       0.00131222       0.00181644
H        9.93188915      14.19130036       6.63227994       0.00341350       0.00068279       0.00073728
H        8.25213298      10.86751978       6.47004198      -0.00218035       0.00526119      -0.00262344
H        8.79182729      10.45241202       8.09341887       0.00212115      -0.00191830      -0.00631091
H       11.40953929      13.64546602       9.94580394       0.00062609      -0.00649881       0.00439230
H       12.11574094      13.01575706       8.46775474      -0.00042169       0.00146148       0.00062673
H       11.09380062      14.46822655       8.43064440      -0.00176910       0.00050339       0.00882967
H       12.13443198      10.16966132       6.48447915       0.00104131       0.00033693       0.00057873
H       11.75314935      10.63648311       8.13309671      -0.00427762      -0.00425272       0.00052851
H       10.64776329       9.59450042       7.21869482      -0.00130144      -0.00153314      -0.00570108
H        8.12618506      14.33565967       4.96211406       0.00131443       0.00498116       0.00316185
H        9.15515574      12.97080227       4.58714778      -0.00042920       0.00466120      -0.00040908
H        7.56610275      12.71999142       5.32726610       0.00014427       0.00466996       0.00084335
H        6.42592730      10.93530550       8.17158742      -0.00220360      -0.00121525      -0.00688189
H        7.21721865      12.23928565       9.03243779       0.00532771      -0.00892016       0.00736073
H        6.60154459      12.49839171       7.39459841       0.00108378       0.00220150       0.01213308
P       17.49930106       7.99042828       0.71255578       0.04017727      -0.00273287      -0.00152668
O       18.82350727       8.87962790       0.47847982      -0.01914799       0.00075150       0.00402132
O       17.38338832       7.31939896      -0.76763866       0.02101694       0.01295015       0.00762594
O       17.75140761       6.89944542       1.70809699       0.00317660       0.00686646       0.00471771
O       16.36082607       8.92647143       0.95328375      -0.00432324       0.01579523       0.00089046
H       19.61328844       8.34919477       0.63174701       0.02353710      -0.00999427       0.01270365
H       16.73271991       6.60859047      -0.74610947      -0.00288725      -0.00928673       0.00318764
Cl       3.74441770       4.75146829       3.73135836      -0.00250888       0.00212413       0.00057764
Cl       4.14541655       6.88564278       1.80074073       0.02085903      -0.01021861      -0.00693959
Cl       3.96269893       7.50403503       4.62573385      -0.00702719       0.00549504      -0.01215184
Cl       1.60442100       6.62468877       3.13960214       0.00662541       0.00223865      -0.03199702
C        3.34068670       6.44384468       3.32749649       0.00386913       0.00094245      -0.01316388
Cl       8.37550673       2.09489809      11.28368375      -0.00124949       0.00079438       0.00300831
Cl       9.63081348       4.68081787      11.63439449       0.00660191      -0.00104541      -0.00443791
Cl       9.68810390       3.38399665       9.03785168      -0.00889405      -0.00223642      -0.00268719
Cl      11.27006301       2.32068884      11.22264796      -0.00137395      -0.00564478      -0.00901843
C        9.73859038       3.11803914      10.79500655      -0.00102547      -0.00247164      -0.00326059
Cl      16.55679842       6.34894714       5.41279129       0.00183025       0.00862342       0.00713606
Cl      15.79307620       8.51725719       3.64790164       0.00843640       0.00475067       0.00019085
Cl      16.80726902       9.08408863       6.30990917      -0.00221777       0.01165205       0.00199538
Cl      14.16944769       7.90473378       5.98389835      -0.00027782       0.00998828      -0.00491399
C       15.83055961       7.97151880       5.30259648       0.00242808       0.00905068       0.00049281
Cl       0.56841403      14.26126415      11.34136764      -0.00838962      -0.00233522       0.00396991
Cl      -0.09338610      12.55299178      13.59307505      -0.00261205      -0.00594805       0.00276342
Cl       2.32307681      14.15701825      13.65151288      -0.00326520      -0.00560901      -0.00014696
Cl       2.13587306      11.87796426      11.86831085      -0.00618190      -0.00212985      -0.00389902
C        1.22741549      13.20731667      12.61794740      -0.00509542      -0.00394670       0.00070250
Cl      10.67501954       0.54906164       5.72018671      -0.00001967       0.00093697       0.00085095
Cl       8.50993009      -1.22885894       4.95220255      -0.00379323       0.00001353       0.01532974
Cl       9.20431908       1.02853573       3.26494257      -0.01275413      -0.00293299       0.00790492
Cl       7.92837225       1.47651556       5.83203040       0.00180987       0.00156894       0.01454893
C        9.08015158       0.46791702       4.93973338      -0.00373492       0.00025663       0.00941026
Cl      15.63215725      16.13944331      12.85663626       0.00188932      -0.00987215       0.01585886
Cl      13.61136763      15.24437108      14.73827271      -0.01313458      -0.00628504      -0.00050524
Cl      12.83939935      16.07192935      12.06570540       0.00814909      -0.00440470      -0.00627474
Cl      13.75804139      18.04445349      13.98699929      -0.00227345      -0.00611132       0.00146678
C       13.96685987      16.37405166      13.42322313      -0.00123438      -0.00659082       0.00313517
Cl      14.68874669      11.75189562       5.28502937      -0.02188344       0.00328407       0.00960958
Cl      15.01918963      12.64738498       2.55023276      -0.00823009      -0.00522832       0.00639138
Cl      13.30085240      14.12318347       4.37712594      -0.02326383      -0.00555965      -0.00977924
Cl      12.49465623      11.50856257       3.40045615      -0.00651182      -0.01258148      -0.00557064
C       13.89593145      12.51168000       3.89597395      -0.01534821      -0.00600703       0.00009426
Cl      14.90028945       4.82965557       0.12805792      -0.00505656       0.00812250      -0.00150415
Cl      14.57356929       2.07569006       0.96718952       0.00352407       0.00868320       0.00510121
Cl      15.84279576       3.99853917       2.73688465      -0.00034529       0.01762089      -0.00079769
Cl      17.22106474       3.09911488       0.35418894      -0.00033540       0.01503587       0.00038707
C       15.64298258       3.50235968       1.05599883      -0.00015251       0.01200897       0.00100192
Cl      16.66244866      10.29949740      16.18924437       0.00298661       0.00187850      -0.00819468
Cl      14.68820015      11.57237293      14.49078754      -0.00009274       0.00241926      -0.00571525
Cl      14.19854399      11.29489948      17.34409147       0.00439543       0.00195450      -0.00486887
Cl      14.15857081       8.95194174      15.63043838       0.00269699       0.00200033      -0.00692640
C       14.93992083      10.53138110      15.92506196       0.00291270       0.00155538      -0.00695450
Cl      16.87137223      16.63292882       5.37636063      -0.00798512      -0.00065228      -0.00098127
Cl      16.73259927      19.08770026       3.83646363      -0.00062057       0.00562787       0.00163836
Cl      14.30958978      17.91842727       4.92405911      -0.00296816       0.00142907      -0.00688113
Cl      15.69133548      16.62453044       2.72531686       0.00465632       0.00487059      -0.00357687
C       15.90709797      17.57013030       4.20519751      -0.00112469       0.00336453      -0.00252098
Cl       1.59677707      13.23492987       3.73241696      -0.00053459      -0.00320661      -0.00844167
Cl       0.92779043      10.42444312       4.01492248       0.00553274      -0.00152496      -0.00101846
Cl       3.57502129      11.36988055       4.74249042       0.00846586       0.00493918       0.00534287
Cl       2.78132107      11.27641292       1.95170861       0.00313978      -0.00521562      -0.00109017
C        2.20855652      11.56873333       3.60559795       0.00517709      -0.00171784      -0.00171900
Cl      11.98689210       6.19394808      16.38694064       0.00187190       0.00294042      -0.00016066
Cl      12.08605170       3.98262389      14.51158031      -0.00196674       0.00340483      -0.00126743
Cl       9.58119788       4.68674761      15.79612482      -0.00304562       0.01273841      -0.00884299
Cl      11.71644008       3.46580707      17.33679162      -0.01401240       0.00308409      -0.00345656
C       11.34268558       4.57420469      16.01068241      -0.00465301       0.00547278      -0.00351217
Cl       8.43871459      14.15944532       1.55140063      -0.00644538       0.00274300      -0.01180152
Cl       6.03303602      13.42156877       0.10414412      -0.01025459      -0.00396372      -0.00122178
Cl       5.83037135      14.57825117       2.75502757      -0.00293143       0.00103433      -0.00235721
Cl       6.86029350      11.87925556       2.41354459       0.00113976       0.00204921      -0.00059605
C        6.78659404      13.50808169       1.70410793      -0.00460859       0.00027627      -0.00400707
Cl      10.66766245       8.04946262      12.93368538       0.00180725      -0.00459404      -0.00103329
Cl      10.05383243       8.35663550      10.11535951       0.00229799      -0.00357256      -0.00302289
Cl      11.63875599      10.36786231      11.49122604       0.00867063      -0.00776714      -0.00193531
Cl       8.80201725      10.09686791      12.06251934       0.00666137       0.00015373      -0.00144451
C       10.28875628       9.21817447      11.66502215       0.00481953      -0.00381884      -0.00151522
Cl       1.26551337       5.48438520      17.30463606      -0.00074553       0.00274688       0.00482419
Cl       2.01353616       3.05940093      15.89788948       0.00212499       0.00930959      -0.00581205
Cl       3.13443566       3.62006046      18.51236975       0.00067393      -0.00094768      -0.00339073
Cl       3.94575386       5.19835827      16.22065812      -0.00100827       0.01104271       0.00337446
C        2.57654994       4.34487973      16.98874993      -0.00036400       0.00615612       0.00020757
Cl       3.70216266      16.87604151       8.17013700      -0.00765614       0.00356519      -0.01117754
Cl       1.88107100      14.74352828       7.43393065       0.00483859      -0.01012729      -0.00270761
Cl       4.11857316      14.19321512       9.19566055       0.00051063       0.01119620       0.00785162
Cl       4.58454124      14.76740991       6.38376842       0.00895490      -0.00333084       0.00681829
C        3.56688823      15.14925496       7.79931791       0.00153135       0.00057953       0.00015576
Cl       9.75639412      13.39069090      14.04010222       0.03353846      -0.01744416      -0.00363714
Cl      10.90283753      10.98439064      15.19438819       0.00486571      -0.01913166       0.01897508
Cl       8.22905881      11.82126002      15.94170929       0.00423682       0.00312528      -0.01265661
Cl      10.53484716      13.34473018      16.82898353       0.00516182      -0.00872642       0.00415632
C        9.85624662      12.37951173      15.50637079       0.01211329      -0.01037414       0.00184223
Cl       6.25287714       9.35067627      -0.32370747       0.00328389       0.00102362      -0.00639664
Cl       9.03050548       8.61283491      -0.72507340       0.00122499      -0.00347365      -0.01185346
Cl       7.00751313       6.55458486      -0.46627084      -0.00212593      -0.00084239      -0.00246990
Cl       7.75722530       8.14274493       1.84012866       0.00831734       0.00302290      -0.00757930
C        7.51499902       8.16506772       0.07775656       0.00274815      -0.00035474      -0.00696331
Cl      -1.43147635       7.22587196      12.57192059       0.00969282       0.00214547      -0.00858026
Cl      -1.04100178       4.76358259      14.05181326       0.00590277       0.01172012       0.00594759
Cl       1.20448340       6.53847082      13.56729588       0.00941336       0.00346297      -0.00560442
Cl       0.04562358       5.02986180      11.37718284       0.00632451      -0.00644702       0.00305733
C       -0.30405447       5.88903820      12.89765491       0.00762990       0.00287160      -0.00085077
Cl      10.94030764      16.79079495      -0.80399136      -0.00702569       0.00603685       0.00864960
Cl      12.77169065      15.06418163       0.64005098       0.00238181      -0.00124174      -0.00727740
Cl      12.03184286      17.64398935       1.74257890       0.00781681      -0.00180554       0.00450790
Cl      13.74229645      17.49788775      -0.59506855      -0.00499266       0.00597471      -0.00575769
C       12.37353856      16.75282724       0.24815668      -0.00044343       0.00329077      -0.00035232
Cl       1.97837880      17.69164889       4.71678961      -0.00379556      -0.00298458       0.00351900
Cl       4.75860125      18.11404762       3.98940956      -0.00165039      -0.01226501       0.00732951
Cl       2.67402648      19.70489891       2.75036748       0.00618891       0.00030965       0.01109242
Cl       2.92453834      16.89024612       2.10183078      -0.00420860       0.00285408      -0.00024772
C        3.08056344      18.10242510       3.38836717      -0.00122470      -0.00367886       0.00568098
Cl       6.26819787       1.91965223       1.05899463      -0.00985437      -0.00215119       0.00790346
Cl       7.65071485      -0.27447162      -0.23010445       0.00056005       0.00958353      -0.00153751
Cl       6.85401082       2.04740693      -1.77795939      -0.01430282       0.00980276       0.00702459
Cl       4.84207367       0.20459811      -0.79506333      -0.00348070      -0.00349858       0.00516745
C        6.40159759       0.97523491      -0.44124709      -0.00695094       0.00367278       0.00465696
Cl      15.66802659       6.39838881       9.15190874       0.00258958      -0.00106904       0.00263156
Cl      14.83868055       4.10272079      10.71598656       0.00554594       0.00138080       0.00683123
Cl      13.99499329       4.35902848       7.94749057       0.01159663      -0.00864103       0.00349364
Cl      12.89642371       6.12496311       9.96541549       0.00108781      -0.00675558      -0.00452517
C       14.35515180       5.24477573       9.44655839       0.00502175      -0.00363237       0.00222746
Cl       3.61225977      -0.11112727      14.20708822       0.01287571       0.00478553      -0.00775272
Cl       3.56266135       1.54695950      11.82748770      -0.00135180       0.00154686      -0.01039854
Cl       1.07876242       0.82120362      13.14001487       0.00724018      -0.00117326       0.00203058
Cl       2.60327677      -1.18599292      11.70738137       0.00467455      -0.00121439      -0.00160334
C        2.71551176       0.26894619      12.71993000       0.00593350       0.00099530      -0.00450412
Cl       1.47423243       7.69613292       7.42126113       0.00465681      -0.00184938      -0.00850418
Cl       1.46484174      10.51471231       8.10261098      -0.00022586      -0.00434431      -0.00090193
Cl       3.87644203       8.93820957       8.46987328       0.00084916      -0.00224209       0.00121512
Cl       1.59073627       8.51205268      10.19912488      -0.00316930      -0.00862606      -0.00510937
C        2.08938986       8.91176369       8.54397296       0.00055201      -0.00453857      -0.00328401
Cl       5.68439470       3.01139719       8.76769621      -0.01883060      -0.00054285       0.00884259
Cl       4.66552066       5.28335481       7.28062555       0.00358099       0.00366865       0.00104958
Cl       6.38716229       5.71282669       9.57160264      -0.00278410      -0.00312468       0.00596821
Cl       3.67982891       4.74761335       9.95361154      -0.00922829       0.01504454       0.00047424
C        5.09996133       4.69312237       8.88734942      -0.00734741       0.00441829       0.00429532
Cl      18.54336852      15.33106385       0.84898532       0.02110055      -0.01749134       0.01074415
Cl      19.01007203      14.24967691      -1.79319571      -0.00129500      -0.01360460       0.00462312
Cl      16.29572570      14.63378772      -0.84453623       0.00721383       0.00887066       0.01794720
Cl      17.94782754      12.54184344       0.29678973      -0.00735655      -0.00971830       0.00573573
C       17.95399110      14.17885884      -0.37177535       0.00461160      -0.00886229       0.00979425
Cl       3.78298508       8.94324868      15.09629581      -0.00142074      -0.00660587      -0.00533015
Cl       4.65321331       7.95217653      12.51044023      -0.00346154       0.00175029      -0.00894886
Cl       6.55660192       8.19904421      14.68451198      -0.00171602      -0.00358154      -0.00939138
Cl       5.48467351      10.58332434      13.41981615      -0.00360794      -0.00094342      -0.00233468
C        5.11909295       8.91093810      13.92666936      -0.00291270      -0.00218058      -0.00631742
Cl       9.41085491      17.00574348      11.35208371       0.00004363      -0.01654959      -0.00321394
Cl       6.54661480      17.02611101      11.81849278      -0.00020212       0.03058538      -0.03135419
Cl       7.90597138      14.52680487      11.27841195      -0.03343761       0.00799322       0.00676969
Cl       7.58484191      16.49204336       9.15905471       0.01234160      -0.01168528      -0.01611698
C        7.85875168      16.27989581      10.91032124      -0.00558611       0.00285119      -0.01151609
Cl      16.71766258      12.78356838       8.43378224      -0.01056734      -0.01404849      -0.00339025
Cl      14.63856860      10.79627667       8.80737882      -0.01252753      -0.00786048       0.01538932
Cl      14.87076497      13.01779912      10.65747781       0.00648439      -0.00505078       0.00898609
Cl      16.87403727      10.91667637      10.64561221       0.00085795      -0.01109779      -0.00132942
C       15.78400756      11.87622489       9.64376230      -0.00399438      -0.00964826       0.00515464
Cl      10.95096246       7.75885205       4.07528181      -0.01892525       0.01273838       0.00783220
Cl       8.31426278       7.56047773       5.28299966      -0.01337951      -0.00344625       0.01630399
Cl      10.57028570       6.16198645       6.46735672       0.00092503       0.01456282       0.01286310
Cl       9.47592349       5.26755040       3.93338630      -0.00183025       0.00190580       0.01793283
C        9.83540589       6.67816865       4.93426122      -0.00894372       0.00665450       0.01403174
Cl      -0.48819083       1.49513979       7.26260090       0.01181173      -0.01037452      -0.00949064
Cl       0.34974905       4.20818211       7.86542569      -0.01405878      -0.00450802       0.00048506
Cl       0.33250516       3.28123872       5.12534906      -0.00635523       0.00467739      -0.00264162
Cl       2.29839491       2.24310661       6.99249572       0.00296825       0.01522584      -0.00674510
C        0.62157333       2.80500707       6.81036525      -0.00115380       0.00168027      -0.00455280
