198
Lattice="18.67614666583126 0.0 0.0 0.0 18.67614666583126 0.0 0.0 0.0 18.67614666583126" Properties=species:S:1:pos:R:3:forces:R:3 energy=-1867806.0 stress="-0.0003727650619111955 -0.00015160149632720277 -4.49423987447517e-05 -0.00015160149632720277 -0.00032189436024054885 3.875797301589046e-05 -4.49423987447517e-05 3.875797301589046e-05 3.8540925743291155e-05" pbc="T T T"
N       16.68602128      16.52210300       1.74626463      -0.00203282       0.00351767       0.02762036
C       17.56841513      15.68092469       0.87213003      -0.00045812       0.02153891      -0.01204515
C       15.26990048      16.37344477       1.29651808       0.02296114       0.00218506      -0.03782609
C       17.08668156      17.96438064       1.64709564      -0.02562279      -0.01820457      -0.03589846
C       16.80667591      16.07530161       3.16537980      -0.00052360      -0.01735818      -0.02657205
H       17.24491321      14.64646329       0.96335297      -0.00647891      -0.01445207      -0.00538738
H       17.49813294      16.04858676      -0.14714880      -0.00382992      -0.00208467      -0.01305348
H       18.59511787      15.80841691       1.19827993      -0.00004128      -0.00125246      -0.01093249
H       14.63087873      16.98307015       1.92900062      -0.01205976       0.00492771       0.01676330
H       15.20499491      16.71161596       0.26575837      -0.00691183       0.01028270       0.00767180
H       14.98596120      15.32664801       1.37079430      -0.00212953      -0.00566868      -0.01448447
H       16.38919878      18.54777449       2.24330359      -0.01119497       0.00225325       0.00857361
H       18.10465696      18.06748414       2.00952486       0.02152643       0.00283862       0.01550080
H       17.07574875      18.25843619       0.60127166       0.00347315       0.00765924       0.01094773
H       16.15821223      16.69229324       3.78139533       0.00185536      -0.00378239      -0.00376155
H       16.50501642      15.03337670       3.23616268      -0.00230242      -0.00044838      -0.01454646
H       17.84116003      16.19099397       3.47700033       0.00465685      -0.01235310      -0.01069080
Cl      19.25870731      18.05371776      -0.79013548      -0.00755439       0.00045438      -0.01277372
Cl      14.51926566       1.00568947      -0.75290426       0.00286399       0.00328624       0.00881006
Cl      13.74726484       3.79436277      -0.64516757       0.01519798      -0.00013074       0.00400275
Cl      15.86571473       2.82243567       1.06907029       0.02072588      -0.00289191      -0.00189750
Cl      13.11880183       2.03515374       1.57341737       0.01754116       0.00606088       0.01244587
C       14.31522449       2.42737950       0.31268592       0.01156095       0.00522020       0.00525543
Cl      15.82310167      16.52630183       7.93056208       0.00543728       0.00113866      -0.01137173
Cl      13.54365679      14.72619500       7.88561945       0.00714430      -0.00095882       0.00012237
Cl      15.83470165      14.21490994       6.18631173      -0.00844155       0.00859037      -0.02223689
Cl      14.06471253      16.46109966       5.63214974      -0.01247293       0.01035024       0.00100905
C       14.81740137      15.48282678       6.91952544      -0.00278189       0.00492793      -0.00980767
Cl       4.31457013       6.39223656       3.37090187      -0.01333017       0.00608048       0.00737348
Cl       2.68537768       7.92240362       1.52555251       0.00686353       0.02295922       0.00547332
Cl       5.31306371       6.98757476       0.71304827      -0.00304732       0.00224881       0.00603384
Cl       5.07112139       9.10778751       2.66525438       0.01637293      -0.00146002       0.01151903
C        4.34505846       7.60393990       2.06855501       0.00258187       0.00812148       0.00552204
Cl      10.24377085       5.37933167      12.79549420       0.00235423      -0.00103909      -0.00945516
Cl       9.17326180       7.32638023      10.93075299      -0.01203660      -0.00181179      -0.00031722
Cl       9.23074379       7.91850550      13.76770736      -0.00383332      -0.00976458       0.00367001
Cl       7.39839209       5.91865165      12.74691425       0.00013995      -0.01312007       0.00473621
C        9.01239764       6.63744558      12.55880996      -0.00324130      -0.00880395       0.00327221
Cl       3.41154496      16.87413748      -0.30850579      -0.00465685      -0.01166421      -0.01590052
Cl       6.10933060      16.54657517      -1.34605382       0.00620726       0.00576498       0.01440287
Cl       4.68527201      14.25400039      -0.28085777       0.00401668      -0.00324172       0.00636043
Cl       5.62546009      16.33005338       1.50882664      -0.01617229       0.00175405       0.00547111
C        4.94023105      16.01168045      -0.11394128      -0.00236762      -0.00482429       0.00145117
Cl       2.68767229       4.51755998      18.67113210      -0.00212961      -0.00235863      -0.00546608
Cl       0.01559211       5.06581345      17.68327413       0.00995019      -0.01459667       0.00639930
Cl       0.42369938       4.36885310      20.47166288      -0.03166670      -0.02373214       0.00247192
Cl       0.78209644       2.33779584      18.40060166       0.01483432      -0.01353639       0.00887035
C        0.97930417       4.05714139      18.79371079       0.00456917      -0.01570099       0.01021698
Cl      10.82463913      13.53734837      11.68168211       0.01365595      -0.01218557      -0.00267381
Cl       8.97882328      11.79170539      13.07723216      -0.00640094       0.00180710      -0.01258826
Cl      11.72326271      10.96016062      12.66200006      -0.00690418      -0.01130232       0.00654584
Cl       9.89532052      11.10246702      10.40980190       0.00758907      -0.00596766      -0.00805926
C       10.35077152      11.84838742      11.95670791       0.00320671      -0.00270562      -0.00368660
Cl       5.57409309       3.80348414      16.08984084      -0.00303650       0.00057298      -0.00504977
Cl       4.84856546       3.60407159      13.29087376      -0.01698115      -0.00184859      -0.00211465
Cl       3.65348787       5.65346569      14.95547824      -0.00418636       0.00235534       0.00109245
Cl       2.94132870       2.86537991      15.33389818      -0.00815344       0.00357533       0.00934991
C        4.24425394       3.98098431      14.92119341      -0.00752508       0.00354920       0.00186582
Cl       3.90491224      11.94585432       8.79125185      -0.00283520      -0.01050496      -0.00489495
Cl       1.49056838      13.36817709       9.55049003       0.00508446       0.01167722      -0.01150973
Cl       3.32348153      14.54464193       7.63282222       0.02691992      -0.00065202       0.00839388
Cl       4.08003366      14.32679205      10.42704205       0.01175344      -0.02352399       0.01093841
C        3.20320989      13.54760443       9.10218745       0.00937861      -0.00700213      -0.00077622
Cl      10.27827508      10.20844763      16.46822714       0.00160191       0.00051953      -0.00157475
Cl       9.13038793      11.56967491      18.75473858      -0.01807053      -0.00734514      -0.00577818
Cl      11.69018265      10.23562087      18.99872269      -0.01520914       0.00321859       0.00885221
Cl       9.26925223       8.66520429      18.71406323      -0.00508612      -0.00627178      -0.00823462
C       10.09484955      10.16096438      18.23512327      -0.00986072      -0.00513398      -0.00118735
Cl       8.38067144       5.17637275       2.55407228      -0.00499177       0.01266670      -0.00517532
Cl       7.80391804       4.50516603      -0.20767621      -0.00424835      -0.00304939      -0.00246656
Cl       8.96462785       2.51264600       1.55538355      -0.01654134       0.00354183       0.01108608
Cl      10.54626983       4.76853564       0.67013512      -0.00498417      -0.00773342       0.00206780
C        8.92304900       4.23920699       1.14749891      -0.00774980       0.00202003      -0.00068934
Cl       0.45372635       8.29355487      11.23872942      -0.00829940      -0.01136160       0.01419380
Cl      -0.58878236      10.97268409      11.60420504      -0.00238955      -0.00709611      -0.01419498
Cl       2.21892332      10.42472310      12.09494823      -0.00537968      -0.00694509       0.00125089
Cl       0.20754433       9.40759359      13.91005280      -0.01374690       0.01071015       0.00362611
C        0.58134656       9.76949888      12.20803006      -0.00741196      -0.00415886       0.00045252
Cl      11.70669386      17.64556068       0.71340018       0.00384492      -0.00083357       0.01798332
Cl       9.91841104      16.15040536      -0.99980038       0.00697209       0.01308479       0.00386608
Cl       9.37828209      16.33382387       1.83534208      -0.00593296       0.00039686       0.00118935
Cl      11.61558371      14.74967367       0.90161402      -0.00510785      -0.00086799       0.00877090
C       10.64212154      16.21777608       0.60747250       0.00058259       0.00289725       0.00973900
Cl       2.00471205      16.06707473       3.01088127       0.00571798       0.00131989       0.00513960
Cl       2.61620511      18.89691397       3.00708792      -0.01789384      -0.00119653       0.00116348
Cl       3.93261220      17.12566624       4.89407076      -0.01290873       0.02108864       0.00531036
Cl       1.11338900      17.74326451       5.20251132      -0.00407758       0.01934851       0.00867987
C        2.42515770      17.47415655       4.02763107      -0.01065806      -0.00039335       0.01115788
Cl       9.09626826       2.34399140       5.47232112      -0.00597977      -0.00329089       0.00070160
Cl       7.86229126       0.02293576       4.25023154      -0.00626844      -0.00395769       0.00328547
Cl       9.20856951      -0.22318715       6.80772496       0.00739370      -0.00504230      -0.00378945
Cl      10.75626477       0.22357953       4.39236841      -0.00540787       0.00421130      -0.01044665
C        9.22848745       0.59781996       5.23571639      -0.00181540      -0.00050083      -0.00412446
Cl      14.31796727       0.87914062      11.03179266       0.00093275       0.00175408       0.00367322
Cl      12.04248412       1.89297838      12.51660494      -0.00633709      -0.00100200      -0.00309470
Cl      11.72097282       1.06725095       9.74998069       0.00776246       0.01796487      -0.00993985
Cl      13.20072326       3.47916996      10.38334648       0.01428448       0.00645185       0.00863056
C       12.81829080       1.83111185      10.92146643       0.00473573       0.00725996       0.00213982
Cl       3.15296912       1.73649891      10.63798834      -0.00744320       0.00273284      -0.00719234
Cl       3.92073167      -0.27288715      12.58160088       0.00464725       0.00155604      -0.01302186
Cl       2.20454320      -0.97433600      10.34327411       0.00741221      -0.00109839      -0.01412567
Cl       1.19331517       0.68329931      12.49954410      -0.00079858      -0.01263984      -0.00853217
C        2.61651882       0.29272524      11.52737367       0.00055499      -0.00310528      -0.01056364
Cl       0.78109402      10.20070889       7.48663919      -0.00128636      -0.00481158       0.00841531
Cl       2.47939050       9.52317580       5.23421419      -0.00084576       0.01144962       0.00851524
Cl       0.20657971       7.84706977       5.88759735       0.01083660      -0.00941133       0.00867791
Cl       2.52534828       7.89530845       7.63331216       0.01399979       0.00344038       0.00248238
C        1.49775228       8.86857026       6.55857767       0.00417841       0.00177026       0.00562755
Cl       3.98768410      13.19721856       3.68694622       0.00882387       0.01133046       0.01857548
Cl       6.43360492      14.41481481       4.67673967       0.02426571      -0.01008341       0.01380385
Cl       6.54591086      12.29978125       2.69160318      -0.00172248       0.00233485      -0.00201926
Cl       5.75878267      11.70556221       5.42366106       0.00565790      -0.01057729      -0.00200889
C        5.67933343      12.90213163       4.12422855       0.00812812      -0.00270086       0.00795223
Cl      16.73718845      10.93964966       5.03203210      -0.00228425       0.00792106       0.00778484
Cl      18.07216920      10.00099999       2.63931300       0.01064097       0.00814238       0.01498374
Cl      18.62795813      12.65540787       3.65890920      -0.00017905       0.01090026       0.01424107
Cl      16.04972364      12.07221601       2.45530075       0.00779200       0.00395030       0.00120234
C       17.37548806      11.40316178       3.44931062       0.00392341       0.00941838       0.00954711
Cl       5.47679984       8.82597064      14.29492510       0.02329727       0.00341505       0.01084873
Cl       3.64298863      10.47494164      15.81870426      -0.00403494      -0.00229620      -0.01107773
Cl       5.25216965      11.65808186      13.71043156      -0.02013381       0.00501621      -0.00406173
Cl       6.49906778      10.78697635      16.17841314       0.00447860       0.01345195      -0.00992948
C        5.21488285      10.43123946      15.00063017       0.00259021       0.00249497      -0.00414246
Cl       6.82853798      16.12257978      11.57802472       0.01379113       0.00121638       0.00413835
Cl       8.89044824      17.49170775      10.09367711       0.01070756       0.00383125      -0.00028616
Cl       6.09448182      18.00522363       9.49488161       0.00713211      -0.00081420       0.00869714
Cl       7.27854267      15.46164924       8.78097728       0.01361852       0.00080642       0.00400126
C        7.26853636      16.76938056       9.98024619       0.01187228       0.00044939       0.00653341
Cl      14.17271962       7.00115079       9.80570550      -0.00203732       0.00580420      -0.00218385
Cl      16.04656912       8.97385950       8.80167779       0.00529224      -0.00302559      -0.00170479
Cl      14.91316850       7.00827266       6.99560443      -0.00388604       0.00176252      -0.00219798
Cl      16.84024962       6.19013072       9.00263019      -0.00881150      -0.00965077      -0.00181191
C       15.49197947       7.29350141       8.64974625      -0.00394320      -0.00244558      -0.00112391
Cl       6.86039240       0.43955928      14.92954005      -0.00783765       0.00080679      -0.00608870
Cl       9.39026964      -0.52637723      13.92102748      -0.00440350       0.00098607       0.00103296
Cl       9.24760479       2.05729524      15.23186076      -0.00971797       0.00543416      -0.00971389
Cl       8.06851448       1.69948364      12.60905370      -0.00663386      -0.00555278      -0.00904959
C        8.38582874       0.91926164      14.16888193      -0.00525063       0.00143375      -0.00482589
Cl       3.76129022      14.91864815      14.72111616       0.00149405       0.01196163       0.00275723
Cl       1.38086606      13.26474332      14.86786174       0.00464715       0.00714231      -0.00832663
Cl       1.56755835      15.37896728      12.89634876       0.00354032       0.01732855      -0.00047266
Cl       1.27815804      16.05622441      15.70666065       0.00046390       0.00550085       0.00088167
C        1.98605334      14.91750775      14.55927366       0.00340837       0.01132211      -0.00251670
Cl       8.21716531       9.38807301       7.33079104       0.00536937      -0.01048197       0.00646865
Cl       7.39281938       7.37888836       5.41368023      -0.00352743      -0.00179267       0.00069445
Cl      10.19376091       7.61996954       6.15180557      -0.00300989      -0.01267707      -0.00321917
Cl       8.93730654       9.66351458       4.53176274       0.00150427      -0.00209028       0.00560448
C        8.68462160       8.51008342       5.84792113       0.00188309      -0.00558104       0.00230096
Cl       2.55180493       4.15445988       8.04243174       0.00220497      -0.00133076      -0.00001127
Cl       0.57564591       2.10092687       7.53326880       0.00040603       0.00345784      -0.00358772
Cl       3.34393639       1.65622428       6.79495796      -0.00052890      -0.00578961       0.00681075
Cl       1.75156985       3.57173101       5.31909267       0.01126231      -0.00296569      -0.00403056
C        2.05527982       2.86912198       6.92258748       0.00410693      -0.00438102       0.00003568
Cl      16.61621823       3.82613179      12.10050714      -0.00520161       0.00680111      -0.00026536
Cl      17.50550496       5.88101144      13.94245287       0.00095762      -0.00222850       0.00637411
Cl      19.44487344       4.40583449      12.37561873      -0.00457823      -0.00534103       0.00308609
Cl      18.01093542       3.08954287      14.53171317      -0.01139822      -0.00660753      -0.00076377
C       17.89536121       4.29793142      13.23667596      -0.00499078      -0.00150687       0.00089300
Cl      10.54147869      12.54242778       6.50343287      -0.00316951      -0.00594580      -0.00849205
Cl       9.86773843      12.85877960       3.69391835       0.00362456       0.00073013      -0.01238328
Cl      12.63404162      12.99047604       4.54711777      -0.00285363       0.02705257       0.00016397
Cl      10.77979182      15.12844284       5.22134660      -0.03032286       0.00156653       0.00692355
C       10.95290319      13.37923538       4.99484505      -0.00871307       0.00636137      -0.00425112
Cl       8.41306963       4.89108015       8.02578973      -0.00200391      -0.00217718      -0.00136432
Cl       5.98649740       4.35010838       6.52452134       0.00257719      -0.01188287      -0.00374061
Cl       5.85044115       5.72136746       9.08032856      -0.00591409       0.00122851      -0.01054209
Cl       6.53038675       2.89870672       8.96803877       0.00028627       0.00268543       0.00723544
C        6.69709139       4.46544246       8.14963520       0.00047638      -0.00434780       0.00055778
Cl      13.88476036      13.73968189      14.17663621       0.01533580      -0.00110847       0.02199620
Cl      13.68204250      15.46488680      16.49660374      -0.02125958      -0.00072642       0.01472804
Cl      11.59774114      13.51982563      15.90564550      -0.01471907       0.01078308      -0.00648361
Cl      11.93058348      15.88132888      14.24717773       0.01789060       0.00400218      -0.01737846
C       12.76961621      14.64108935      15.20085404      -0.00038635       0.00536165       0.00086641
Cl      14.60368255      15.72301924      11.26342811      -0.00571036       0.02536038       0.00605842
Cl      15.89518485      16.66630494      13.68337966       0.01331910       0.00781089      -0.00027323
Cl      17.27421430      16.85998944      11.15187514       0.00451919       0.00246280      -0.00392485
Cl      16.84600009      14.26017651      12.36353020      -0.00878702       0.00333112      -0.00596884
C       16.15048688      15.87280547      12.11682793      -0.00075692       0.01420489       0.00330283
Cl      15.90009621       6.87621992       1.25956463       0.01888180      -0.00649631       0.01004380
Cl      14.48791262       5.77480228       3.53324003      -0.01692525      -0.00500757      -0.01268762
Cl      13.00392877       7.01794873       1.37587934       0.01844278       0.01585275      -0.02655634
Cl      14.59324341       8.64681447       3.15831192       0.00588639      -0.00442192       0.00278556
C       14.49259791       7.07949049       2.32998905       0.00413483       0.00021881      -0.00658959
Cl      13.54752669       4.90499764      14.58181579       0.01664500       0.00679171      -0.02149045
Cl      11.83613262       6.57642049      16.22672380       0.00081295      -0.02988737      -0.00441340
Cl      13.22359853       7.70683060      13.94020137      -0.01493935       0.00918210       0.00369662
Cl      14.70342537       6.93042207      16.31407401      -0.00167099       0.00215084      -0.00534478
C       13.32861411       6.52821595      15.26644544      -0.00066412      -0.00246152      -0.00837583
Cl      17.13619383      12.45099906      16.39594015       0.00082824      -0.00893456      -0.00595130
Cl      16.53842146      10.03778956      17.89099406       0.00800583      -0.00524971       0.00564149
Cl      15.18097069      10.56183928      15.38907033       0.00426346      -0.01704851       0.00362840
Cl      14.57608738      12.16564520      17.72746985       0.00144166      -0.01367280      -0.00012058
C       15.86297737      11.30472164      16.84450447       0.00032118      -0.01185262       0.00172007
Cl      15.53583703       1.87348006       7.63639558      -0.01344853      -0.00376752       0.00684881
Cl      16.03211720       0.93758924       4.93820734       0.02575463       0.00932652       0.00905055
Cl      16.52495442       3.70641708       5.61388550      -0.01044580       0.01361668       0.02542949
Cl      13.80295274       2.71798205       5.47483815       0.00290507      -0.01705654      -0.01269749
C       15.47347061       2.32048741       5.92415466       0.00138021       0.00054264       0.00760042
