191
Lattice="12.94401854102176 0.0 0.0 0.0 12.94401854102176 0.0 0.0 0.0 12.94401854102176" Properties=species:S:1:pos:R:3:forces:R:3 energy=-253849.578125 stress="-0.00245307432487607 0.0003580789634725079 -0.00014838025526842102 0.0003580789634725079 -0.003005104372277856 -0.0001422916611772962 -0.00014838025526842102 -0.0001422916611772962 -0.0035542543046176434" pbc="T T T"
N        5.55564774       7.97089475       4.49042760      -0.00103706       0.00021599      -0.00625502
C        6.41792097       6.91612895       3.83205650       0.00112312       0.00337881      -0.00791831
C        5.35074589       9.14962676       3.55534933      -0.00042821       0.00309771      -0.00261334
C        6.27143200       8.45260340       5.73026255      -0.00399768      -0.00333641      -0.00331283
C        4.21490590       7.35419708       4.84188311      -0.00124717      -0.00182022      -0.01122278
C        7.73321624       7.41644793       3.28374458       0.00379598       0.00500569      -0.00001696
C        4.86856139       8.78031572       2.17604679       0.00393763       0.00830477      -0.00547579
C        5.51328798       9.45313231       6.56700354      -0.00637555      -0.00768712      -0.00043772
C        4.28563792       6.25061196       5.87749390      -0.00419983      -0.00378659      -0.01331702
H        6.58712398       6.16021424       4.59737407      -0.00297063      -0.00083636      -0.01141542
H        5.80230652       6.47054145       3.05158795       0.00434288       0.00818142      -0.01294136
H        4.62393641       9.78917030       4.05430969      -0.00245592      -0.00008303      -0.00197522
H        6.30458098       9.67695573       3.50830830      -0.00114959       0.00435185       0.00114588
H        6.51726744       7.57755304       6.32413592      -0.00425990      -0.00536311      -0.00636539
H        7.20913247       8.88114177       5.38157179      -0.00382167      -0.00152393       0.00003796
H        3.57674813       8.16823557       5.18173367      -0.00297801      -0.00330290      -0.01146427
H        3.79157570       6.99311021       3.90619282       0.00180739       0.00004987      -0.01306528
H        8.17984798       6.61677284       2.69035510       0.00344180       0.00851773      -0.00475701
H        7.63546348       8.28879463       2.64048941       0.00771722       0.01041356       0.00678094
H        8.44078051       7.67200760       4.07207191       0.00232898      -0.00306487       0.00373879
H        4.84947655       9.69816823       1.59267914       0.00228500       0.01149330      -0.00018167
H        5.54537212       8.10078704       1.65950009       0.00839865       0.01439050      -0.00728769
H        3.85644681       8.38255186       2.15037241       0.00564328       0.00428805      -0.01016826
H        6.12078624       9.61501448       7.45557740      -0.00728853      -0.00998934       0.00046428
H        5.38231155      10.41046865       6.06341345      -0.00849503      -0.00598778       0.00379092
H        4.53995806       9.09222298       6.89941853      -0.00575289      -0.01063046      -0.00246534
H        3.28831292       5.82659014       5.97805309      -0.00457540      -0.00364580      -0.01787730
H        4.94747242       5.43620027       5.58235056      -0.00326061      -0.00328057      -0.01207612
H        4.58261884       6.60623939       6.86412691      -0.00786410      -0.00555311      -0.01177788
O       11.29666078      13.12788132      -0.46612338      -0.01860774      -0.02766225       0.01246673
H       12.16847715      13.42615223      -0.18705994      -0.02394915      -0.01831883       0.00544140
S        1.59797539       8.04361272       7.50263539       0.00282872       0.00094509       0.01435870
O        0.81942066       9.25156140       7.10387008       0.00063407      -0.00079203       0.01385039
C        0.84851314       6.61389419       6.68945037       0.00044945       0.00140685       0.01754424
C        1.12114353       7.62372189       9.18933752       0.00915158       0.00035049       0.01568353
H        1.02732075       6.72252338       5.62147360      -0.00913242       0.00817890       0.01678252
H       -0.22554111       6.64999711       6.86731252       0.00216372      -0.00295038       0.02787531
H        1.27326541       5.69743535       7.09907662       0.00717194       0.00091953       0.00906829
H        1.73518090       6.78993792       9.53288586       0.01074941      -0.00043310       0.01077678
H        0.05709563       7.38968332       9.22537138       0.00957406      -0.00027509       0.02012007
H        1.32446629       8.50821062       9.79144342       0.01234846      -0.00164147       0.01724715
S        8.68749700      11.29806912       1.34932739       0.00689459       0.00716519      -0.00137615
O        8.24179644      10.56491559       2.60022193      -0.00099242       0.00270140      -0.00589573
C       10.41362171      11.00494459       1.08391169       0.00535256       0.01940560      -0.00220448
C        8.88094043      13.03055646       1.76973282      -0.00609607       0.00598592       0.00903207
H       10.53316336      10.00725425       0.67427111       0.00768409       0.02216935      -0.00867437
H       10.91192107      11.05994235       2.05388383       0.00062037       0.00644091       0.00145130
H       10.83040582      11.83641394       0.36854242       0.01315489       0.04516581      -0.00700176
H        9.52472034      13.46712623       0.99938528      -0.01723820       0.01629695       0.00713392
H        9.36713333      13.07674611       2.74602070       0.00207369       0.00542267       0.00477545
H        7.90440823      13.50641138       1.77348127      -0.00977831      -0.00237484       0.02026565
S       11.56807850       1.14101746       4.40434352       0.00962520      -0.00583613      -0.00149834
O       11.71409478       0.02992961       5.39220630       0.01495439      -0.00579572      -0.00272131
C       12.52436063       0.69815141       2.94383978       0.00349772      -0.00360110      -0.00595587
C       12.64254798       2.49548488       4.94078154       0.01149684      -0.00656605      -0.00530073
H       12.08966280      -0.21330839       2.54323982      -0.00168285       0.00089046      -0.00991605
H       13.56308103       0.53386578       3.23316317       0.00326495      -0.00962131      -0.00918630
H       12.41434501       1.48758225       2.20289700       0.00592295       0.00153926      -0.00054424
H       12.76324313       3.19439767       4.11689713       0.00690733      -0.00504552      -0.00447145
H       13.58658638       2.06903255       5.27863865       0.01350757      -0.00691640      -0.01179123
H       12.15214036       2.98610225       5.77790562       0.01586521      -0.00858972      -0.00180359
S        7.00787523       1.85745753       6.19374485       0.00384177      -0.00468582       0.00201106
O        6.68529529       1.45970105       7.59609969       0.00134581      -0.00370255       0.00143361
C        5.82815058       1.00200407       5.12767789       0.00279611      -0.00177953       0.00115812
C        8.44828198       0.90736134       5.68578006       0.00195411      -0.00844395       0.00362368
H        4.84169730       1.40186437       5.35450599       0.00400291       0.00105818       0.00051653
H        5.86577374      -0.06589642       5.34615914      -0.00049341      -0.00162746       0.00160682
H        6.08085799       1.18442953       4.08188195       0.00384349      -0.00279513       0.00141971
H        8.70863999       1.16190232       4.66061228       0.00226208      -0.01042443       0.00340784
H        8.24216845      -0.15801493       5.76634893      -0.00085677      -0.00763232       0.00470014
H        9.27276457       1.18107049       6.34247891       0.00247189      -0.00955495       0.00312431
S        5.03312916       1.16940762       1.41343130      -0.00239253       0.00323343      -0.00624156
O        4.79786829       0.35366643       0.19789534      -0.00483519      -0.00093919      -0.00299108
C        3.53825087       0.97018808       2.43280095       0.00422251      -0.00048726       0.00143266
C        4.70765296       2.89433307       1.00254913      -0.01155990       0.00053447      -0.00903979
H        3.55589440      -0.03228822       2.85653573       0.01000691       0.00014722       0.00225318
H        2.67253634       1.08467074       1.77909340       0.00022286      -0.00372752       0.00659914
H        3.51766884       1.70878045       3.23356136       0.00688819       0.00022890       0.00062308
H        4.74515821       3.48612594       1.91829971      -0.00803221       0.00303262      -0.01096265
H        3.72929363       2.97173917       0.52998715      -0.01449221      -0.00369816      -0.00327278
H        5.49548450       3.19927861       0.32103517      -0.01628590       0.00107535      -0.01393758
S        9.66488700       4.40065645       2.80387607       0.00526673       0.00021112       0.00231192
O       10.72649849       3.42070804       2.43101418       0.00355506      -0.00116396       0.00089329
C        9.74665547       4.57342484       4.60269274       0.00967126       0.00130953       0.00098640
C        8.08381615       3.52405004       2.76611375       0.00538498       0.00124934       0.00511790
H       10.70206596       5.04541223       4.82544077       0.01082894       0.00031548      -0.00282339
H        9.69338012       3.58412594       5.05895095       0.00920918       0.00229248       0.00303769
H        8.93375956       5.21092581       4.94964546       0.01174593       0.00400821       0.00043719
H        7.34446940       4.07420828       3.34744821       0.00393122       0.00680444      -0.00236589
H        8.24317179       2.53256156       3.18513360       0.00348619       0.00500076       0.01421659
H        7.76596941       3.44174628       1.72907079       0.00804189      -0.00835840       0.00526050
S       11.97721554       1.77132225       8.23590122       0.01895356      -0.00236088       0.00340003
O       13.43285335       1.45550312       8.10389372       0.02105117       0.00392967       0.01362478
C       11.86145708       3.15767927       9.39148153       0.00822951      -0.00607598       0.00512069
C       11.18952869       0.54084290       9.27726666       0.01795474      -0.00722259      -0.00217098
H       12.44484939       3.96970723       8.95858201       0.00630286      -0.00094870       0.01241057
H       12.25730202       2.86890738      10.36473768       0.00663630      -0.01181646       0.00354142
H       10.82040188       3.46355609       9.48906697       0.00705576      -0.01055188       0.00378858
H       10.13293594       0.81622405       9.32396840       0.01719861      -0.01073552      -0.00504347
H       11.59444045       0.48791090      10.29743836       0.01376723      -0.01024687      -0.00194854
H       11.28680454      -0.41382226       8.76489370       0.02495374      -0.00438102      -0.00568779
S        7.95351610       3.17729670      12.15635411      -0.00055122       0.00658107      -0.00228385
O        7.31771483       1.87809107      12.56782360      -0.00486392       0.01160634       0.00585559
C        7.61255110       3.36112434      10.39672505       0.00568374      -0.00686746      -0.00450587
C        9.71719623       2.88406087      12.11558770      -0.00174600       0.00524250       0.00634886
H        6.56175429       3.63650187      10.31056587       0.00569800      -0.00902691      -0.01031234
H        7.78917569       2.41291851       9.89013632       0.00815637      -0.01074459       0.00413800
H        8.23263273       4.16633182      10.01454556       0.00598201      -0.00885586      -0.00795789
H       10.21216997       3.78598655      11.76697783      -0.00211560      -0.00041938      -0.00810986
H        9.94787715       1.99248813      11.53308854      -0.00088960      -0.00447050       0.02184798
H       10.01554162       2.67958084      13.14192067      -0.00349921       0.02585242       0.01080383
S        9.35100467       7.56611268       7.20571750       0.00110888       0.00369680       0.00306630
O        8.07262006       7.86859285       7.92854699      -0.00310040      -0.00017387      -0.00313514
C        9.99224480       6.01370775       7.88211171      -0.00221020       0.00257057       0.00220230
C       10.60143648       8.67665620       7.84459046      -0.00417385       0.00367492       0.01276252
H        9.19937325       5.27872577       7.75246237      -0.00295080       0.00473039      -0.00378335
H       10.23720146       6.12222616       8.93693155      -0.00743151      -0.00157647       0.00365716
H       10.86317634       5.71077281       7.30223773      -0.00009213       0.00325709       0.00542054
H       11.57238513       8.46879498       7.39619605      -0.00127867       0.00487495       0.01884351
H       10.61021077       8.62224366       8.93078263      -0.01173552       0.00190352       0.01261833
H       10.30191770       9.67944452       7.54847880      -0.00327072       0.00335307       0.01142955
S        1.15248387       5.74955333       1.26503692      -0.01347280       0.00363189      -0.03757000
O        0.10303013       6.13170860       0.27563694      -0.00786710      -0.00877741      -0.04816318
C        2.73063556       5.70841611       0.39974740      -0.00797433       0.00248477      -0.02595907
C        0.96481823       3.96164428       1.47406739      -0.00401848       0.00418317      -0.01833932
H        2.94309496       6.74481892       0.15111639      -0.00746993       0.00172988      -0.02749301
H        2.66223551       5.09509651      -0.49857268       0.00178069      -0.00135276      -0.02383848
H        3.49127637       5.32398054       1.07887702      -0.01338655       0.00665165      -0.01807547
H        1.71251204       3.58058453       2.17179992      -0.00158552       0.01706276      -0.01404543
H        1.04868822       3.47092899       0.50264607       0.00016162      -0.00827193      -0.01149869
H       -0.03855503       3.81088435       1.87167192      -0.00216921       0.00160403      -0.01527064
S        7.90997977      10.82013151       9.81814862      -0.01752472       0.00215646       0.01015070
O        9.30968740      10.38467994      10.10850959      -0.02619421      -0.01482534       0.02428418
C        7.94526163      11.59664110       8.19989151       0.00515673      -0.00754017       0.00634652
C        7.60381933      12.29538708      10.79092689      -0.00705582       0.01071334      -0.00052279
H        8.12418668      10.80644317       7.47277329      -0.00292774      -0.01436217       0.01213343
H        8.75441230      12.32504055       8.18405246       0.01674806      -0.02049175       0.00727385
H        7.00055259      12.10564939       8.01190667       0.01413493       0.00592130      -0.00180626
H        6.64360925      12.73772008      10.52758178       0.00157472       0.02093018      -0.01389854
H        8.42150664      12.99924975      10.64677114       0.00359936      -0.00082728       0.00392493
H        7.57931725      11.98801323      11.83383068      -0.02175910       0.01677031       0.00071469
S        1.98502367       9.70878627      -0.33630980      -0.00567250      -0.00576055      -0.00434375
O        2.15548663       8.65513126       0.71988503      -0.01551083      -0.00144649       0.00152278
C        2.94388858      11.11454064       0.23468174      -0.01934621       0.00052679       0.00254068
C        0.38166455      10.44848047      -0.05684797      -0.01166856      -0.01308429      -0.02578628
H        3.99615226      10.94924836       0.02172621      -0.01678202       0.00609783       0.01196001
H        2.79053601      11.17999486       1.31273643      -0.03350770       0.00002484       0.00070159
H        2.62734909      12.01383601      -0.28160178      -0.01872613      -0.00268236      -0.00343725
H        0.20333959      11.27223716      -0.74727832      -0.00405095      -0.01293170      -0.02660801
H        0.33778678      10.78282905       0.98010328      -0.02678079      -0.01496958      -0.02607092
H       -0.34872771       9.66015763      -0.21587658      -0.00630419      -0.01548326      -0.03745044
S        3.40690907      11.97646569       9.67838076      -0.02102542       0.01200765      -0.00803596
O        2.08599078      11.85260407      10.35724777      -0.01810563       0.00186557      -0.00417554
C        3.08100864      11.95731798       7.90877889      -0.02432863       0.00910830      -0.00668114
C        4.20028322      10.35622556       9.79180919      -0.01168703       0.01760972      -0.00937642
H        2.47264551      12.83967642       7.71321165      -0.02663524       0.00707024      -0.00788024
H        2.51619498      11.06289951       7.63997466      -0.02217257       0.00733143      -0.00472058
H        4.03347497      12.01920189       7.38030341      -0.02471794       0.01023292      -0.00690052
H        5.13635912      10.35840111       9.23730127      -0.01425274       0.02235746      -0.01297740
H        3.52323773       9.58923623       9.41503286      -0.00889477       0.01421978      -0.00679786
H        4.41601137      10.17923153      10.84312599      -0.00684819       0.01883966      -0.01035114
S        8.83137387       7.13647383      10.99471511       0.00893083       0.01299107      -0.00378668
O        9.12974239       5.74565650      11.47162494       0.00903785       0.00252771      -0.03455156
C        9.29201343       8.22747787      12.33277531       0.00228336      -0.01409444       0.02010399
C        7.04379237       7.33854347      11.07567234       0.00912088       0.00898280      -0.00420481
H       10.36280434       8.07486006      12.46395887      -0.00046794      -0.02398410       0.02842163
H        8.75659611       7.96280172      13.24458677      -0.00843520      -0.02297666       0.01097426
H        9.10721489       9.24998084      12.00884646       0.00996186      -0.00885759       0.03259937
H        6.78173708       8.33002246      10.70987084       0.00902762       0.01589046       0.01529813
H        6.70146619       7.18137647      12.09965648       0.00603831      -0.01179174      -0.00860359
H        6.61384318       6.58839638      10.41462564       0.01239284       0.02221903      -0.02072614
S       12.41844368       8.87689517       3.26328435       0.01992190       0.00595081       0.00770295
O       13.42096906       8.02951806       3.97627379       0.01744187       0.00115168       0.00548208
C       11.35745136       9.63370781       4.51068884       0.01592445      -0.00268476       0.00961393
C       11.15909267       7.74432064       2.63556370       0.02042639       0.01030123      -0.00183578
H       11.93755375      10.37522705       5.05581652       0.01385997      -0.00519031       0.01483618
H       11.01637393       8.84384387       5.17857392       0.01563877      -0.00638874       0.00482261
H       10.50318999      10.10512035       4.01990756       0.01641168      -0.00108478       0.01060759
H       10.29569437       8.31432652       2.29495298       0.02110509       0.01295011       0.00107842
H       10.87226132       7.09230135       3.46222847       0.01861331       0.00495657      -0.00693443
H       11.59237314       7.16747571       1.81801596       0.01911131       0.01465795      -0.00523289
S        2.93780801       4.13488580       8.86771616      -0.00513983      -0.00839543       0.02215004
O        3.63581130       5.24016391       9.59967482       0.00732815      -0.00748706       0.00821579
C        2.47663884       2.87848850      10.06620739       0.00787475      -0.00218809       0.03337842
C        4.21673479       3.17060495       8.05005647      -0.01928604      -0.01430592       0.00817655
H        1.75710015       3.34879248      10.73412030       0.01300590       0.00041923       0.03672570
H        3.36174719       2.54804337      10.61080462       0.01224795       0.00173351       0.02803089
H        1.98277094       2.06339457       9.53335739       0.00688700      -0.00621374       0.04122654
H        3.76062952       2.32084110       7.54453195      -0.02942881      -0.01371397       0.01668963
H        4.94297601       2.82377117       8.78072578      -0.00956754      -0.01417796      -0.00153720
H        4.70323826       3.82380249       7.32812477      -0.02893481      -0.01616310       0.00021996
