189
Lattice="13.326221257707436 0.0 0.0 0.0 13.326221257707436 0.0 0.0 0.0 13.326221257707436" Properties=species:S:1:pos:R:3:forces:R:3 energy=-112816.703125 stress="-0.005721526686102152 -5.8184246881864965e-05 -0.0004145361453993246 -5.8184246881864965e-05 -0.004098684061318636 -0.0002932187489932403 -0.0004145361453993246 -0.0002932187489932403 -0.001983150839805603" pbc="T T T"
N       10.70462327      11.71937290       5.36595385      -0.01052218       0.00416510      -0.00317496
C       11.75132470      12.77016628       5.52758175      -0.00901610       0.00269437      -0.00899981
C       10.99015445      10.99826736       4.08759516      -0.00823705      -0.01225978       0.00752991
C        9.35374223      12.33654640       5.28949398      -0.00739706       0.00799406      -0.01650421
C       10.72984309      10.75931303       6.50565521      -0.01791992       0.01705575       0.00687963
H       12.71552885      12.27478646       5.54713270      -0.01125105       0.00035925       0.00784896
H       11.71178165      13.42768036       4.66479290       0.00148327      -0.01024809      -0.01865800
H       11.56719791      13.31961186       6.44513637      -0.01521646       0.01665840      -0.01949005
H       10.35193654      10.12911503       4.04931541      -0.00618961      -0.01416762       0.02022655
H       10.78094398      11.66658483       3.26008405      -0.00952149      -0.02475598      -0.00159763
H       12.03529084      10.70836634       4.07315627      -0.00805286      -0.01016477       0.01225412
H        8.62303754      11.54345704       5.14579219      -0.00886801       0.00959471      -0.01598347
H        9.15567231      12.86243010       6.22116165      -0.01143448       0.01435696      -0.02145979
H        9.33117947      13.01790954       4.44327541       0.00108679       0.00188076      -0.02103987
H        9.90752622      10.05887047       6.37674955      -0.01940759       0.01824892       0.01158984
H       11.67031047      10.22345394       6.47346439      -0.01975614       0.01395791       0.01612825
H       10.62582587      11.30119809       7.44324597      -0.01964840       0.02752401       0.00007914
P       11.85885722      12.23217369       0.73555629      -0.01670700       0.00289196       0.00489722
F       12.08410494      13.75166938       0.26495716      -0.02237798       0.00614893       0.01446015
F       12.67199532      12.53790731       2.11728706      -0.01273888      -0.00429457       0.00367081
F       10.46986946      12.69149700       1.50358749      -0.01445204      -0.00508848       0.01329827
F       13.22264666      11.77370465       0.01703060      -0.01873887       0.01080284      -0.00243843
F       11.60594113      10.70986255       1.24856339      -0.01178199      -0.00007141      -0.00442627
F       11.00701502      11.92564989      -0.59679464      -0.02093965       0.00974889       0.00648743
C        5.50002736       4.26625678       9.99359076       0.00205846      -0.00424181       0.00402226
C        6.75462394       3.87197913      10.46102351      -0.00054076      -0.00973876       0.00634127
C        4.74691473       5.13412517      10.78529881       0.00371167      -0.00312234       0.00168046
C        4.96300641       3.75730529       8.68784281       0.00361377      -0.00164992       0.00241950
C        7.24790185       4.34034196      11.67359372      -0.00304608      -0.01220719       0.00888750
C        5.23475092       5.60026170      12.00074525       0.00150818      -0.00530414       0.00410775
C        6.49230693       5.21261204      12.44824387      -0.00128924      -0.01122276       0.00639157
H        7.35527634       3.19635533       9.86083717      -0.00165793      -0.01077765       0.00810546
H        3.77513771       5.45693627      10.43137097       0.00594416       0.00085475       0.00003202
H        4.25268952       4.46121383       8.25315736       0.00600238       0.00036779       0.00251863
H        5.76591347       3.59169665       7.96823527       0.00390503      -0.00261426       0.00350253
H        4.44229743       2.80472366       8.82481147       0.00127320      -0.00029138       0.00036761
H        8.23258249       4.03791174      12.00934190      -0.00555252      -0.01764480       0.01148381
H        4.63705137       6.27921951      12.59747995       0.00247028      -0.00453994       0.00232089
H        6.88459232       5.59380075      13.38279576      -0.00326090      -0.01339209       0.00851148
C        5.73134843      11.33590163      10.13427475       0.00429336       0.00829495       0.00723035
C        6.82813282      11.14618302       9.29150828       0.00328672       0.00810455       0.00772518
C        5.12283605      10.20968161      10.68746618       0.00374809       0.01096847       0.00920443
C        5.19119200      12.70764309      10.40760450       0.00560741       0.00916094       0.00634741
C        7.28346254       9.86833943       8.99064765       0.00294355       0.00570611       0.00924582
C        5.57334601       8.92996008      10.38771596       0.00420148       0.00873576       0.01118741
C        6.64980490       8.75319617       9.52956891       0.00271929       0.00915807       0.01175683
H        7.32379190      12.01410846       8.86945088       0.00365899       0.00567170       0.00598849
H        4.27760032      10.34032632      11.35483117       0.00494778       0.01178182       0.00900713
H        4.69707270      12.75204377      11.37786125       0.00498323       0.00990050       0.00553447
H        5.97766768      13.46207748      10.38554944       0.00639692       0.00793290       0.00699953
H        4.44969899      12.98556386       9.65270917       0.00693081       0.01003373       0.00578424
H        8.13758445       9.73383910       8.33618156       0.00223073       0.00580205       0.00974241
H        5.08316158       8.06393044      10.81211834       0.00491781       0.01079105       0.01439349
H        6.99205813       7.75453426       9.28790072       0.00321772       0.00776106       0.01341992
C        3.23480358       8.65449493       7.32384198       0.00211536      -0.00261988       0.01202925
C        3.00999313       7.79471645       6.25328333       0.00243395      -0.00286674       0.01024890
C        2.78926055       8.26018603       8.58629362       0.00372275      -0.00517918       0.01052797
C        3.96017573       9.95315905       7.13259441       0.00018123      -0.00278059       0.01155227
C        2.38177021       6.57014769       6.43308581       0.00522780      -0.00249570       0.01123944
C        2.16125355       7.03726217       8.77288594       0.00613925      -0.00436049       0.01111591
C        1.95451266       6.18182468       7.69484515       0.00649305      -0.00507435       0.00953613
H        3.33622418       8.08626424       5.26356080       0.00156042      -0.00094105       0.01114453
H        2.94072005       8.92156129       9.43053095       0.00376809      -0.00484665       0.01148242
H        4.89742144       9.95602471       7.68915603       0.00743029      -0.00775523      -0.00145297
H        4.18347041      10.12203322       6.08110800      -0.01335183       0.00537144       0.01075530
H        3.38634434      10.80657431       7.49507530       0.00648344      -0.00551055       0.02686993
H        2.22777360       5.92204769       5.57826946       0.00571075      -0.00292565       0.01046935
H        1.83088010       6.75541431       9.76464897       0.00655648      -0.00624635       0.01005755
H        1.46069219       5.22726724       7.83543943       0.00841917      -0.00505491       0.00994391
C        1.27621874       1.75137536       1.50021181       0.00281434      -0.01082751      -0.02354463
C        0.98901338       1.78181929       2.86282051      -0.00185932      -0.00606407      -0.00459792
C        2.28038377       0.89335032       1.05924751      -0.01153945      -0.00691152      -0.00855520
C        0.56693761       2.66944667       0.55285489      -0.00444597      -0.00424856      -0.01000896
C        1.71824736       1.02873607       3.76871928       0.00292785      -0.01376282      -0.02563471
C        3.02481357       0.14786653       1.96335322      -0.00731474      -0.01517669      -0.03009430
C        2.76201460       0.23037400       3.32370857      -0.01161669      -0.01342887      -0.01084904
H        0.19550927       2.42073642       3.22295456       0.00605360      -0.00487886      -0.01222949
H        2.49272643       0.82653356      -0.00136928      -0.01016543      -0.00962649      -0.02057575
H        0.52058226       2.24778171      -0.44864287      -0.00801503      -0.00525391      -0.01161554
H       -0.45361854       2.86159317       0.87992435      -0.00120810      -0.00178153      -0.00884016
H        1.08892216       3.63087200       0.49323259      -0.00098030      -0.00682780      -0.01371261
H        1.49403327       1.10063187       4.82813716       0.00086222      -0.01199671      -0.01381043
H        3.82971667      -0.48647171       1.60913371      -0.01470768      -0.01607584      -0.02291871
H        3.37416947      -0.31734648       4.02981246      -0.00925431      -0.02134509      -0.02337505
C        0.75630592      10.18951146       6.04742650      -0.01581862      -0.01605828       0.00186482
C        0.22475050       8.96836454       5.62878475      -0.02072362      -0.01753065       0.00537113
C        1.41514929      10.97688321       5.10007391      -0.01842386      -0.02058882       0.00164285
C        0.60057775      10.65422241       7.46984491      -0.01087651      -0.01732364       0.00252327
C        0.33176275       8.55611859       4.30432399      -0.02169853      -0.01730134       0.00451069
C        1.51882978      10.57183839       3.77497030      -0.02083866      -0.01965311       0.00039911
C        0.97039968       9.36094959       3.37079027      -0.02432753      -0.02227984       0.00460914
H       -0.25110417       8.32065406       6.35818700      -0.02028511      -0.01251306       0.00673043
H        1.84227907      11.92748978       5.40208873      -0.01530849      -0.02006686      -0.00070477
H        0.07802944      11.61290280       7.53385909      -0.01136491      -0.01786280       0.00456649
H        0.05013326       9.92499109       8.06248043      -0.00666828      -0.01692784       0.00586973
H        1.56061267      10.80386256       7.95937103      -0.00839198      -0.01556990      -0.00334720
H       -0.08620250       7.60337275       4.00289336      -0.02466337      -0.01836605       0.00737845
H        1.99203943      11.21763886       3.05003118      -0.02390529      -0.02167062       0.00011794
H        1.02655051       9.06779271       2.33113184      -0.02541312      -0.02204964       0.00377883
C       11.11348917       8.32983050      10.13383708       0.00523401       0.00196242       0.00519512
C        9.91985330       7.61121282      10.18966095       0.00312051       0.00580464       0.00260523
C       12.30153641       7.61205313       9.99180909       0.00282866       0.00283376       0.00577493
C       11.11074921       9.81857757      10.29483612       0.00611454       0.00155830       0.00982089
C        9.90665696       6.22395764      10.13382868       0.00264493       0.00338313       0.00404745
C       12.29496461       6.22282363       9.93652051       0.00190732       0.00012370       0.00590402
C       11.09848670       5.52130227      10.01530874      -0.00033516       0.00450549       0.00607223
H        8.99120304       8.15212613      10.30982856       0.00475227       0.00495360       0.00205268
H       13.23997278       8.15039202       9.93478738       0.00451701      -0.00121848       0.00708362
H       11.98287370      10.28239166       9.83445536       0.00334190       0.00263703       0.00678091
H       10.20544953      10.26274862       9.87643171       0.00456485       0.00353380       0.01746388
H       11.13303868      10.09981593      11.34959768       0.01196362      -0.00260213       0.01039180
H        8.96291242       5.69490387      10.18812732       0.00078809       0.00590380       0.00697089
H       13.22697121       5.68240707       9.83184651       0.00061806       0.00041918       0.00625050
H       11.09689400       4.43835425       9.98412086      -0.00061012       0.00273463       0.00795705
C        5.50675370       7.48979228       3.57045525       0.00663112       0.02813290      -0.00462043
C        5.95931966       8.51492325       4.40217358       0.00406136       0.00076267      -0.01554497
C        5.34725953       6.22357421       4.12278669      -0.00378402       0.00242090      -0.00462066
C        5.18289317       7.71234039       2.12336798       0.00011908       0.00881147      -0.00780976
C        6.22028303       8.27352488       5.74444924       0.01539233       0.02763101      -0.01344817
C        5.56858792       5.98779274       5.47027552       0.01009979       0.03288795      -0.00148712
C        5.99520166       7.01779605       6.29067700       0.00727390       0.00056960      -0.01384610
H        6.08016423       9.51524283       4.00188313       0.01062003       0.01436413      -0.01628288
H        5.02513520       5.41265652       3.48741556      -0.00731018       0.01850313       0.00150396
H        4.49358990       6.94462444       1.76969111       0.00080894       0.01240450      -0.00723163
H        4.72498624       8.68834757       1.96063480       0.00118530       0.01189622      -0.00780553
H        6.08207013       7.66576664       1.50388597       0.00045660       0.01051030      -0.00770509
H        6.55926383       9.07926364       6.38305076       0.01544978       0.01328872      -0.01788249
H        5.39803674       4.99919637       5.87358872       0.00248724       0.01504947      -0.00104578
H        6.14122979       6.84380687       7.34822059       0.01785564       0.01999676      -0.01053850
C        8.20086134       9.26150164       1.19458879       0.00745684       0.00666466      -0.01811532
C        8.89061757       9.10404407       2.39298489       0.00161521       0.00682284      -0.02965042
C        8.56011467       8.44937620       0.12052317       0.00285025       0.00194343      -0.02735516
C        7.14806358      10.32090523       1.06372671       0.00793406       0.00702813      -0.02839905
C        9.96352778       8.23194675       2.49646850       0.00282616       0.00475439      -0.01652069
C        9.60402881       7.53712376       0.23394721       0.00434157       0.00148810      -0.01339763
C       10.32606855       7.44321999       1.41506059      -0.00196804       0.00060498      -0.02703451
H        8.56842287       9.68397469       3.25019143       0.00690956       0.01129130      -0.02574867
H        8.01537922       8.53572367      -0.81329387       0.00558429       0.00257945      -0.02113979
H        6.41839780      10.07515356       0.29220349       0.00906447       0.00845204      -0.02798893
H        6.61675945      10.47095088       2.00499800       0.00764224       0.00970566      -0.02809508
H        7.61624050      11.27154621       0.79550341       0.01128212       0.00524867      -0.02834881
H       10.51006071       8.13517621       3.42736759       0.00097947       0.00601524      -0.02372697
H        9.86591702       6.91206972      -0.60793671       0.00170675      -0.00116632      -0.01966013
H       11.15776757       6.75461454       1.49840903      -0.00057480       0.00022528      -0.01853820
C       11.16195291       2.87563990       6.39850347       0.01047197       0.01268448       0.00280309
C       10.85949817       2.56510244       5.07427091       0.01115820       0.01435350       0.01051847
C       12.01432684       3.95020965       6.64215081       0.01514789       0.01614740       0.00517786
C       10.53092325       2.12933333       7.54072849       0.01695210       0.01566195       0.00819418
C       11.38332447       3.29880692       4.02037878       0.00770649       0.00841419       0.00312327
C       12.52992234       4.70233246       5.59390455       0.01228862       0.00916883      -0.00222500
C       12.21599229       4.37941451       4.27952028       0.01415087       0.01087430       0.00578132
H       10.15596826       1.76960713       4.86129759       0.00820430       0.01304562       0.00997332
H       12.23287565       4.23323715       7.66514529       0.01520559       0.01527720       0.00093682
H       10.27314326       2.81008716       8.35154470       0.00768200       0.01639023       0.00327583
H        9.61083398       1.63423822       7.22362364       0.02257410       0.00477255       0.00821116
H       11.19506747       1.37290833       7.97078080       0.02351074       0.02474774       0.01277955
H       11.12598052       3.03282496       3.00248163       0.00694855       0.01014075       0.00783671
H       13.15963262       5.55574162       5.80964956       0.01568662       0.01073484      -0.00098507
H       12.61329589       4.96606300       3.46004010       0.01310264       0.00515114       0.00067610
C        5.54687615       2.22790653       2.23199483       0.00019704      -0.01201659       0.00384513
C        4.48853021       3.10552380       1.98697186       0.00036237      -0.00890014       0.00425103
C        5.79337420       1.84961462       3.54908382      -0.00099872      -0.01205678       0.00205356
C        6.39262781       1.72655018       1.10077987      -0.00120059      -0.01006470       0.00271878
C        3.69094372       3.56589068       3.02329353       0.00504315      -0.00759675       0.00551868
C        5.01910701       2.33759188       4.59614193       0.00278418      -0.01182219       0.00345281
C        3.95658081       3.18821837       4.33441481       0.00406004      -0.00667793       0.00412022
H        4.27752402       3.40777759       0.96687259       0.00063434      -0.00937479       0.00502484
H        6.60779798       1.16282524       3.75563177      -0.00158061      -0.01424539       0.00154805
H        6.96481926       0.84302897       1.38284231       0.00529974      -0.00532170       0.00365220
H        5.77953227       1.48303188       0.23130837      -0.00158592      -0.01673017       0.00543095
H        7.10464591       2.49057364       0.77769004      -0.00736560      -0.00663736      -0.00136423
H        2.85463756       4.22053241       2.81003056       0.00552495      -0.00501829       0.00607632
H        5.23322068       2.03517637       5.61463764       0.00178713      -0.01213828       0.00225040
H        3.33261708       3.55238862       5.14093418       0.00776388      -0.00535420       0.00539351
C        8.39362816       4.64153089       4.40705004       0.00271281      -0.00262767       0.01526615
C        8.79683938       5.97194024       4.43505363       0.02235657      -0.00224292      -0.00878894
C        8.18405570       3.99034946       5.61931692      -0.00637678       0.00560866      -0.00968560
C        8.22818406       3.97912584       3.07519822      -0.00316478       0.00388099       0.00392887
C        9.05698750       6.61932740       5.62793327       0.02426558      -0.01017667       0.02461211
C        8.42905804       4.64221425       6.82296383      -0.00416946       0.00293446       0.01480523
C        8.88932578       5.95120282       6.83295480       0.00888234      -0.00122856      -0.00914115
H        8.90449774       6.49203420       3.49586819       0.03632560      -0.00975035       0.01132314
H        7.85243617       2.95740529       5.61809759      -0.01931181       0.00928200       0.00259660
H        8.30531756       2.89501509       3.14298447       0.00207779       0.00355673       0.00443695
H        7.25413099       4.20952200       2.63808249      -0.00877455      -0.00224997       0.01503263
H        8.99136427       4.33743381       2.38200969      -0.01278070       0.00710666      -0.00118107
H        9.36818327       7.65819177       5.61875636       0.04240015      -0.01378171       0.00752999
H        8.27758418       4.12331425       7.76214684      -0.01505585       0.00523662       0.00116171
H        9.10115297       6.44901583       7.76846516       0.01129671      -0.00463470       0.00946020
