198
Lattice="13.106005220475103 0.0 0.0 0.0 13.106005220475103 0.0 0.0 0.0 13.106005220475103" Properties=species:S:1:pos:R:3:forces:R:3 energy=-212568.5625 stress="-0.0021932399831712246 -0.0018966955249197781 3.5969866075902246e-05 -0.0018966955249197781 -0.0017376189352944493 -0.0003548601525835693 3.5969866075902246e-05 -0.0003548601525835693 -0.001922879833728075" pbc="T T T"
N        6.86748627       8.37737518       4.70852139      -0.00296097      -0.00033922       0.00532799
C        6.22317404       9.70858116       5.06349015      -0.00517214      -0.00245279       0.00955576
C        6.84192705       8.13121476       3.21409944      -0.00797547       0.00183776       0.00539160
C        6.10174749       7.26990598       5.39921381       0.00179034      -0.00249822       0.00668800
C        8.31534215       8.39600279       5.16092069      -0.00155008       0.00242683       0.00028085
C        4.86160517       9.93109324       4.44833808      -0.00639063      -0.00424116       0.01189205
C        7.53447751       9.19314950       2.40071309      -0.01262948       0.00385708       0.00407439
C        6.67868257       5.88612158       5.20159416       0.00346988      -0.00122339       0.00345913
C        8.51344408       8.31828106       6.65435605       0.00392900       0.00235572      -0.00052804
H        6.15668894       9.73698410       6.14874798      -0.00364145      -0.00579646       0.00949830
H        6.91269646      10.48936057       4.74906104      -0.00731993      -0.00028223       0.01076561
H        7.33273390       7.17038563       3.06851351      -0.00745592       0.00260118       0.00241119
H        5.79822376       8.00934356       2.92690844      -0.00875330       0.00068870       0.00899347
H        6.06789547       7.52111251       6.45782032       0.00477878      -0.00384238       0.00689474
H        5.08882775       7.31080031       5.00091031       0.00044283      -0.00373772       0.01049501
H        8.81566733       7.57938788       4.64762688      -0.00157611       0.00358704      -0.00168213
H        8.73032694       9.32054071       4.76452719      -0.00469019       0.00322670      -0.00063869
H        4.46123930      10.85138679       4.86437592      -0.01008074      -0.00855646       0.01808389
H        4.92240799      10.07454982       3.36977434      -0.00766860       0.00284760       0.01301926
H        4.16053905       9.13436619       4.70485706      -0.00286603      -0.00858080       0.00720917
H        7.42815233       8.94115145       1.34749722      -0.01775031       0.00577989       0.00420123
H        7.11305805      10.18944510       2.53815299      -0.01174892       0.00337227       0.00884050
H        8.60156367       9.22476615       2.60680543      -0.01162577       0.00348223      -0.00154214
H        6.15945550       5.23194468       5.89653791       0.00773448      -0.00248715       0.00531270
H        6.52585667       5.49382597       4.19665146       0.00045338      -0.00075557       0.00384304
H        7.73472052       5.82011032       5.45930539       0.00458996       0.00060853      -0.00104000
H        9.56913380       8.50409565       6.85891096       0.00427610       0.00288988      -0.00438151
H        7.94463772       9.07793995       7.18227677       0.00542079       0.00206470       0.00129382
H        8.25213606       7.35026432       7.07577488       0.00582121       0.00226161       0.00044060
Br      11.95393527      14.89533734       0.95337971      -0.00876774       0.00980610       0.00169286
O       10.77678743       1.53519601       9.92225591       0.00395143      -0.00314302      -0.00046915
O       12.40500797      -0.00685506      10.04193299      -0.00181302      -0.00781202       0.00986527
C       12.91549267       2.27675742      10.51423549       0.00475532      -0.00940603       0.00567991
C       12.01591566       1.15830718      10.12807742       0.00259261      -0.00726140       0.00522256
H       12.56115120       3.19120308      10.03415049       0.00729530      -0.00857351       0.00604808
H       12.81812467       2.39864920      11.60431746       0.00498775      -0.00965175       0.00565201
H       13.94945660       2.03762350      10.27439025       0.00428475      -0.01178998       0.00575582
H       10.21753728       0.72790862       9.68206977       0.00123889      -0.00198093       0.00290316
O        6.72621927       3.80392977      13.22096758       0.00888079      -0.00227818       0.01507038
O        7.15902843       1.87517353      12.16594583      -0.00846386       0.01450872      -0.01946372
C        8.96093290       3.42628058      12.53554263      -0.00185603       0.00506735      -0.02068198
C        7.55586936       2.93276301      12.59496554      -0.00258923       0.00485510      -0.01110387
H        9.31574922       3.37000691      11.50758588       0.00029104      -0.01585452      -0.01803119
H        9.04978079       4.43819594      12.92373046      -0.00202522       0.01143642      -0.03888406
H        9.60608595       2.76138947      13.12145538      -0.00429073       0.01653837      -0.00522339
H        5.87433220       3.35335975      13.32260540       0.01133859      -0.00346661       0.02841876
O        9.24394891       4.34194783       7.70395818       0.00589800      -0.01309454       0.01684833
O       10.48543311       2.97077994       6.42434252      -0.00619187      -0.01060653       0.00189793
C       11.29521132       5.17362770       6.90720917      -0.00894058      -0.00606102      -0.01346195
C       10.32478059       4.04282040       6.97650920      -0.00309296      -0.00885552       0.00269616
H       11.11772322       5.74009611       5.98935833      -0.02221107      -0.00972661      -0.01298845
H       11.17803703       5.84279694       7.75687143      -0.00108955      -0.00372881      -0.01439875
H       12.30632644       4.78564856       6.83938086      -0.00803483      -0.00105318      -0.02491841
H        8.69644511       3.53352969       7.78530413       0.00682592      -0.01280195       0.02166305
O        2.68983217       8.81523193       2.29628197       0.00201666       0.00755596      -0.00325352
O        3.98447770       7.28658824       1.30943707      -0.00092232       0.00180653       0.00029942
C        1.81933014       7.76262683       0.37193961       0.00856221       0.02074164      -0.01335740
C        2.93990050       7.91430123       1.33403542       0.00060356       0.00999266      -0.00518686
H        1.42274169       6.75022696       0.48256751       0.00611909       0.02058738      -0.02523208
H        1.05646117       8.52084866       0.51399520       0.00836565       0.02017100      -0.01184622
H        2.20081546       7.83304915      -0.64408034       0.01516162       0.03018839      -0.01024526
H        3.45840222       8.83333081       2.88562687      -0.00221217       0.00050174       0.00171739
O        4.63533151      12.99633812      11.53549883       0.00612122       0.01048467       0.00108844
O        5.82438013      11.33462859      10.61927888      -0.00488288      -0.00168368      -0.00038302
C        6.15589458      11.85492821      12.94707968       0.00574836       0.00900772      -0.00047332
C        5.55662335      11.98707659      11.59619222       0.00031942       0.00870112       0.00660294
H        6.86171132      12.68040095      13.07383311       0.00595342       0.00915369      -0.00346729
H        5.41150571      11.94857927      13.73661062       0.00788732       0.00982403       0.00182883
H        6.67999530      10.90673457      13.00782359       0.00579564       0.00914611       0.00056387
H        4.33862309      13.08702975      10.61832240       0.00238176       0.00824743       0.00299174
O        2.76590487      13.02511736       0.43165542       0.00455666       0.01655257      -0.00022888
O        2.55708060      10.84558478      -0.03373833       0.01926830       0.01916957      -0.00775111
C        1.37575622      11.76617030       1.86673618      -0.00133193       0.00482423      -0.01698166
C        2.26101635      11.78336821       0.66400054       0.01016071       0.01089317      -0.01072311
H        2.00333026      11.75558028       2.76271456      -0.00992945       0.01630835      -0.01127443
H        0.75666938      12.66411155       1.88848835      -0.01292829      -0.00350630      -0.02582862
H        0.76080398      10.87346410       1.84571958       0.01030556      -0.00264554      -0.02052005
H        3.37395252      12.98055391      -0.33703699       0.01121411       0.02150087       0.00374597
O        2.21595524      11.79113527       8.26897222      -0.00824090       0.00407594       0.01032954
O        3.92302994      10.61913179       7.42007018      -0.01180273      -0.00048659       0.01026559
C        3.11755544      10.09373888       9.63260453      -0.01006465       0.00399920       0.01173306
C        3.16172340      10.83961302       8.34278095      -0.01063591       0.00219946       0.01202136
H        3.13897171      10.77263743      10.48345477      -0.01341525       0.00416183       0.01169682
H        2.16577959       9.56337310       9.70959933      -0.00883818       0.00119974       0.01039070
H        3.94631618       9.39622372       9.68960232      -0.00861540       0.00592770       0.01343342
H        2.15766591      12.14887977       7.34891998      -0.00856474       0.00009985       0.00904280
O        8.57909709       7.17034756      11.19078302      -0.00007069      -0.00141951       0.00338939
O        7.97489169       9.02735277      12.26869240      -0.00325134      -0.00488329       0.00378273
C        6.32113211       7.33126464      11.89960789      -0.00019163      -0.00513387       0.00483751
C        7.67241678       7.94378267      11.82907661      -0.00085743      -0.00063533       0.00546190
H        5.91903298       7.28496533      10.88569918      -0.00020236      -0.00564497       0.00492227
H        6.37668166       6.31168619      12.28073909       0.00163701      -0.00476730       0.00465111
H        5.66800602       7.93130735      12.52459332      -0.00084718      -0.00618160       0.00473478
H        9.42738838       7.67361865      11.15136975      -0.00188407      -0.00077316       0.00250383
O       10.43605163      12.51992778      -0.14367972      -0.00634438      -0.00062490       0.02103719
O       12.23650363      11.15969384      -0.14765456      -0.00346088       0.00651368      -0.00097710
C       10.19274392      10.42853030       0.86759120       0.00617945      -0.01027501       0.00286680
C       11.07661990      11.38502873       0.12432814       0.00172329      -0.00072750       0.00676641
H       10.25478293      10.70686728       1.92330112       0.00120281      -0.01368012       0.00382763
H        9.15865400      10.53087179       0.55764693       0.00636525      -0.01755366       0.00087720
H       10.52636735       9.40142083       0.74943152       0.01462226      -0.00684410      -0.00073122
H       11.07542564      13.29662835      -0.08791774      -0.00865257       0.00186475       0.01796171
O       12.55961452      11.80025471       7.22910676      -0.00969112       0.02282400       0.00456607
O       14.21935067      12.64168966       5.97434465       0.00316912      -0.00701015       0.00219276
C       11.96366900      12.78766207       5.16566218       0.00796959       0.00711522      -0.00735331
C       13.03302107      12.41201318       6.13983737       0.00045985       0.00602731       0.00004838
H       12.19077629      12.36781130       4.18570138       0.01961818       0.01775694      -0.00871050
H       10.98177918      12.46710549       5.50431851       0.00656210       0.00018355      -0.01892117
H       11.96841177      13.87138747       5.04255160       0.00282060       0.00830543       0.00311647
H       13.29047315      11.66471750       7.86152496      -0.01473641       0.02203532       0.01021105
O        8.43311947       1.73794268       7.64106257      -0.00436294      -0.01001775       0.00152665
O        7.63535952      -0.11744775       6.67008784       0.01271667      -0.01160783      -0.00670940
C        6.54986876       0.73796146       8.64395985      -0.01130271      -0.01706978      -0.01803333
C        7.56870252       0.70411968       7.55268826       0.00122479      -0.01334000      -0.00750846
H        6.87585557       1.35136075       9.48211670      -0.01286896      -0.03312545      -0.00660078
H        5.61825106       1.14519771       8.24269455      -0.00000773       0.00177655      -0.02337214
H        6.36071607      -0.27907412       8.97785795      -0.02891636      -0.01864120      -0.03504251
H        9.10783586       1.71423334       6.93179055      -0.00007999      -0.00413767       0.00527897
O        7.37616008       4.92641886      10.00614126       0.00052148      -0.00276321       0.00554949
O        6.62343974       6.46473585       8.56058771       0.00428891      -0.00743854       0.00028613
C        5.72177313       4.23934839       8.47558827       0.00331640      -0.00614679       0.00433791
C        6.59856605       5.33309464       8.99546177       0.00272246      -0.00388640       0.00250734
H        6.26384855       3.70001079       7.69413338       0.00392662      -0.00639083       0.00504412
H        5.45807479       3.52784605       9.25307258       0.00374490      -0.00512484       0.00505057
H        4.82216784       4.67792719       8.05183216       0.00338812      -0.00695683       0.00311183
H        7.92424153       5.68632057      10.29347231       0.00065865      -0.00274810       0.00421838
O        1.69499193       4.74471511      10.53688635       0.00353837      -0.00687593       0.00224316
O        3.19563687       3.09386845      10.32210508       0.00493462      -0.00695121       0.01367635
C        3.89271947       5.23065860      11.19395395       0.00260204      -0.00058782      -0.00035992
C        2.93695083       4.22979340      10.64760855       0.00358544      -0.00473094       0.00658399
H        3.87284708       6.12291546      10.56652485       0.00791576      -0.00880168      -0.01210968
H        3.56530389       5.51384128      12.19530043      -0.00172026       0.01390874      -0.00610384
H        4.89129804       4.80857848      11.23129463       0.00119224      -0.00244993       0.01017856
H        1.12239591       4.01835886      10.24950787       0.00436375      -0.00876659       0.00586468
O       10.86387100      11.07132087       9.99153871      -0.00630638      -0.00208607       0.00703236
O        9.38775337      12.59830969       9.28584950      -0.00614865       0.00100631       0.01112713
C        8.67429542      10.34804067       9.42687955      -0.00569612      -0.00012720       0.00497586
C        9.67281057      11.43830596       9.55079370      -0.00635800      -0.00147408       0.00813186
H        9.13685542       9.39019631       9.20391651      -0.00510935       0.00090688       0.00125419
H        8.15153326      10.26901168      10.38149743      -0.00498967      -0.00423628       0.00493923
H        7.93765095      10.62519956       8.67878709      -0.00624849       0.00151130       0.00627749
H       11.48035719      11.89795837      10.05073067      -0.00458953      -0.00292382       0.00860099
O        2.52928726       6.74850365       4.30806505      -0.00011259       0.00028780      -0.00369531
O        0.94121206       5.59022813       5.37736888       0.00063705      -0.00245256      -0.00609667
C        3.22905000       4.87049936       5.55482955       0.00171667       0.00256267      -0.00151199
C        2.10751962       5.73944543       5.08904083       0.00074530       0.00012565      -0.00397444
H        3.83834145       4.57894591       4.69799682       0.00302105       0.00234734      -0.00035271
H        3.83796222       5.44697206       6.25320657       0.00008427       0.00402251      -0.00153556
H        2.82456888       4.00249446       6.06872713       0.00259544       0.00249469      -0.00123733
H        1.73693236       7.23176484       4.00418957      -0.00097233      -0.00245211      -0.00635064
O        3.47300667       4.61468636       2.29069873      -0.00076342       0.00024259      -0.00899357
O        1.91350407       4.59212955       0.68412216      -0.01646519       0.02660573       0.00639927
C        1.46361902       3.43431772       2.73748818      -0.00210160       0.00336465      -0.00450808
C        2.27692402       4.24345507       1.78784820      -0.00745524       0.01187795      -0.00135851
H        2.07795530       2.95510018       3.49218217       0.00008167       0.00331484      -0.00667851
H        0.75636869       4.10576492       3.23236551      -0.00675604      -0.00314243      -0.00281233
H        0.86488083       2.70778764       2.18705016       0.00173840       0.00272682      -0.00761777
H        3.83824714       5.31039836       1.71317756      -0.00413263       0.00590378      -0.00423381
O       13.09974763       7.52365899       3.11853331       0.00117105      -0.00416720      -0.00746953
O       10.89885497       7.46518389       3.51175899       0.00078699      -0.00385797       0.00379853
C       12.29809942       8.87297498       4.88215429       0.01025806       0.00188819      -0.00810313
C       11.98725697       7.90217766       3.79117936       0.00793374      -0.00020972      -0.00187163
H       12.71367679       8.32545336       5.73102399       0.01647487       0.00539209      -0.00897196
H       13.05383637       9.59228358       4.56992756       0.00736839       0.00211327      -0.01491383
H       11.39120687       9.38166440       5.19623505       0.01175392       0.00164850      -0.00407376
H       12.83147166       6.84505679       2.47985979      -0.00100261      -0.00729227      -0.00240499
O       10.96921231       8.50001170      11.06845232      -0.00390192      -0.00191563      -0.00233951
O       13.20182029       8.36403236      10.95130684      -0.02383268      -0.00345707      -0.00147913
C       11.94808730       6.45203293      11.72495135       0.00191359       0.00205761       0.00042570
C       12.15037273       7.84898005      11.22059060       0.01977575       0.01841286      -0.01069377
H       11.36897277       6.45970651      12.64985554       0.00846057       0.00608345       0.00129730
H       11.36187009       5.88055983      11.00105560       0.00122669       0.00304715       0.00410926
H       12.90393276       5.96214544      11.88172352       0.00460789       0.00770030      -0.00414212
H       11.12246885       9.42526188      10.76435850      -0.00601876       0.00194490      -0.00454734
O        6.59782024       2.72102830       5.33669365       0.01582623      -0.00107065      -0.00736544
O        6.24624788       2.90629478       3.13393741       0.00428700      -0.01387542      -0.00779879
C        8.32348430       1.94920796       3.92500344       0.00937128      -0.00878927      -0.01039528
C        6.97223518       2.56616037       4.03289141       0.01158655      -0.00914091      -0.00651008
H        9.05290074       2.55652570       4.46394375       0.00987045      -0.01291217      -0.00640412
H        8.30165432       0.97564978       4.41941905       0.00757267      -0.01143155      -0.01566453
H        8.61937457       1.84704446       2.88652174       0.01029351      -0.00441643      -0.01044402
H        5.70433345       3.09276866       5.30602041       0.01594007      -0.00166589      -0.00562651
O        2.21092891       8.50438049       6.92960070      -0.01354736       0.00665343       0.00049625
O        3.21963790       6.93756288       8.18031043       0.00309986       0.01085204      -0.00468764
C        0.81269867       7.12374596       8.20289812       0.00006974      -0.01003228      -0.00234994
C        2.20442794       7.47891193       7.80714454      -0.00650883       0.00495276      -0.00307140
H        0.27167853       8.02174441       8.49671339      -0.00911543      -0.01574792      -0.00171474
H        0.32136045       6.68841639       7.33426197       0.00371777      -0.01485162      -0.00174358
H        0.83186440       6.41310725       9.02155917       0.00718004      -0.01016814      -0.00258860
H        3.12517369       8.82850416       6.83782387      -0.01715451       0.01606359       0.00201368
O        3.47061701       1.08358492       2.75633406      -0.00610948      -0.00356160       0.01492989
O        5.10012690      -0.45100867       2.93992663      -0.00940090      -0.00735265       0.00320017
C        4.23505371       0.61214034       4.91593138       0.00987305      -0.00417222       0.00918424
C        4.35099673       0.36081981       3.44299932      -0.00266761      -0.00608793       0.00825554
H        3.93410345       1.64059792       5.10940046       0.01354127      -0.00362186       0.01073191
H        3.42248206      -0.01785613       5.28587268       0.01284739      -0.00268300       0.01766415
H        5.15508157       0.35464369       5.43291119       0.01427904      -0.00467920       0.00079869
H        3.40113330       0.75029270       1.83292072      -0.00774516       0.00148316       0.01305982
