198
Lattice="13.45045771677653 0.0 0.0 0.0 13.45045771677653 0.0 0.0 0.0 13.45045771677653" Properties=species:S:1:pos:R:3:forces:R:3 energy=-170048.953125 stress="-0.004026025999337435 -0.00034872142714448273 6.996784577495418e-05 -0.00034872142714448273 -0.002034118166193366 7.76574233896099e-05 6.996784577495418e-05 7.76574233896099e-05 -0.006072720047086477" pbc="T T T"
N       10.13496436      11.40935999       2.85148363      -0.00184841       0.01114682       0.00298698
C        8.83113904      12.08384219       2.52098353      -0.00137174       0.01076475       0.00154880
C       10.21770801      11.04414561       4.32042737      -0.00532606       0.00884971       0.00226283
C       11.27631691      12.34883166       2.51885513      -0.00132489       0.01237339       0.00734323
C       10.22370306      10.13309706       2.03293877       0.00057798       0.01254153       0.00154129
C        8.52005420      13.33305697       3.31172264      -0.00288460       0.01029876       0.00127214
C        9.02228662      10.31991890       4.89831997      -0.00604814       0.00722888      -0.00206085
C       12.63009081      11.76671882       2.79418069      -0.00168777       0.01314203       0.00984806
C       10.34971743      10.32033493       0.53859387       0.00473795       0.01459207       0.00255796
H        8.88206363      12.31309562       1.45921868      -0.00009767       0.01047252       0.00187927
H        8.06364976      11.33039697       2.65909025      -0.00165403       0.01077282      -0.00063145
H       11.10645055      10.42420198       4.41707100      -0.00560850       0.00903420       0.00329818
H       10.40086832      11.98095373       4.84717610      -0.00699686       0.00782052       0.00454326
H       11.18570378      12.62853871       1.47013414       0.00064095       0.01421275       0.00794578
H       11.11672847      13.24220843       3.12025264      -0.00361431       0.01095733       0.00827624
H       11.07463493       9.57881458       2.42122610      -0.00106218       0.01157939       0.00324550
H        9.32480415       9.56992135       2.27437475      -0.00003460       0.01229270      -0.00232314
H        7.52839183      13.66628358       3.00479576      -0.00292850       0.00897328       0.00075003
H        8.48441606      13.15355150       4.38643750      -0.00320468       0.01094466       0.00115931
H        9.21572084      14.14608752       3.11892377      -0.00410187       0.01097953       0.00102757
H        9.24746485      10.11319010       5.94559191      -0.00715213       0.00268051      -0.00293523
H        8.10789326      10.90913458       4.86316974      -0.00566818       0.00737663      -0.00045043
H        8.84057208       9.36237503       4.41222427      -0.00580823       0.00931524      -0.00572197
H       13.35824056      12.51063466       2.47917807      -0.00149676       0.01389280       0.01208489
H       12.77297921      11.54191151       3.84816962      -0.00373263       0.01360811       0.00998785
H       12.84250176      10.86974964       2.21301486      -0.00059253       0.01266342       0.01152815
H       10.39126612       9.32167546       0.10308851       0.00760233       0.01568332       0.00139983
H        9.49255316      10.82783536       0.09639249       0.00536725       0.01378204       0.00088432
H       11.26237863      10.84321293       0.25118901       0.00475413       0.01554422       0.00589607
Br      13.25227106      13.67118689       0.03239842       0.01381676       0.02994036       0.01688678
C       11.48525327      12.52045774      10.62667221      -0.00248786       0.01829613      -0.00280857
C       12.65659748      11.93962378      10.15324361       0.00245348       0.02697946      -0.00074115
C       10.45182599      12.81207500       9.74611711      -0.00889108      -0.00541554      -0.00234099
C       12.79438589      11.65666506       8.80040359       0.00134487       0.01309455       0.00261741
C       10.58838596      12.53117266       8.39020871      -0.00950111      -0.01928141       0.00097073
C       11.76373491      11.95870256       7.91469212      -0.00464664      -0.00989761       0.00332718
H       11.42074885      12.77089272      11.67846029      -0.00346174       0.02832057      -0.00572276
H       13.45608538      11.73049410      10.85442924       0.00674105       0.04378661      -0.00180085
H        9.54611248      13.27621390      10.11838069      -0.01350659      -0.01368294      -0.00463230
H       13.71092466      11.21110063       8.43472166       0.00490384       0.01990885       0.00411397
H        9.78209717      12.77259208       7.70626676      -0.01431611      -0.03799736       0.00094619
H       11.88534236      11.75790637       6.85567027      -0.00579572      -0.02128580       0.00573745
C        5.33683355       3.14161045       8.39448310       0.00248607      -0.00432568      -0.00561026
C        5.65791936       4.17566240       9.26483065      -0.00220264      -0.00688511      -0.00058105
C        6.23939190       2.10572238       8.18900179       0.00715829       0.00090520      -0.00941984
C        6.87698395       4.16869677       9.93343210      -0.00330377      -0.00516608      -0.00031216
C        7.46115392       2.10051915       8.85360753       0.00624082       0.00295071      -0.00937204
C        7.78094832       3.13094969       9.73192896       0.00120178       0.00013400      -0.00408898
H        4.38520611       3.14353863       7.87864633       0.00301947      -0.00615947      -0.00551556
H        4.95289137       4.98145717       9.42944792      -0.00581155      -0.01118720       0.00282868
H        5.98350047       1.29540989       7.51642239       0.01093065       0.00302104      -0.01337776
H        7.12212057       4.96001153      10.63068485      -0.00732393      -0.00746340       0.00379531
H        8.16067371       1.28741396       8.69954222       0.00994204       0.00702644      -0.01208782
H        8.71991551       3.11981732      10.27290057       0.00044675       0.00158762      -0.00373201
C        9.90669069       6.85065027      10.21763922       0.00925891       0.01109021       0.01639232
C       11.05559790       6.06922631      10.21738648       0.00836841       0.00779711       0.01292084
C        9.97913345       8.18907927      10.57573849       0.01371165       0.01008995       0.01111939
C       12.27369030       6.62776253      10.57867781       0.01042065       0.00809614       0.00498130
C       11.19801519       8.75331308      10.92999738       0.01569957       0.01065767       0.00276642
C       12.34531629       7.97160884      10.93246414       0.01495507       0.00726975      -0.00056512
H        8.96228012       6.41378473       9.91511559       0.00754428       0.01086468       0.02210536
H       10.99844071       5.02837573       9.92723083       0.00507293       0.00823516       0.01627284
H        9.09714747       8.81357942      10.54077348       0.01417097       0.01207799       0.01528609
H       13.17131431       6.02143397      10.56749260       0.00940602       0.00559713       0.00328118
H       11.25339795       9.80360542      11.17981880       0.01898379       0.01022658      -0.00126108
H       13.29746871       8.41515878      11.19118212       0.01606411       0.00714552      -0.00601783
C        5.76446109      11.75706958       1.49931837      -0.00658799       0.00413179       0.00539050
C        5.59617945      11.42269675       2.83873747      -0.00537533      -0.00360140       0.00326749
C        6.29030899      10.82311924       0.61397645      -0.00585927       0.01064219       0.00004071
C        5.94153284      10.15401673       3.28960146      -0.00283393      -0.00530324      -0.00450844
C        6.64714696       9.55628819       1.06488834      -0.00373686       0.00870834      -0.00785316
C        6.47141996       9.22138630       2.40345928      -0.00213585       0.00103288      -0.00989036
H        5.46703237      12.73224063       1.13297368      -0.00856466       0.00539084       0.01122514
H        5.16652154      12.13887266       3.52811151      -0.00634602      -0.00859571       0.00719260
H        6.40750304      11.07593031      -0.42989688      -0.00712050       0.01706275       0.00173496
H        5.77097439       9.88819722       4.32583054      -0.00147281      -0.01121765      -0.00608024
H        7.05659210       8.83041253       0.37189394      -0.00416350       0.01329319      -0.01226872
H        6.73791551       8.23080567       2.75196737      -0.00054350      -0.00037225      -0.01594224
C        2.88620214       8.34868537       7.11119911       0.00760908       0.00574294       0.00316237
C        4.20199035       7.92964164       6.98292233       0.00581631       0.00469667      -0.00596496
C        2.59599170       9.70366758       7.18581560       0.00960101       0.00511554       0.01115238
C        5.22403269       8.87159767       6.93590422       0.00669751       0.00362540      -0.00705526
C        3.60929221      10.64670080       7.10822982       0.01052855       0.00426391       0.01073376
C        4.92886092      10.22850380       6.99075126       0.00869672       0.00304436       0.00140022
H        2.08721935       7.61802253       7.15927045       0.00703018       0.00657797       0.00377105
H        4.43564664       6.87337681       6.93528647       0.00419976       0.00504224      -0.01260551
H        1.57003616      10.02946685       7.29468369       0.01091790       0.00565746       0.01851347
H        6.25575517       8.54738100       6.86589623       0.00540432       0.00265507      -0.01496153
H        3.37089524      11.70230007       7.15056607       0.01245990       0.00385588       0.01816521
H        5.72860342      10.95856052       6.95590481       0.00945718       0.00217135       0.00075333
C       10.43877264       3.40243603       4.27361393      -0.00047933      -0.00019237      -0.00628991
C       11.76806943       3.57125488       3.89988315      -0.00217665      -0.00423716      -0.01405497
C       10.08164966       2.34515460       5.10185828       0.00612029       0.01000693       0.00853466
C       12.73499912       2.67820257       4.34874066       0.00012134       0.00110322      -0.00951095
C       11.04781772       1.44880223       5.54589836       0.00748505       0.01563490       0.01504483
C       12.37535746       1.61267876       5.16722957       0.00562592       0.01124262       0.00570343
H        9.68663775       4.10149997       3.92980096      -0.00285697      -0.00738551      -0.01525014
H       12.04711121       4.40621423       3.26960759      -0.00689335      -0.01101589      -0.02411779
H        9.04772982       2.21535997       5.39784048       0.00785182       0.01190996       0.01272943
H       13.77088148       2.81421250       4.06733704      -0.00235294      -0.00381739      -0.02202179
H       10.77231079       0.63241542       6.20000902       0.01086419       0.02155286       0.02371832
H       13.12684167       0.91334407       5.51379930       0.00652404       0.01536597       0.01126413
C        6.80595197       5.69109485       5.64793256      -0.00377733       0.00089234      -0.01280195
C        6.05648149       6.30878515       4.65335853      -0.00389459      -0.00250953      -0.01450411
C        6.99189817       4.31472069       5.62506446      -0.00089997       0.00178269      -0.01028281
C        5.48858858       5.55093858       3.63571555      -0.00054643      -0.00527018      -0.01382530
C        6.42389734       3.55538339       4.60836756       0.00257331      -0.00105873      -0.00957472
C        5.67142076       4.17248234       3.61532642       0.00295386      -0.00446084      -0.01164229
H        7.23209420       6.27611252       6.45430566      -0.00580686       0.00295810      -0.01357788
H        5.88779521       7.37708570       4.68736008      -0.00627794      -0.00314553      -0.01642082
H        7.55743580       3.83336566       6.41230774      -0.00129291       0.00448373      -0.00869104
H        4.89489358       6.03145516       2.86808033      -0.00064126      -0.00819351      -0.01530713
H        6.55715111       2.47998906       4.59772910       0.00539074      -0.00038177      -0.00789182
H        5.21565278       3.58012731       2.83156641       0.00533525      -0.00642966      -0.01114954
C       10.52655604       2.65206810      13.24741647      -0.01044500      -0.02077552       0.00098020
C       10.66370081       3.97081154      12.83405459      -0.01449250      -0.02215635      -0.00222365
C        9.27310213       2.19046080      13.63576483      -0.00694072      -0.02169459       0.01027711
C        9.56087458       4.81588830      12.80653276      -0.01526470      -0.02349813       0.00232057
C        8.17043526       3.03731726      13.62414488      -0.00713120      -0.02255827       0.01612935
C        8.31456569       4.35421837      13.20627650      -0.01188576      -0.02426598       0.01206624
H       11.38846951       1.98933664      13.27636201      -0.00890142      -0.01855163      -0.00168337
H       11.63660306       4.34462072      12.53766707      -0.01620792      -0.02263168      -0.00817621
H        9.16163585       1.16045664      13.95259089      -0.00383915      -0.02063994       0.01327254
H        9.67932710       5.84053643      12.48446440      -0.01851208      -0.02468246      -0.00139997
H        7.19930816       2.67727842      13.93626269      -0.00417340      -0.02298877       0.02419613
H        7.45895316       5.02001040      13.19467226      -0.01305235      -0.02610077       0.01675280
C       11.09352201       8.21572630       7.40207425      -0.00128374      -0.00408335       0.00170626
C       12.39917075       7.75010489       7.30568390      -0.00070284      -0.00292706      -0.00164045
C       10.03182180       7.33266282       7.23592125      -0.00001539      -0.00526868       0.00362093
C       12.64298315       6.40525837       7.04589271      -0.00054754      -0.00181979      -0.00345570
C       10.27419790       5.98802995       6.98377125       0.00018480      -0.00399981       0.00173092
C       11.58112692       5.52280189       6.89062975       0.00056330      -0.00272447      -0.00211124
H       10.90969322       9.25783059       7.63417684      -0.00156644      -0.00502728       0.00274339
H       13.22474824       8.43557151       7.45734924      -0.00149410      -0.00230026      -0.00293034
H        9.01420214       7.69707115       7.31733442      -0.00027515      -0.00633581       0.00667417
H       13.65973094       6.03786145       6.97625424      -0.00042860      -0.00092011      -0.00646153
H        9.44982987       5.29831647       6.85550317       0.00093201      -0.00479683       0.00255666
H       11.76825661       4.47613857       6.68879953       0.00114038      -0.00173312      -0.00422159
C        3.76047396       5.33960689       0.02452018      -0.00229670      -0.03378634      -0.00302730
C        2.39555892       5.07721112      -0.05012106      -0.00185176      -0.01352420      -0.00486943
C        4.22967686       6.63585372      -0.15488797       0.00302491      -0.03971920       0.00170673
C        1.50500220       6.11727453      -0.29407230       0.00006853      -0.01580091       0.00048604
C        3.33824231       7.66801493      -0.40857844       0.01077721      -0.03259426       0.00537753
C        1.97555167       7.41358593      -0.46742090       0.00901096      -0.02309693       0.00462905
H        4.45759896       4.53133580       0.20735975      -0.00869913      -0.03859409      -0.00625013
H        2.02534875       4.06748843       0.07311617      -0.00324806      -0.00410950      -0.00656081
H        5.29033369       6.85153657      -0.10659865       0.00215177      -0.04700992       0.00219384
H        0.44253396       5.91489606      -0.34204110       0.00037739      -0.01100172       0.00195092
H        3.70699910       8.67140150      -0.56394437       0.01817326      -0.03391492       0.00929819
H        1.28392694       8.23048376      -0.63182651       0.01589647      -0.01985639       0.00743996
C        5.32802992       7.96433001      10.37555974       0.00764968       0.00396739      -0.00617032
C        6.15377876       9.05242614      10.62264494       0.00492765       0.00624915      -0.00696717
C        3.96954661       8.15960128      10.17077588       0.00612299      -0.00047690       0.00385180
C        5.62463907      10.33771447      10.65245342      -0.00019369       0.00325602       0.00333093
C        3.43534633       9.43803612      10.23722005       0.00146699      -0.00337601       0.01300018
C        4.26036518      10.52904979      10.47581135      -0.00162232      -0.00110631       0.01345871
H        5.74042884       6.96345510      10.35608851       0.01146167       0.00615527      -0.01530377
H        7.20846955       8.89505889      10.79834857       0.00670258       0.01051013      -0.01655255
H        3.32067713       7.31250779       9.98890816       0.00857716      -0.00197592       0.00296010
H        6.27123677      11.19172105      10.81456195      -0.00254656       0.00485522       0.00309264
H        2.37228048       9.58799864      10.09488657       0.00059573      -0.00688219       0.01888063
H        3.84432756      11.52587933      10.52338878      -0.00479117      -0.00309920       0.02053561
C        1.82551003      10.89867500       3.81571578      -0.00110680       0.00042221       0.00373297
C        1.55633947       9.64975857       4.35428896       0.00622387       0.00512713       0.00343320
C        2.52091095      11.00327040       2.62039464      -0.00856204       0.00271454      -0.00550576
C        2.08075344       8.50802098       3.76578684      -0.00026570       0.00198966       0.00418516
C        3.00550141       9.85725122       2.00815796      -0.01476865      -0.00072099      -0.00434202
C        2.81848141       8.61329383       2.59735732      -0.00763188       0.00384273      -0.00541406
H        1.46673528      11.79144337       4.30965564       0.00358550       0.00270143       0.00329918
H        0.94206681       9.56496183       5.23894371       0.01326790       0.00360228       0.01119475
H        2.68303531      11.97167645       2.16425136      -0.01363046       0.00036612      -0.00535914
H        1.91751268       7.53581082       4.21499375       0.00478063       0.00429800       0.00437827
H        3.57492292       9.94642246       1.09508945      -0.02171284       0.00022539      -0.01156357
H        3.23679827       7.72797180       2.14053226      -0.01172198       0.00166143      -0.00472660
C       11.05709026       7.28991084       4.00024283       0.01422547       0.00546319      -0.01500663
C       10.00807447       6.93664688       3.16373278      -0.01759599       0.00118551      -0.00049037
C       12.33603588       7.45137175       3.48923286      -0.02848784       0.00161909      -0.00091787
C       10.24112950       6.76990456       1.80621920       0.00731249       0.00487750      -0.01214036
C       12.57607072       7.27736574       2.13121183      -0.00004385       0.00549488      -0.01402978
C       11.52238072       6.93966949       1.28801087      -0.02765138       0.00069776      -0.00061876
H       10.88390669       7.43537350       5.05159460      -0.00578091       0.00159168      -0.00364152
H        9.01396891       6.78573055       3.57183294      -0.00304511       0.00235836      -0.00474653
H       13.14348033       7.71140817       4.15630025      -0.00325520       0.00610628      -0.01032362
H        9.42568742       6.49403761       1.15539115      -0.01347154       0.00082979      -0.00503030
H       13.57837282       7.40607633       1.74178980      -0.01483385       0.00391943      -0.00993393
H       11.69554935       6.81013881       0.22615673      -0.01127575       0.00122509      -0.00993361
C        2.67182619       1.10218626      11.80673771       0.00575241      -0.00290901      -0.00638422
C        3.25859603       1.54779017      12.98548142       0.00187795      -0.01363751      -0.00028755
C        3.47535151       0.64741579      10.77111535       0.00864523       0.00510421      -0.00755551
C        4.64153070       1.56938623      13.11252850       0.00111031      -0.01499581       0.00400545
C        4.85955570       0.63243799      10.90969798       0.00733289       0.00435397      -0.00181586
C        5.44774149       1.10848219      12.07439573       0.00494048      -0.00588812       0.00307385
H        1.59226873       1.07495468      11.73864585       0.00655895      -0.00165009      -0.01231726
H        2.61820979       1.85279147      13.80258824      -0.00100769      -0.02202947       0.00099702
H        3.01750941       0.29076746       9.85518193       0.01009458       0.01253657      -0.01134808
H        5.09174368       1.93779743      14.02825773      -0.00026519      -0.02258836       0.00751728
H        5.48085507       0.26218772      10.10511477       0.00930850       0.01136360      -0.00209429
H        6.52687607       1.12899320      12.16617850       0.00454436      -0.00617744       0.00753839
