198
Lattice="13.086719185633905 0.0 0.0 0.0 13.086719185633905 0.0 0.0 0.0 13.086719185633905" Properties=species:S:1:pos:R:3:forces:R:3 energy=-143876.875 stress="-0.0019596940837800503 -0.001601343508809805 0.000438307091826573 -0.001601343508809805 -0.0014207253698259592 -0.0003176545724272728 0.000438307091826573 -0.0003176545724272728 -0.0016955456230789423" pbc="T T T"
N        6.94835468       8.42355988       4.61783692      -0.00035501       0.00183700       0.00383140
C        6.30687016       9.75133992       4.97969618      -0.00171917       0.00003380       0.00832939
C        7.00457354       8.22654174       3.11628767      -0.00300980       0.00608149       0.00346476
C        6.13449985       7.30906982       5.23867050       0.00213820      -0.00049762       0.00254416
C        8.37350754       8.40769420       5.15510828       0.00071687       0.00219840       0.00113786
C        4.97074611      10.01318576       4.32174211      -0.00264090       0.00006793       0.01031989
C        7.72201226       9.32216526       2.36964409      -0.00516051       0.00835472       0.00496692
C        6.70204544       5.92368037       5.02969508       0.00213957       0.00039837      -0.00322986
C        8.47769929       8.23875716       6.64698749       0.00414326      -0.01120304      -0.00064898
H        6.20103669       9.75460313       6.06186230      -0.00024287      -0.00354710       0.00845382
H        7.01784576      10.52932075       4.71080471      -0.00312519       0.00176853       0.00997236
H        7.51118759       7.27487487       2.96583413      -0.00311026       0.00671324      -0.00014083
H        5.97722346       8.09752998       2.77480689      -0.00356475       0.00618830       0.00529040
H        6.06117234       7.53237044       6.30303319       0.00443150      -0.00354326       0.00312984
H        5.14123003       7.37175025       4.79534002       0.00095946       0.00031151       0.00576361
H        8.89730249       7.61853283       4.62104771       0.00238308       0.00870910      -0.00664914
H        8.80804652       9.35668430       4.84621343      -0.00291842       0.00618297       0.00900493
H        4.57897732      10.93455007       4.74524980      -0.00595066      -0.00438505       0.01679333
H        5.07005097      10.18020613       3.24824217      -0.00338671       0.00796350       0.01165852
H        4.23900244       9.23093719       4.53353520      -0.00002280      -0.00387336       0.00420691
H        7.69138221       9.09342018       1.30346246      -0.00687544       0.01097412       0.00450152
H        7.26739011      10.30412605       2.50402999      -0.00517082       0.00786281       0.00871585
H        8.77171708       9.37583519       2.65198820      -0.00477545       0.00788826       0.00325885
H        6.12030010       5.25349946       5.65784136       0.00815825      -0.00065439       0.00097604
H        6.61011865       5.57038488       4.00454272      -0.00500656       0.00112504      -0.00265875
H        7.73601935       5.83397668       5.35915962       0.00475448       0.00120945      -0.01145393
H        9.51049125       8.42703662       6.93411529       0.00357434      -0.00862111      -0.00117978
H        7.88207716       8.97321684       7.17818505       0.00130144      -0.01953812       0.00744367
H        8.18953127       7.25114561       6.99335044       0.00984693      -0.01567090      -0.00952218
F       13.71066661      13.88555846      -0.09951165      -0.00252628      -0.00333551      -0.04935060
O       10.59872537       1.26687758      10.75193885       0.01321167      -0.00614566       0.00747198
O       12.08993485       0.29522786       9.36958599      -0.01182467       0.01016742      -0.02975214
C       12.55307739       2.46844472      10.25356660       0.01421347      -0.00940013       0.00391428
C       11.74580456       1.22487352      10.07424922       0.00398684      -0.00056714      -0.00802663
H       12.03636181       3.29126686       9.75105252       0.01770274       0.00035360       0.01700448
H       12.64209569       2.70849299      11.31331518       0.02267425      -0.02379969       0.00607523
H       13.53599860       2.30070567       9.81852407       0.01018965      -0.01152726      -0.00346711
H       10.10119066       0.44106448      10.60206240       0.00504984       0.00076711      -0.00175688
O        6.54604109       3.67725833      13.02449127      -0.00047159      -0.00404900       0.01210698
O        7.37304526       1.68933940      12.40330804      -0.00291595       0.00609517      -0.02160111
C        8.86952231       3.56023352      12.62651663      -0.00280297       0.00273356      -0.00229235
C        7.55303247       2.85421790      12.67129022      -0.00244358       0.00129068      -0.00561455
H        8.98556624       3.97191941      11.62221777      -0.00388290       0.00777686      -0.00023654
H        8.89931280       4.38599174      13.33365623      -0.00231794      -0.00141054       0.00220031
H        9.67208676       2.84942488      12.79886362      -0.00260112       0.00213152      -0.00715652
H        5.73300576       3.14984194      13.03271946      -0.00030011      -0.00449955       0.01024193
O        9.20297580       4.54879981       7.46267439       0.00463355      -0.01586282       0.01108860
O       10.54599436       3.07998443       6.41381210       0.00332541      -0.00814527      -0.00075674
C       11.34184178       5.29880869       6.84124695      -0.00987601      -0.00002575      -0.02001529
C       10.34895460       4.19009218       6.87361067      -0.00005887      -0.00813752      -0.00233845
H       11.17286089       5.90192023       5.94567588      -0.02562133      -0.00525981      -0.02041346
H       11.22508152       5.94232583       7.71140021      -0.00437241       0.00304870      -0.02178797
H       12.34392849       4.88984888       6.76644723      -0.00744271       0.00846951      -0.03022033
H        8.65246811       3.74860993       7.57402910       0.01085392      -0.01936722       0.01702342
O        2.98106320       8.79050737       2.00608290       0.01494807      -0.00149947      -0.01133561
O        3.96221524       6.86968926       1.42678473      -0.00318480      -0.01470268       0.00549927
C        1.85182952       7.45724297       0.42152326       0.00946695       0.00209862      -0.00977027
C        3.03068370       7.64202770       1.30993108       0.00681606      -0.00610685      -0.00378702
H        1.43256444       6.46107551       0.58029293       0.01208925      -0.00103948      -0.02568009
H        1.11725194       8.24666844       0.54489364       0.00774580      -0.00085381      -0.00369908
H        2.17766882       7.46790950      -0.61827732       0.01367030       0.01824752      -0.00820187
H        3.76395889       8.82469183       2.57613877       0.01294959      -0.00629772      -0.00734171
O        4.36919619      13.09404080      12.01255341       0.00294071       0.02366671       0.02248579
O        5.44709612      11.75460135      10.58046784      -0.01222095       0.02138738       0.00627625
C        6.11488217      11.74722399      12.89111256       0.00003797       0.01003562       0.00750172
C        5.31814329      12.16294757      11.70818364      -0.00418917       0.02185473       0.02033055
H        6.83138938      12.54680396      13.09490661       0.00270270       0.00654379       0.01033984
H        5.49060870      11.65793900      13.77896597       0.00295007       0.00586028       0.00936292
H        6.64844207      10.82431808      12.67299720      -0.00334533       0.01029265       0.00058966
H        3.96616521      13.39651478      11.18270785       0.00015065       0.03006891       0.02808326
O        2.87229431      11.94833953       0.97535752      -0.01339322      -0.00503830      -0.00115901
O        1.04108105      10.73821414       0.51782008      -0.01989889      -0.02287090      -0.00913966
C        1.37734242      11.58123762       2.74631366      -0.00967357      -0.00838219       0.00286222
C        1.70789075      11.35627884       1.30576634       0.00187603       0.00275320       0.02076507
H        2.22506849      11.32284958       3.38087576      -0.00896868      -0.00598974       0.00327688
H        1.16451123      12.63999770       2.90196304      -0.01102105      -0.00894344       0.00311756
H        0.51206812      10.98296323       3.01173825      -0.00819196      -0.00904994       0.00478545
H        2.96466367      11.94476861       0.01085256      -0.01424748      -0.00671166       0.00334036
O        2.45561130      11.83574043       8.19214891      -0.00211108      -0.00195199       0.01193517
O        4.16806885      10.66637726       7.33434805      -0.00598013      -0.00389178       0.00905812
C        3.23941002      10.03180575       9.47193446      -0.00006808      -0.00117797       0.01155978
C        3.37686562      10.85097936       8.23114919      -0.00298154      -0.00199456       0.01017439
H        3.28086537      10.67759946      10.34419795       0.00362163      -0.00025417       0.01043098
H        2.25899269       9.55452021       9.48492249      -0.00026503      -0.00059914       0.01510393
H        4.02742388       9.28733789       9.52157333      -0.00056519      -0.00169539       0.00916994
H        2.44572926      12.29367581       7.32097138      -0.00512324      -0.00420871       0.01029646
O        8.56509008       7.26921202      11.13664187      -0.00303990       0.00797081       0.00030631
O        8.04473313       9.10714581      12.27399776      -0.00363266       0.00549793       0.00354260
C        6.30393372       7.53303411      11.85586213      -0.00242484       0.00474110       0.00206038
C        7.72722977       8.02716657      11.76773890      -0.00281680       0.00644392       0.00225022
H        5.88331097       7.49605561      10.84957984      -0.00207576       0.00373998       0.00207686
H        6.26949643       6.52166202      12.26226902      -0.00150615       0.00501016       0.00246236
H        5.70963092       8.20084756      12.47434030      -0.00315567       0.00449599       0.00156441
H        9.88432435       7.95604026      11.19865757      -0.00297147       0.00937797      -0.00422063
O       11.65303948      12.58539575       0.35140904       0.01104689      -0.00517190       0.00897932
O       11.76698344      11.03404956      -1.21161060      -0.00585255       0.01147372      -0.00735247
C       10.39957159      10.60211220       0.72332287       0.01382136      -0.00799745       0.00186205
C       11.32489101      11.47731171      -0.05478208       0.00554931      -0.00035846       0.00179302
H       10.06463514      11.13318155       1.60918157       0.00717408      -0.00901903      -0.00025412
H        9.54988704      10.29257879       0.11054445       0.01816592      -0.01988126       0.00230438
H       10.92178964       9.68811424       1.01504460       0.02530663       0.00007512       0.00651174
H       12.90761308      13.34893091      -0.01468083      -0.00027338      -0.00363755      -0.02460206
O       12.99448166      11.36684697       7.11437361      -0.00803202       0.00707543       0.01865506
O       14.24044337      12.88952867       6.03988027       0.00365806      -0.01026943       0.00853093
C       11.91969496      12.64311296       5.44948892       0.00152618       0.00754403       0.01261076
C       13.16537547      12.33693852       6.21806004      -0.00032002       0.00058165       0.01282521
H       11.97716512      12.14856227       4.47646877       0.00163178       0.01236303       0.01040770
H       11.04078562      12.28266222       5.97983198      -0.00062691       0.00872326       0.00946957
H       11.86201527      13.71356481       5.26399110       0.00583157       0.00861007       0.01775435
H       13.81399164      11.29812899       7.64031115      -0.00843397       0.00293889       0.01826504
O        8.64010120       1.89152976       7.82136854       0.00950050      -0.01658392       0.00382072
O        7.81694384       0.02421667       6.89081101       0.00581020      -0.00645471      -0.01111764
C        6.76020652       0.92092643       8.85914157      -0.00542194      -0.00980652      -0.01675713
C        7.75915676       0.86571710       7.75278529       0.00396872      -0.01132792      -0.00857860
H        7.06136293       1.60693408       9.64755911      -0.00602634      -0.01930438      -0.00855099
H        5.79775380       1.24147476       8.45499192       0.00202389       0.00347349      -0.02330758
H        6.61474952      -0.07573615       9.26464236      -0.01967364      -0.01079333      -0.02528705
H        9.29271631       1.85995986       7.08860264       0.01145226      -0.01373716       0.00510830
O        7.43261922       5.25263107      10.00547536      -0.00020033       0.00356858       0.00616574
O        6.50265422       6.70771169       8.57254876       0.00237189      -0.00050533       0.00076929
C        5.83794763       4.40937717       8.48360126       0.00429797      -0.00101048       0.00394797
C        6.61545378       5.58027153       9.01549395       0.00200990       0.00065815       0.00336236
H        6.42102046       3.92159851       7.69954031       0.00664543      -0.00111751       0.00591438
H        5.63726006       3.67009388       9.25368378       0.00353723      -0.00000821       0.00458151
H        4.90166473       4.76620869       8.06212243       0.00504248      -0.00254361       0.00110881
H        7.90160475       6.08486954      10.37757147      -0.00133217       0.00492957       0.00425911
O        1.66134115       4.76904984      10.52423810       0.00714320      -0.00841036      -0.00370219
O        3.13528410       3.11630115      10.17773742       0.00914426      -0.01074183       0.01965120
C        3.87074804       5.17395532      11.20268552       0.00413412       0.00018591      -0.00076327
C        2.89810007       4.22980956      10.58646592       0.00688934      -0.00785834       0.00651005
H        3.81665696       6.13680195      10.69523433       0.00601014      -0.00631200      -0.01305538
H        3.59410449       5.31703793      12.24755134       0.00032064       0.01326355      -0.00382358
H        4.87773247       4.77573420      11.14586310       0.00412919      -0.00055660       0.00818969
H        1.07924021       4.07995357      10.17545651       0.00755928      -0.01271057       0.00430952
O       10.02106140      11.80836720       9.68652430      -0.01076192       0.01008707      -0.02290246
O        9.98502678      10.72955888       7.72656557      -0.01934224      -0.00238216      -0.01499283
C        8.13284846      10.46831984       9.24591662      -0.00886148       0.00009009      -0.00268275
C        9.45277840      10.99040785       8.78056436      -0.01320446       0.00204268      -0.01416969
H        8.17705385       9.37939662       9.28800735      -0.00530734       0.00055140       0.00232117
H        7.86400388      10.84312094      10.22680634      -0.00439242       0.00429486      -0.00312570
H        7.36615834      10.74725505       8.52248023      -0.01401991      -0.00645908       0.00041507
H       10.90350079      12.13171222       9.36755277      -0.01444839       0.01214143      -0.03095342
O        2.57587466       6.85323039       4.33404229       0.00285256       0.00263619      -0.00056261
O        0.92428733       5.59090316       5.16180230       0.00326931      -0.00184193      -0.00700641
C        3.20010568       4.88165805       5.48517125       0.00394386       0.00480101       0.00198895
C        2.10868894       5.77208644       4.98895651       0.00345296       0.00136665      -0.00231895
H        3.84546340       4.60088757       4.65245344       0.00655439       0.00450741       0.00424564
H        3.78081183       5.42341257       6.23351755       0.00090344       0.00749116       0.00222105
H        2.75879364       4.00084061       5.94469887       0.00483358       0.00452794       0.00212476
H        1.79574953       7.35661191       4.03259441       0.00254834       0.00091887      -0.00242220
O        2.89906757       4.50860817       2.42542758      -0.00774240      -0.01284987       0.00188518
O        1.99660090       3.89885471       0.46802041      -0.02005700       0.01915196      -0.00229526
C        1.10710350       2.98528171       2.51559792      -0.01020318      -0.01149046      -0.01233518
C        2.03018633       3.80808184       1.67431163      -0.01310073       0.00007083      -0.00300789
H        1.66373447       2.47427436       3.29874403      -0.01060548      -0.01368455      -0.01379119
H        0.39846284       3.65367174       3.01103926      -0.01608795      -0.01882866      -0.01114227
H        0.58020933       2.27273332       1.88874861      -0.00455017      -0.00950918      -0.01917952
H        3.40450791       5.12412747       1.85600485      -0.00984395      -0.00575308       0.00771376
O       13.14782866       7.81237381       3.15354936       0.00944915       0.00684839       0.00089884
O       11.03515957       7.27254108       3.65713473       0.00621590       0.01435938      -0.00671835
C       12.22207549       8.81592180       5.08227312       0.00872658       0.00249293       0.00327867
C       12.03088377       7.89851521       3.92353465       0.00723493       0.00872988      -0.00148126
H       12.60929677       8.23350719       5.92045537       0.00982863      -0.00214306      -0.00048047
H       12.95527625       9.58892345       4.86804806       0.00890173       0.00325523       0.00706329
H       11.27822747       9.25939794       5.38863279       0.00905862       0.00084811       0.00622684
H       12.95887537       7.15877603       2.46318059       0.00874013       0.00996965      -0.00135124
O       10.81245686       8.43524167      11.20435554      -0.00295991       0.00904638      -0.00618372
O       12.97847607       8.00985975      11.27095869      -0.00315785       0.00751609      -0.00071376
C       11.49786839       6.13634304      11.46305390      -0.00581971       0.00852048      -0.00652215
C       11.83940708       7.59703673      11.30031867      -0.00450546       0.00795150      -0.00397804
H       10.83369414       5.99459388      12.31648425      -0.00633906       0.00821022      -0.00710534
H       10.95035066       5.77408755      10.59030338      -0.00608405       0.01081323      -0.00725044
H       12.41265886       5.56587931      11.59647841      -0.00694932       0.00683333      -0.00687330
H       11.42379994      10.13789733      11.66472031      -0.00500455       0.01193532      -0.01094519
O        6.47605551       2.66072147       5.56904543       0.01498991      -0.00069001       0.00046593
O        6.05780987       3.05950408       3.40467452       0.00678426      -0.00700721       0.00171119
C        8.13431494       1.99461919       4.02887682       0.00643325      -0.01034686      -0.00462218
C        6.79967014       2.61944241       4.24633908       0.00887096      -0.00559306      -0.00105339
H        8.91179123       2.66534642       4.40254983       0.00978278      -0.01509741      -0.00361711
H        8.20706033       1.07006830       4.60182983       0.00302598      -0.01242879      -0.00778797
H        8.28172546       1.81148203       2.96970848       0.00394853      -0.00794930      -0.00527588
H        5.59300471       3.05592000       5.61874435       0.01617527       0.00149548       0.00236087
O        2.39345867       8.42175581       6.96747346      -0.01829255       0.01368400      -0.00056912
O        3.18229738       6.72671172       8.20623293       0.00533646       0.02012643      -0.00724283
C        0.83232436       7.25616218       8.27873035      -0.00047147      -0.00836646       0.00095689
C        2.25145121       7.41054882       7.85338274      -0.00369412       0.00975478      -0.00294703
H        0.34961072       8.22334046       8.41171290      -0.01130429      -0.01441228       0.00442807
H        0.31635669       6.72413679       7.47873722       0.00302871      -0.01298499       0.00193691
H        0.78183237       6.68117104       9.19674224       0.00900416      -0.01100042      -0.00039041
H        3.34187972       8.54026134       6.79621677      -0.02012187       0.02721361      -0.00152450
O        3.74925626       1.13254152       2.41322921      -0.00131217      -0.00690715      -0.00018108
O        5.45416168      -0.22205013       2.96684170      -0.00261962      -0.00514966       0.00727376
C        4.07375793       0.71367298       4.69900409       0.00002944       0.00820498       0.00188142
C        4.53032223       0.48962060       3.29148668      -0.00179636      -0.00185150       0.00297984
H        3.74464513       1.74231511       4.83975139       0.00583081       0.01072806      -0.00406655
H        3.19710261       0.08831934       4.88158073      -0.00265145       0.01351956       0.00638337
H        4.85920708       0.44563432       5.40058549      -0.00071226       0.00840982       0.00262100
H        3.94740086       0.79369820       1.52613340      -0.00174841      -0.01222932       0.00097886
