199
Lattice="13.290765507133043 0.0 0.0 0.0 13.290765507133043 0.0 0.0 0.0 13.290765507133043" Properties=species:S:1:pos:R:3:forces:R:3 energy=-171044.328125 stress="-0.001882706768810749 -0.00045973881788086146 0.00015577142039546743 -0.00045973881788086146 -0.001729602925479412 -0.00020989476615795866 0.00015577142039546743 -0.00020989476615795866 -0.0039003603160381317" pbc="T T T"
N        9.14653063      11.55620785       3.74986412       0.00318949       0.00963244       0.00024894
C        9.84766584      11.93104260       5.03778375       0.00225076       0.00830975       0.00100976
C       10.02092610      10.65385269       2.89229499       0.00658414       0.01421642      -0.00052458
C        8.87823893      12.82035896       2.95275871      -0.00025860       0.01109600       0.00451627
C        7.85717257      10.84411975       4.10168459       0.00556827       0.00465965      -0.00301511
C       11.10444023      12.75640394       4.88658177      -0.00570831       0.02067153       0.00374744
C       10.35786480       9.29578250       3.45585340       0.00254135       0.01079595      -0.00707506
C        8.01481487      12.61956213       1.73152486      -0.00027618       0.01463506       0.00423136
C        6.74836721      11.71464497       4.65451300       0.00283712      -0.00119501       0.00003736
H        9.10571136      12.47186954       5.62135825      -0.00086375      -0.00149882       0.00516258
H       10.05384558      10.98758870       5.54445856       0.01188911       0.00745654      -0.00501682
H        9.49491994      10.54989071       1.94794848       0.01226683       0.02051581      -0.00414190
H       10.92519364      11.22394710       2.70045689       0.00816831       0.01429373       0.00854089
H        8.43884212      13.53248822       3.65172626      -0.00177361       0.00737932       0.00719967
H        9.85954401      13.18189743       2.65274868      -0.00159988       0.01506796       0.00583180
H        7.53176675      10.35252516       3.18953894       0.00781533       0.00740335      -0.00522849
H        8.12798416      10.06767142       4.81603494       0.00775588       0.00292520      -0.00600864
H       11.54262329      12.86285745       5.87961529      -0.00381879       0.01704775       0.00301602
H       11.85504939      12.28904692       4.25415971      -0.00368126       0.03234196      -0.00188573
H       10.90261041      13.75478289       4.50229977      -0.01637211       0.02142729       0.01269427
H       10.97852748       8.80417535       2.70480615       0.00777492       0.01618389      -0.00586054
H       10.94020699       9.34044747       4.37389539      -0.00409026       0.00426065      -0.00288501
H        9.48792967       8.66341184       3.63198454       0.00142723       0.00975799      -0.01741789
H        7.87552503      13.59424366       1.26713013      -0.00256112       0.01667500       0.00955047
H        8.49262243      11.98563777       0.99223647       0.00069664       0.01940840       0.00094719
H        7.02474124      12.22470896       1.95112013       0.00087130       0.01147819       0.00250395
H        5.90833468      11.06518902       4.90415122       0.00580904      -0.00491466      -0.00023094
H        7.02483264      12.23469523       5.56892147       0.00179762      -0.00226795       0.00074530
H        6.39257150      12.44743937       3.93340657      -0.00078440      -0.00100948       0.00226671
Br      12.42637571      12.04524687       0.54380444      -0.00019747      -0.00464942       0.00134842
O       12.82070220      10.51024362       0.91401293      -0.02007926      -0.00658464       0.01117702
O       12.39140437      12.92451776       1.92064486       0.00697397       0.00345773      -0.00427914
O       13.51348750      12.66333974      -0.48683151       0.01026100      -0.02387398       0.00138307
O       10.92949756      12.07734977      -0.09987936       0.00287735       0.00922238      -0.00359446
C        6.05046331       4.10327661      10.57934514       0.00022861       0.00781569       0.00348937
C        7.33766368       4.63577265      10.48055489      -0.00117269       0.00819743      -0.00683048
C        5.83967727       2.80182501      10.12541491       0.00128561       0.00075196       0.02169508
C        4.91827502       4.91826142      11.12924168       0.00006160       0.01219070      -0.00472377
C        8.38055779       3.89621576       9.93437213      -0.00123709       0.00236931       0.00248523
C        6.87814440       2.06216529       9.57582505       0.00317268      -0.00381674       0.03071807
C        8.15252008       2.60484445       9.47425415       0.00032358      -0.00332362       0.02249898
H        7.52464336       5.64143071      10.84236531      -0.00288715       0.01351373      -0.02140646
H        4.84904700       2.36817923      10.20107847       0.00354667       0.00063275       0.03126214
H        4.12225449       4.27918546      11.50989773      -0.00040010       0.01617172       0.00038630
H        5.25068662       5.56566532      11.94114928      -0.00015280       0.01910512      -0.01009445
H        4.49078363       5.56391051      10.35656962       0.00073346       0.00587912      -0.01011273
H        9.37146974       4.32872910       9.86995391      -0.00156513       0.00386311      -0.00536378
H        6.68699023       1.06333506       9.20973720       0.00384950      -0.01052088       0.04725950
H        8.95749226       2.03284595       9.02957088       0.00295974      -0.00916886       0.03116276
C        6.69012955      11.26326484       8.15838113       0.00300537      -0.00053813      -0.00534220
C        5.41956051      11.82743890       8.27091044       0.00242595      -0.00734709      -0.01788715
C        6.79139518       9.87506260       8.07453782       0.00689228      -0.00524251      -0.00004393
C        7.91694550      12.12752505       8.18319179       0.00213656      -0.00123000       0.00167637
C        4.28983257      11.02550655       8.33961790       0.00405829      -0.00394347      -0.02379453
C        5.65999459       9.06939617       8.13059906       0.00853607      -0.00285733      -0.00449971
C        4.40475508       9.64324226       8.27521149       0.00658640      -0.00913505      -0.01639328
H        5.31362644      12.90556306       8.32983492       0.00062708      -0.00402253      -0.02386656
H        7.76946175       9.41573412       7.99050278       0.00778805      -0.00152267       0.00798583
H        8.78336336      11.60411683       7.77795926       0.00335324       0.00324404       0.00077559
H        7.77233071      13.05548837       7.62414755       0.00136466       0.00293335       0.00800191
H        8.16616801      12.40958561       9.21036555      -0.00034649      -0.00782999       0.00392070
H        3.31812106      11.47790343       8.46780434       0.00163783      -0.00840110      -0.03586970
H        5.76405459       7.99264727       8.08246577       0.01041597      -0.00524898       0.00007282
H        3.52216605       9.02124089       8.35832566       0.00774201      -0.00764670      -0.02082389
C        3.72428616       6.74422589       4.79555973       0.01029029      -0.00698436      -0.00708071
C        2.76774049       7.55279492       5.40964513       0.00282567       0.00755106      -0.00472540
C        3.30974698       5.88654433       3.77851166       0.00034292      -0.00553668       0.00957173
C        5.16107063       6.81271373       5.21533903       0.00776953       0.00126775      -0.00505489
C        1.44051530       7.51399039       5.01184931       0.01407324      -0.00403110      -0.00663023
C        1.98453952       5.86548823       3.36096092       0.00927877      -0.01707786       0.00734698
C        1.04381152       6.68125198       3.97434362       0.00131609      -0.00217188       0.01101243
H        3.07271855       8.23819573       6.19197456       0.01203878       0.00978320      -0.01456194
H        4.04138005       5.24991367       3.29531479       0.00457353      -0.01522500       0.00840486
H        5.81125155       6.32882212       4.48731085       0.00626691      -0.00727850      -0.00293507
H        5.47839122       7.84953569       5.34181523       0.00963597       0.00062719      -0.01576962
H        5.31518926       6.30540009       6.16979943       0.00964677       0.00958711      -0.00164464
H        0.71518614       8.14522718       5.50060654       0.00812374       0.00707293      -0.00445906
H        1.68550523       5.22240679       2.54176849       0.00105773      -0.01932436       0.01803021
H        0.01002386       6.67576563       3.64937127       0.00529449      -0.01100793       0.00917693
C        2.92409117       2.16741957       0.86388865      -0.00503640      -0.00316096      -0.00637170
C        3.67573919       3.32569840       1.05792209      -0.00349097      -0.00344774      -0.00562077
C        3.60421935       0.98906304       0.54176226      -0.00608803      -0.00204623      -0.00994572
C        1.43210337       2.17731215       0.99297664      -0.00432122      -0.00229540      -0.00372135
C        5.06078781       3.31966775       0.93694435      -0.00470028      -0.00472271      -0.00871287
C        4.98736725       0.97767531       0.41180266      -0.00719419      -0.00358970      -0.01250204
C        5.72215870       2.14510067       0.60542287      -0.00553696      -0.00362023      -0.01156387
H        3.16212119       4.24451791       1.31225096      -0.00255660      -0.00390772      -0.00254913
H        3.03338627       0.07926976       0.38824463      -0.00740165      -0.00162667      -0.01117020
H        1.08398569       1.38052557       1.65263638      -0.00288310       0.00064397       0.00032960
H        1.07307041       3.13167846       1.37748297      -0.00403789      -0.00088692      -0.00759326
H        0.95330869       1.99248036       0.02951517      -0.00581170      -0.00675802      -0.00197139
H        5.62653400       4.22939274       1.10536117      -0.00360578      -0.00456578      -0.00989587
H        5.49357689       0.05369011       0.15891235      -0.00805637      -0.00248782      -0.01609022
H        6.79965488       2.14626850       0.49890433      -0.00665879      -0.00420517      -0.01629235
C        1.35113517      11.98767407       6.30480405      -0.02289968      -0.00300176      -0.00050463
C        2.31444226      12.60062463       5.50639009      -0.00399649       0.01892163      -0.00001267
C        0.57629923      10.97292425       5.74257273      -0.00065149       0.01757562       0.00251001
C        1.10269061      12.44508115       7.71222936      -0.00736456       0.00935458       0.00099206
C        2.47103593      12.23991905       4.17208293      -0.02413857      -0.00445152      -0.00485605
C        0.71566623      10.62609657       4.40605940      -0.01601375      -0.00039453       0.00212417
C        1.65657226      11.26594161       3.61338642       0.00195849       0.01922418       0.00668833
H        2.93876792      13.37426241       5.93812594      -0.01687883       0.00869903      -0.00300946
H       -0.16002094      10.46706423       6.35822328      -0.01159916       0.00489215       0.00327412
H        0.99066563      11.60575792       8.40181691      -0.00948203       0.00572665      -0.00015123
H        1.90662846      13.08653245       8.07227578      -0.00905633       0.00529097       0.00107892
H        0.17997799      13.02769779       7.77505628      -0.00907615       0.00805372       0.00289615
H        3.21277256      12.73312563       3.55652026      -0.01025762       0.01111565      -0.00174324
H        0.08999660       9.86009770       3.96582173      -0.00623141       0.00617887       0.00359936
H        1.73808927      11.00554913       2.56902591      -0.00841265       0.00276836      -0.00037408
C        7.97667093       9.51543543      12.30028446       0.00030948      -0.00204973       0.00843392
C        7.86202314      10.88700726      12.07265582       0.00500050      -0.00657380       0.00566459
C        6.88801678       8.70403840      11.98392313      -0.00244057      -0.00317219       0.00600202
C        9.19949671       8.93634805      12.94435690      -0.00388235      -0.00710684       0.01200911
C        6.65719495      11.43963054      11.65175001       0.00931627      -0.00015643      -0.00268303
C        5.68826801       9.24836276      11.55090754       0.00299115       0.00435175      -0.00162636
C        5.55595186      10.62451897      11.42418973       0.00811312      -0.00189886      -0.00689543
H        8.72670015      11.51983466      12.23698164       0.00622557      -0.00677764       0.00798992
H        6.97307083       7.63177580      12.12369200      -0.00612360      -0.00057370       0.00914283
H        9.46457981       7.97163334      12.51576782      -0.00530228      -0.00769562       0.01359963
H       10.06155596       9.59711308      12.85461859      -0.00200844      -0.00908095       0.01308964
H        9.01121840       8.76755805      14.01086718      -0.00646852      -0.00486004       0.01176009
H        6.57725494      12.51114857      11.50283700       0.01366071      -0.00282964      -0.00529423
H        4.84435583       8.60138766      11.34816867       0.00117627       0.00316808      -0.00485963
H        4.60745903      11.05458082      11.13399683       0.01139826       0.00344245      -0.01536794
C       11.40768490      10.13496312      10.19357574      -0.00327160      -0.00340806       0.00237471
C       12.44337330       9.33597007      10.67840707      -0.00025937       0.00216922       0.00112897
C       10.20677749       9.51482758       9.84754096      -0.00227052      -0.00569274       0.00539423
C       11.57556495      11.61590849      10.02093466      -0.00868897      -0.00274569      -0.00022833
C       12.28638490       7.95821604      10.79380915       0.00387172       0.00020275       0.00358163
C       10.04935686       8.14068540       9.94807732       0.00244537      -0.00851472       0.00849069
C       11.09254977       7.35415470      10.41897433       0.00560620      -0.00187705       0.00729344
H       13.36959609       9.80593187      10.99034230      -0.00149116       0.00453212      -0.00130940
H        9.38038316      10.12531842       9.50528128      -0.00425217      -0.01027376       0.00658732
H       10.69707179      12.15502960      10.37587059      -0.00647721      -0.00473512       0.00725140
H       12.43560861      11.99004853      10.57347664      -0.00493477      -0.00074460      -0.00795230
H       11.71373272      11.86674776       8.96446236      -0.01875118      -0.00313251      -0.00138825
H       13.09789322       7.35563959      11.18311391       0.00692828       0.00435752       0.00248695
H        9.10749146       7.68681617       9.66189910       0.00338086      -0.01013511       0.01095605
H       10.97461431       6.28067091      10.50248764       0.00893400      -0.00345521       0.00994829
C       11.88921199       6.00387905       6.82015853       0.00595933      -0.00214966      -0.00081897
C       10.64198666       5.75414756       6.24969185       0.00547062      -0.00049053      -0.00218263
C       12.18781112       7.31145421       7.20550167       0.00368296      -0.00086680       0.00052243
C       12.89154801       4.90574090       7.01407188       0.00628126      -0.00042135      -0.00039212
C        9.70895301       6.77305229       6.08240381       0.00776736      -0.00397683      -0.00237473
C       11.26636033       8.33261735       7.03388282       0.00435802      -0.00282812       0.00089721
C       10.01881593       8.06188927       6.48706673       0.00329110      -0.00260594      -0.00218709
H       10.39183331       4.74327269       5.95055075       0.00748117      -0.00255308      -0.00267097
H       13.14253089       7.52123629       7.67196703       0.00325797      -0.00112671       0.00138589
H       13.42010766       5.02260939       7.96100909       0.00602728      -0.00003010      -0.00061239
H       12.41514343       3.92557220       7.00378487       0.00688919      -0.00085135      -0.00003907
H       13.64296182       4.92170015       6.22016863       0.00620455      -0.00048397      -0.00024706
H        8.73873696       6.55397716       5.65264144       0.00630064      -0.00360063      -0.00387371
H       11.50051526       9.33034988       7.38175596       0.00171252      -0.00303005       0.00219686
H        9.28321862       8.85163267       6.38979526       0.00444754      -0.00372648      -0.00230640
C        3.15445521       8.25595497       0.69059907      -0.00709243       0.00139092      -0.00262461
C        4.12726356       7.28029424       0.90382474      -0.00703879      -0.00780424      -0.00109722
C        3.47922864       9.58520658       0.96148781      -0.00298786      -0.00685230       0.00034848
C        1.78359926       7.89062247       0.20907064      -0.00462186      -0.00020370      -0.00672113
C        5.38178302       7.61529224       1.39188744      -0.01084511      -0.00444693       0.00460485
C        4.73179143       9.92773517       1.45321520      -0.00691221      -0.00476232       0.00525806
C        5.68527697       8.94064673       1.66724035      -0.00785470      -0.01359196       0.00817169
H        3.89349748       6.24619177       0.68064062      -0.00966592      -0.00286693      -0.00369271
H        2.74080621      10.35457278       0.76528291      -0.00211855      -0.00117200      -0.00105715
H        1.41765411       8.60280226      -0.53038138      -0.00394849       0.00482972      -0.00295840
H        1.76978338       6.88860448      -0.22100384      -0.00442037       0.00332415      -0.01251745
H        1.06964626       7.91250419       1.03626129      -0.00595482      -0.00457537      -0.00768754
H        6.13337295       6.84778819       1.53899875      -0.01192810      -0.01089460       0.00630596
H        4.96641863      10.97009722       1.63839700      -0.00417692      -0.00895032       0.00904045
H        6.68412499       9.19632945       1.99153482      -0.01049704      -0.01235375       0.01606922
C       11.19229586       3.75674070       2.45612552      -0.00382014      -0.00819702      -0.00129016
C       10.68941250       5.01839864       2.12951569      -0.00911340      -0.00792778       0.01402702
C       10.68048425       2.64485281       1.78746195       0.00653481      -0.00305310      -0.01540945
C       12.25043987       3.58911439       3.50496061      -0.00584728      -0.01420775       0.00051507
C        9.68708703       5.16183470       1.17726762      -0.00868262      -0.00207922       0.01041972
C        9.67737063       2.78543971       0.83569841       0.00706057       0.00392246      -0.01845421
C        9.16927661       4.04327496       0.53227303       0.00279719       0.00289649      -0.00300199
H       11.09283939       5.89776906       2.62082531      -0.01788202      -0.01222882       0.02561842
H       11.10506875       1.66762135       1.98784180       0.01047070      -0.00222234      -0.02633900
H       12.70968198       2.60284788       3.44797330      -0.00327407      -0.01232338      -0.00595118
H       13.03447032       4.33882650       3.41147188      -0.00775507      -0.01144609       0.00814829
H       11.83107593       3.70685691       4.50672688      -0.00859100      -0.02292120       0.00014392
H        9.32229523       6.15012440       0.92475903      -0.01291083      -0.00196880       0.02275983
H        9.31527213       1.91009048       0.30921604       0.01471546       0.00769752      -0.02887587
H        8.39591586       4.15064916      -0.21857436       0.00344392       0.00804085      -0.00583687
C        5.61466435       2.54152288       4.85796790       0.00227590      -0.00158067      -0.00126518
C        6.86191947       2.76051322       4.27242361       0.00399215       0.00238467      -0.00045715
C        5.35561072       3.10551546       6.10776579       0.00525717      -0.00607796       0.00208087
C        4.59437720       1.67185982       4.19686503       0.00290936       0.00226492      -0.00465192
C        7.84059412       3.49510601       4.93411222       0.00189348      -0.00251927       0.00223055
C        6.32889909       3.83565316       6.77112566       0.00303105      -0.01188606       0.00387117
C        7.57808605       4.01990870       6.19403270       0.00462921      -0.00796178       0.00528228
H        7.05980223       2.36123092       3.28324971       0.00217249       0.00656472      -0.00262945
H        4.38029102       2.96532032       6.56163139       0.00373420      -0.00871278       0.00112654
H        3.57954419       2.03213844       4.37023482       0.00378230       0.00766921      -0.01100267
H        4.75393517       1.59771895       3.12300991       0.00799324      -0.00086430      -0.00345916
H        4.65091172       0.66427690       4.61496099      -0.00470255       0.00316036      -0.00194988
H        8.79977744       3.65732471       4.45359387       0.00253642       0.00135942       0.00223023
H        6.12271412       4.25773724       7.74617968       0.00438343      -0.01473557       0.00663263
H        8.33176180       4.57188474       6.73582671       0.00384894      -0.00983616       0.00631349
