199
Lattice="12.898805575470677 0.0 0.0 0.0 12.898805575470677 0.0 0.0 0.0 12.898805575470677" Properties=species:S:1:pos:R:3:forces:R:3 energy=-92346.9296875 stress="-0.000185692886589095 -0.0002851693134289235 3.3675070881145075e-05 -0.0002851693134289235 -0.0006201118230819702 -6.59824363538064e-05 3.3675070881145075e-05 -6.59824363538064e-05 -0.0008051781915128231" pbc="T T T"
N        9.94967402      11.40246560       1.87885432       0.00134301       0.00588089      -0.00608015
C        9.52932334      10.23212439       2.71235524       0.00124130       0.00561476      -0.00648010
C       10.52754289      11.01720423       0.53703139      -0.00083643       0.00608027      -0.00702173
C       10.97080164      12.18074185       2.63121736       0.00278169       0.00449580      -0.00656018
C        8.74505999      12.25995594       1.65641337       0.00179279       0.00694418      -0.00412294
H        8.75045983       9.68791232       2.18329074       0.00099508       0.00620575      -0.00659078
H       10.38821653       9.58539399       2.87930800       0.00116144       0.00511347      -0.00742451
H        9.13091066      10.59200714       3.65948704       0.00218595       0.00501081      -0.00608480
H       11.70447913      12.32053221      -0.46090035      -0.01156251       0.00311442      -0.00985457
H       11.42304782      10.43035434       0.76255041      -0.00145352       0.00494829      -0.00872229
H        9.80393883      10.30761196       0.12608754      -0.00245225       0.00719923      -0.00632432
H       11.22261987      13.06447795       2.05397039       0.00268679       0.00484204      -0.00560826
H       10.56108041      12.46952096       3.59687249       0.00420380       0.00384763      -0.00590619
H       11.84365735      11.54448411       2.76650753       0.00261170       0.00366940      -0.00828174
H        9.04661292      13.15463860       1.12180760       0.00137419       0.00632052      -0.00520632
H        8.01919952      11.69445936       1.07563860      -0.00002241       0.00727952      -0.00222349
H        8.32011687      12.52517721       2.62229619       0.00413857       0.00822448      -0.00351003
O       12.34882300      12.89379525      -0.95521992      -0.01420867       0.00569967      -0.01328984
H       13.12570191      12.93428075      -0.39172388      -0.00884972       0.00360999      -0.02493590
O        3.64531257       2.11972436       2.40145720       0.01013449      -0.00645670      -0.01540333
C        4.79917269       2.29193625       3.22283374       0.00254980      -0.00446209      -0.00571865
C        5.58958121       1.00880475       3.37066043       0.00541854      -0.00199848      -0.00202732
H        5.43170710       3.08849159       2.81382501       0.00290090      -0.00165150       0.00097772
H        4.42443889       2.62491133       4.19138393      -0.00607763      -0.00749450      -0.00815278
H        6.50765317       1.18102035       3.93784529       0.00124641      -0.00068923       0.00385812
H        4.99373038       0.25951633       3.89521470       0.00455795      -0.00490623      -0.00724368
H        5.86049176       0.60345775       2.39312663       0.01227002      -0.00020453      -0.00075248
H        3.95307180       1.75061942       1.56749440       0.01758245      -0.00752259      -0.01224102
O        9.91668814       2.20833215       2.97457955       0.00064294      -0.00491798       0.01353425
C        9.63645349       3.61056194       2.92385156       0.00303671      -0.00347170       0.00441469
C        8.15069667       3.88859890       2.81242707       0.00381345      -0.00281381       0.00430467
H       10.07110735       4.12087556       3.78827522       0.00305361      -0.00152676       0.00343013
H       10.16501760       3.97524709       2.04291153       0.00315252      -0.00506343       0.00394350
H        7.95855188       4.96258980       2.81237783       0.00369630      -0.00296707       0.00032019
H        7.73904188       3.45148425       1.90104269       0.00282836      -0.00592772       0.00496350
H        7.61358233       3.45605459       3.65786262       0.00280306      -0.00011937       0.00523430
H        9.61821814       1.87984836       3.82849673       0.00782876       0.00093640       0.00451985
O       12.97639149       1.15456944       9.22321148       0.00365423      -0.00779086       0.03521681
C       12.25757474       2.36096795       8.97831907       0.00580990      -0.01325336       0.03228459
C       10.76417458       2.14243123       8.83843944       0.00861216      -0.00906789       0.01091362
H       12.44209502       3.08487339       9.78287431      -0.00076421      -0.01131919       0.03086439
H       12.67970571       2.78778490       8.06846682       0.02016449      -0.01488160       0.03331155
H       10.23564778       3.09588400       8.78534250       0.01485355      -0.00761485      -0.00134138
H       10.54049346       1.57019116       7.93262011       0.02001978      -0.01465938       0.01359691
H       10.37676371       1.59340581       9.69762699      -0.00466353      -0.00257911       0.00929122
H       12.68124856       0.79233690      10.07240802      -0.01282068      -0.01550016       0.04333862
O        7.42118651       1.33612637      11.97193843      -0.00009069       0.00055718      -0.01328480
C        7.99598944       2.45982728      11.31509358      -0.00498062       0.00947094      -0.00145731
C        9.25262042       2.96254851      12.00033649      -0.00294590       0.00257733      -0.00109485
H        8.22768266       2.21194592      10.27311382      -0.00974943       0.02351867      -0.00565583
H        7.23185131       3.24105132      11.29291822      -0.00643289       0.00761688       0.01232465
H        9.66101544       3.80988428      11.44611289      -0.00531856       0.00900809       0.00733897
H        9.03169582       3.27710822      13.01987332       0.00158069      -0.01003998       0.00338790
H       10.01116857       2.17751954      12.04484473      -0.00194135       0.00338556      -0.01371766
H        8.00144363       0.58381138      11.76507592       0.00324589       0.00499405      -0.01875706
O        9.87388900       7.05336633       4.38594918      -0.00317132       0.00166053      -0.00760600
C       10.59667080       6.58952907       5.52840495      -0.00505978       0.00373204      -0.00859484
C       11.53909677       7.63570009       6.09659589      -0.00717410       0.00443923      -0.00646137
H        9.90931957       6.24204109       6.31008238      -0.00284192      -0.00071356      -0.00940844
H       11.17204835       5.73229958       5.18021525      -0.00150132       0.00542358      -0.01066662
H       12.13779444       7.20367706       6.90257877      -0.00607732       0.00468671      -0.00723115
H       12.21550137       7.99617284       5.31847144      -0.00850813       0.00829257      -0.00558071
H       10.99209723       8.48833059       6.50510912      -0.00978638       0.00210465      -0.00464050
H        9.12890889       7.60803428       4.65742119      -0.00691804       0.00538926      -0.00546250
O        1.44815039       5.88667708       1.44754349       0.01650947       0.00478628       0.00609255
C        1.28848822       7.26414288       1.08038214       0.00222689       0.00164579      -0.00362447
C        1.00693915       8.14476151       2.27761493      -0.00498457       0.00484633      -0.00790298
H        2.17670868       7.60713840       0.53815411       0.00127661       0.00575046      -0.00265974
H        0.45283480       7.27717380       0.38226922       0.00440058      -0.00724360      -0.00510174
H        0.81393308       9.16952902       1.95383182      -0.01110074       0.00257576      -0.01187777
H        0.13314125       7.77840572       2.82002358      -0.00450198       0.00139856      -0.00790176
H        1.85122646       8.17224826       2.96907721      -0.00727914       0.01240579      -0.00619708
H        2.28217564       5.80147541       1.92007921       0.00456330       0.01418559       0.00665636
O        4.51590248      11.24374237      11.15423933      -0.00044769       0.02306676       0.00959349
C        5.91496197      11.11705999      10.83477226      -0.00176466       0.01071435       0.00983861
C        6.13972247      10.36195778       9.54618365      -0.00798446       0.00943694       0.00972360
H        6.37876557      12.10476074      10.80525425       0.00610773       0.00682342       0.00933045
H        6.36132944      10.57691222      11.67097867      -0.00573297       0.00718117       0.00966695
H        7.21118209      10.24897217       9.38092033      -0.00887604       0.00678585       0.00634881
H        5.69340144       9.36826585       9.58156200      -0.01073226       0.01066522       0.01149110
H        5.72484071      10.89467733       8.69169044      -0.00936722       0.01024258       0.01110204
H        4.18546638      12.04222833      10.72905529       0.00728591       0.02758238       0.01302758
O        5.09344284      11.42434327       0.98148910       0.00033909       0.00797921       0.00777608
C        4.17177760      10.82078585       1.87088964      -0.00057441       0.00104454       0.00183564
C        2.78247188      11.42658515       1.78383716       0.00075096       0.00418076       0.00811999
H        4.11822399       9.73500111       1.70135123      -0.00187437       0.00305772      -0.00929596
H        4.58236657      10.96671545       2.87255743       0.00019768      -0.01027991       0.00277683
H        2.13295524      10.99700660       2.54912144      -0.00049455      -0.00380540       0.00235976
H        2.82572466      12.50599813       1.93659326       0.00219721       0.00209731       0.02007452
H        2.33754264      11.22110660       0.80558658       0.00130722       0.01640328       0.00572191
H        4.73290415      11.37449763       0.07768907       0.00181077       0.01377254       0.00714026
O        3.76870199       2.17817639      10.39684666      -0.03292990      -0.01777287      -0.01713729
C        3.62547955       2.81323281      11.66507672      -0.01959471      -0.02591574      -0.01286750
C        2.75309657       4.05028030      11.61198838      -0.00588232      -0.01713580       0.00154375
H        3.21277671       2.10684900      12.39801358      -0.02312160      -0.02520680      -0.01521000
H        4.63993387       3.06173561      11.98461020      -0.01494712      -0.03636187      -0.01267792
H        2.62924742       4.49170830      12.60145229       0.00130124      -0.02346670       0.00400546
H        3.19244150       4.79987173      10.94999789      -0.00075711      -0.01611260       0.00488272
H        1.75456075       3.79144745      11.24824377      -0.01003963      -0.00326504       0.00206906
H        2.89386339       2.08548852       9.99972575      -0.02414116      -0.01548865      -0.00887475
O        2.51262166       8.86656238       5.37582816      -0.00764632       0.00152254      -0.00111198
C        3.58750639       9.54122857       6.02445376      -0.00578754       0.00246075      -0.00314634
C        3.10626627      10.57436547       7.02155911      -0.00436988       0.00330392      -0.00416011
H        4.25229590       8.81734694       6.51631338      -0.00963697       0.00359464       0.00059384
H        4.15360462      10.01369135       5.21847862      -0.00240393      -0.00048111      -0.00232273
H        3.95001982      11.08896685       7.48578206      -0.00396240       0.00193522      -0.00238078
H        2.46568061      11.31342825       6.53923595      -0.00107567       0.00528793      -0.00562176
H        2.54176437      10.10446016       7.83074549      -0.00759482       0.00480999      -0.00401808
H        1.96422010       8.46299050       6.05659497      -0.00552669       0.00760722      -0.00839278
O        9.03470713       5.22377504       9.22979370       0.01230884       0.00682557      -0.00959337
C        9.63133242       6.44973009       9.62931121       0.01101416       0.00437711      -0.00043927
C       11.11523624       6.21437936       9.79836573       0.00947499       0.00211285       0.00725707
H        9.46137880       7.21918128       8.86607422       0.01660110       0.00805750       0.00207862
H        9.19017318       6.81212947      10.56673142       0.00583357       0.00076634      -0.00168377
H       11.62310430       7.14062382      10.07339676       0.00826002       0.00012459       0.01522260
H       11.29828347       5.47256895      10.57786480       0.00396084      -0.00212951       0.00453523
H       11.54631256       5.83744235       8.86881774       0.01500788       0.00640170       0.00821941
H        8.17342803       5.41396456       8.82900231       0.01036024       0.00765534      -0.00417410
O        8.65769714       7.74507254       0.01355484       0.00594980       0.00006092      -0.00415732
C        9.19607824       6.84702005       0.98716129       0.00094146      -0.00032488      -0.00150435
C       10.70639852       6.81706348       0.95278879       0.00083339      -0.00486266       0.00161495
H        8.84946370       7.11434118       1.99165298       0.00008044       0.00261903      -0.00282019
H        8.78130234       5.86805249       0.74137092      -0.00152192       0.00066611      -0.00063954
H       11.10384681       6.17850117       1.74308291      -0.00275535      -0.00381401       0.00422388
H       11.06432453       6.46159633      -0.01475928       0.00190463      -0.00838003       0.00331196
H       11.10154207       7.82345832       1.11909725       0.00342108      -0.00572938       0.00001851
H        9.16168298       8.56360992       0.07851670       0.01043886      -0.00291245      -0.00648329
O        9.82087001      12.39364759       5.87307545       0.00425541       0.01390195       0.00246936
C       10.77561508      11.37771912       6.21055606       0.00076982       0.00822347      -0.00041918
C       12.19476488      11.89311499       6.29645953       0.00072521       0.00519946       0.00818815
H       10.48417493      10.89442327       7.15119970      -0.00397764       0.00555718      -0.00371581
H       10.68663036      10.62792976       5.42218074       0.00433841       0.00953250      -0.00316840
H       12.87756915      11.05900812       6.47176652      -0.00064301       0.00460401       0.00731153
H       12.48502478      12.37894099       5.36337484       0.00569221       0.00967719       0.01086655
H       12.32070056      12.60387272       7.11634509      -0.00156840       0.00218588       0.01135394
H        9.85140553      13.05800247       6.56987604       0.00014795       0.00318019      -0.00539777
O        4.15519854       1.14224914       6.88286490      -0.00546589       0.00765890       0.00091892
C        5.44542387       1.66273939       7.18615811      -0.00466529       0.00416771       0.00139588
C        6.14186094       0.91044477       8.29962724      -0.00233829      -0.00445342      -0.00631922
H        6.07069725       1.68185783       6.28416053      -0.00671369       0.01058587       0.00016788
H        5.26359024       2.69661728       7.48729270      -0.00311591       0.00186419       0.00976892
H        7.09813131       1.37570715       8.54723726      -0.00160699      -0.00714999      -0.00473250
H        5.52714682       0.91707224       9.19937600      -0.00088347      -0.01134855      -0.00545268
H        6.35206747      -0.11733918       7.99739164      -0.00368400      -0.00208253      -0.01468343
H        4.26024596       0.22600032       6.61101228      -0.00740108       0.00733522      -0.00126415
O        5.79256003       5.84557929      10.23738428       0.00120628      -0.00351802      -0.00538105
C        5.86461057       6.16670372      11.63247405       0.00708930      -0.00916657      -0.00253497
C        5.69516483       7.64651020      11.88792582       0.00035190      -0.01130986       0.00104053
H        5.11365872       5.59128219      12.18807480       0.01030475      -0.01370290      -0.00257462
H        6.85112420       5.83461901      11.95636919       0.00898936      -0.00478344      -0.00358862
H        5.76656513       7.86952833      12.95318064       0.00226450      -0.01213313       0.00060517
H        6.48451645       8.20284775      11.38704014      -0.00334339      -0.00516327      -0.00043550
H        4.72371562       8.00273083      11.52981296      -0.00228931      -0.01501202       0.00366578
H        5.05841666       6.34259393       9.86293736       0.01012662      -0.01325348       0.00087329
O        6.77218338       5.28335995       7.47468059       0.00146863       0.00202137       0.00358254
C        7.20676463       4.63967780       6.27077996      -0.00118408      -0.00095360       0.00591773
C        8.30638078       3.62786516       6.51990895      -0.00028685       0.00021073       0.00532596
H        6.34979717       4.17726904       5.76616436      -0.00100917      -0.00150783       0.00711803
H        7.57075675       5.44342923       5.62690238      -0.00143655      -0.00135955       0.00347951
H        8.57745138       3.12147663       5.59184105       0.00098018       0.00111645       0.00536087
H        9.19173749       4.11013672       6.92788199      -0.00101778       0.00072150       0.00681573
H        7.98291901       2.87031168       7.23429342      -0.00026187      -0.00084583       0.00467628
H        6.33813817       4.63849982       8.04698128       0.00470263       0.00153655       0.00900604
O        1.72441978       4.50133070       8.36290328      -0.00094306       0.00614136       0.00740874
C        3.10093903       4.70563650       8.05412296       0.00013256       0.00500455       0.00064419
C        3.41646944       6.16569746       7.78904964      -0.00239913       0.00489926       0.00035401
H        3.73807158       4.30523396       8.85031831       0.00007915       0.00663060       0.00141656
H        3.28541523       4.10317868       7.16468892       0.00191001       0.00504491       0.00156543
H        4.47520586       6.29561422       7.55027269      -0.00309812       0.00664655      -0.00131312
H        2.82446854       6.53562414       6.94999762      -0.00422001       0.00423302       0.00033152
H        3.17631379       6.77961614       8.66459166      -0.00226942       0.00597563       0.00000982
H        1.55674779       4.87890528       9.23163455       0.00067194      -0.00248988      -0.00527439
O        0.10512101       5.01586317       3.87500326      -0.00130290      -0.00173932      -0.00704932
C        1.17638110       5.34900544       4.74784183      -0.00108254      -0.00301763      -0.00676802
C        2.40893894       4.49731808       4.50585329      -0.00408506      -0.00865394      -0.00242605
H        1.43218209       6.41371584       4.65389741       0.00280035      -0.00441462      -0.01012270
H        0.80900354       5.18879992       5.76474552      -0.00257635       0.00179440      -0.00676036
H        3.24346119       4.83917301       5.12127018      -0.00313848      -0.00795060      -0.00388893
H        2.20929390       3.44904592       4.72683988      -0.00730374      -0.00645195       0.00420950
H        2.73158594       4.54244112       3.46319979      -0.00434122      -0.01573500      -0.00241281
H        0.40169123       5.21749602       2.97385486      -0.00026690      -0.00086988      -0.00638319
O        9.25260788      12.24422766      11.22749001      -0.00175656      -0.00036971      -0.01357555
C        9.72194398      11.66731351      10.01904858       0.00606868      -0.00392079      -0.00912571
C       10.00526839      10.18054626      10.15292387       0.00265098      -0.00371277      -0.00352782
H        8.94072916      11.84544358       9.27255628       0.01141816      -0.00462510      -0.01460320
H       10.62703302      12.18228624       9.67528432       0.00883913      -0.00583386      -0.00348638
H       10.25362369       9.74672586       9.18146240       0.00919453      -0.00643891      -0.00040427
H       10.85483511      10.00863133      10.81568170      -0.00262138      -0.00363775       0.00297223
H        9.14120038       9.64693834      10.55487826      -0.00102594      -0.00170013      -0.00878754
H        9.83641361      11.93861651      11.98242022      -0.00527246       0.00307693      -0.01054513
O        7.37584619       8.77535712       4.54310340       0.01597708      -0.00489408       0.00508892
C        7.43487704       9.45753008       5.80398498       0.00566438      -0.00386353       0.00468291
C        7.68155923       8.49837255       6.94397313      -0.00038417      -0.00159281       0.00743344
H        8.25264382      10.17289209       5.70730676       0.00478819      -0.00225495       0.00895544
H        6.51913985      10.03836169       5.96420491       0.00341827      -0.00574137      -0.00356939
H        7.87071841       9.03509515       7.87186585      -0.01317535      -0.00010417       0.00859246
H        6.83478508       7.82941412       7.10867707       0.00159509      -0.00596933      -0.00047151
H        8.55453958       7.87895437       6.73633669       0.00458926       0.00291168       0.01682857
H        6.60252519       8.20124176       4.55332290       0.01792461      -0.00832435       0.00084421
