200
Lattice="12.711090565707272 0.0 0.0 0.0 12.711090565707272 0.0 0.0 0.0 12.711090565707272" Properties=species:S:1:pos:R:3:forces:R:3 energy=-100893.46875 stress="-0.0010037620086222887 6.355294317472726e-05 -0.0002312139986315742 6.355294317472726e-05 -0.0016656572697684169 0.00010704363012337126 -0.0002312139986315742 0.00010704363012337126 -0.0010919547639787197" pbc="T T T"
N        5.16619844       8.11207396       5.06053621       0.00045538      -0.00320013      -0.00120797
C        6.34737712       8.59244122       4.24457722      -0.00137329      -0.00279415      -0.00343204
C        5.23017350       8.64347142       6.48242173       0.00225811      -0.00195884      -0.00183254
C        5.17057588       6.59437748       5.10745967       0.00178918      -0.00312227      -0.00002654
C        3.90138428       8.63631908       4.40592053      -0.00113600      -0.00472137       0.00079249
C        7.70564228       8.24121614       4.80089017      -0.00030145      -0.00094469      -0.00520056
C        5.43401773      10.13425164       6.62721237       0.00183176      -0.00177020      -0.00343158
C        3.90841435       5.96382713       5.65219458       0.00248593      -0.00385544       0.00047758
C        3.61658002       8.12946007       3.01091961      -0.00223457      -0.00463904       0.00100100
H        6.22255921       8.14115249       3.26401730      -0.00232691      -0.00353475      -0.00282019
H        6.23996460       9.67028159       4.13941168      -0.00257973      -0.00290152      -0.00397208
H        4.30030333       8.33810114       6.95864062       0.00318843      -0.00192606      -0.00020617
H        6.03759879       8.09957242       6.96982350       0.00321686      -0.00109518      -0.00266737
H        5.38142012       6.25206167       4.09570400       0.00199350      -0.00372307       0.00021270
H        6.02834056       6.31534101       5.71723018       0.00215083      -0.00185777       0.00004412
H        3.08779854       8.38797034       5.08473805       0.00024693      -0.00619686       0.00187345
H        4.00857317       9.71758847       4.40203486      -0.00273294      -0.00474697       0.00104676
H        8.45220136       8.65040004       4.11887191      -0.00176357      -0.00051728      -0.00651370
H        7.89264713       8.68271086       5.77936748       0.00065701      -0.00016685      -0.00579453
H        7.86396273       7.16405105       4.85370462       0.00088378      -0.00071123      -0.00493988
H        5.42416573      10.34193105       7.69698026       0.00155026      -0.00045456      -0.00379491
H        6.38862735      10.47379601       6.22707705       0.00167060      -0.00205899      -0.00386533
H        4.63773194      10.72138359       6.17073373       0.00175993      -0.00247090      -0.00409379
H        4.09255083       4.89254491       5.72021667       0.00406320      -0.00334263       0.00292172
H        3.65839027       6.30724834       6.65538747       0.00110328      -0.00212186      -0.00050017
H        3.04750287       6.11193075       5.00118062       0.00286292      -0.00662158      -0.00049052
H        2.65412381       8.53440766       2.69813482      -0.00374430      -0.00682822       0.00296045
H        4.36054586       8.45371661       2.28481182      -0.00451759      -0.00202312       0.00002883
H        3.51687035       7.04595551       2.95813003       0.00070619      -0.00478137       0.00044477
Cl      12.78347686      11.05020625       0.61420167       0.00973606      -0.00280851      -0.00185192
O       13.11499059      10.23866915       1.89832332       0.01392964      -0.00837064      -0.00670385
O       11.25602922      11.30913197       0.46405100       0.00870955      -0.00447458       0.00257141
O        4.82911077       9.59952829       9.99873077      -0.00758320       0.00344074      -0.00095862
C        3.50587936       9.69494709      10.56298503      -0.00626816       0.00258841       0.00189424
C        3.45651001       9.10564078      11.95995187      -0.00308356       0.00179628       0.00166351
C        3.01849247      11.13300166      10.52970401      -0.00692542       0.00222707       0.00406608
H        2.88305619       9.09310132       9.89452440      -0.00709191       0.00234053       0.00287160
H        2.44310273       9.14315532      12.36449277      -0.00236166      -0.00027641       0.00333627
H        3.78787589       8.06701791      11.96488820      -0.00113361       0.00243126       0.00033922
H        4.09821103       9.68187474      12.63426334      -0.00304773       0.00258905       0.00082074
H        1.98243218      11.19756959      10.86391994      -0.00628501       0.00128213       0.00630633
H        3.08663424      11.54024645       9.51972853      -0.00971893       0.00306290       0.00397605
H        3.62053729      11.75614270      11.19702901      -0.00617915       0.00203167       0.00274519
H        5.46240640       9.78581377      10.69968231      -0.00610378       0.00317347      -0.00113207
O        5.71420425       4.39747024      11.27404161      -0.00084928      -0.00082290      -0.00469333
C        6.04906620       4.94533094      10.00130985      -0.00326031      -0.00174481      -0.00592613
C        5.09527776       4.46164986       8.91828038      -0.00220603      -0.00778422      -0.00401932
C        5.98996578       6.45010399      10.13912569      -0.00752310      -0.00198746      -0.01021194
H        7.07346558       4.65126041       9.73220158      -0.00233537       0.00029962      -0.00553556
H        5.41497528       4.82128919       7.93766021      -0.00329008      -0.01081672      -0.00541705
H        5.05980168       3.37228310       8.88295031       0.00029036      -0.00800374      -0.00010772
H        4.08508531       4.82887183       9.11577586      -0.00287580      -0.00938176      -0.00486531
H        6.18158630       6.93943625       9.18522345      -0.00599910      -0.00432565      -0.01091669
H        6.72764335       6.81229157      10.85498645      -0.01030979       0.00190336      -0.00911322
H        4.99884295       6.75234150      10.47998834      -0.00919136      -0.00335780      -0.01349401
H        5.79752812       3.43108218      11.20671295       0.00415732       0.00062197      -0.00213131
O       10.17506702      10.45114489      10.81622771       0.00764823      -0.00424393       0.00347489
C       11.20650020      10.52222046       9.84516308       0.00485861      -0.00002242       0.00083995
C       11.89319062      11.87957796       9.84649585       0.00230113       0.00116903       0.00224970
C       12.19484666       9.37346183      10.01435198       0.00743598       0.00145072      -0.00491075
H       10.70301342      10.40985424       8.87660292       0.00250980       0.00137629       0.00196469
H       12.60700024      11.95312127       9.02280282       0.00060543       0.00396720       0.00114106
H       11.15333335      12.67096356       9.73650703       0.00061476       0.00002047       0.00515190
H       12.42839746      12.04978413      10.78185841       0.00388272       0.00036306       0.00128786
H       12.93638159       9.36578028       9.21127149       0.00477399       0.00498510      -0.00744617
H       11.66723921       8.41887388      10.01530265       0.00930662       0.00064436      -0.00569821
H       12.71942069       9.46653306      10.96818363       0.01033150       0.00007573      -0.00645967
H       10.56350305      10.70463136      11.68534425       0.00885934      -0.00431244       0.00291553
O        9.08117286       5.50129067       8.23983191      -0.00044602       0.00246799      -0.00506759
C        9.81053764       6.74706621       8.25874758       0.00188440       0.00242862      -0.00097392
C       10.48334512       7.00624470       6.92417451       0.00131750       0.00269356      -0.00112182
C        8.89928673       7.88374686       8.67439971       0.00080490       0.00181729      -0.00072801
H       10.56971047       6.59259411       9.02635362       0.00190115       0.00271859      -0.00096327
H       11.08875312       7.91273993       6.97332466       0.00106511       0.00286576      -0.00156084
H       11.12753140       6.17899410       6.62866350       0.00173454       0.00272971      -0.00078560
H        9.73671888       7.14951154       6.14121733       0.00137618       0.00200862      -0.00103342
H        9.43000347       8.83416603       8.68199740       0.00109461       0.00167142       0.00275461
H        8.49739558       7.71957186       9.67085062      -0.00102986      -0.00087578      -0.00206113
H        8.06277489       7.96674704       7.97515176       0.00258195       0.00318130      -0.00225063
H        8.53925936       5.48191915       7.44307999       0.00989577      -0.00092828      -0.00304726
O        0.22577595      12.37269480       5.67835964      -0.01829514       0.00527442      -0.02100223
C        0.62855904      11.25449574       4.86905914      -0.00762448       0.00060081      -0.01093410
C        1.95337502      11.52993332       4.18861893       0.00005639      -0.00083236       0.00221559
C        0.65479173       9.97406775       5.68884865      -0.01095267       0.00631648      -0.00058571
H       -0.14157014      11.18012774       4.10342638       0.00191563      -0.00995573      -0.01988894
H        2.20719428      10.70736846       3.52329003       0.00593544      -0.00363131       0.00777109
H        1.88974257      12.42573867       3.57765916       0.00773936      -0.00249657      -0.00150292
H        2.74748778      11.66448226       4.93129968      -0.00782612      -0.00026160       0.01046538
H        0.77272719       9.10876681       5.03114405      -0.00267019       0.00170773       0.00694189
H       -0.27322330       9.85691917       6.24925333      -0.01607004       0.00810365      -0.00868576
H        1.48593949       9.98355345       6.40338950      -0.01769026       0.01360972       0.00694180
H        0.92599547      12.54288538       6.31768882      -0.03320712       0.01184059      -0.01935121
O        5.99453663       1.66604754      10.80448624       0.02811480       0.01484543      -0.00440159
C        6.82412427       1.17988414       9.72720614       0.00042608      -0.01044688       0.00686452
C        7.91948891       0.28060537      10.25688792       0.00964350      -0.00413543      -0.00437731
C        5.96638030       0.49186845       8.68101225       0.00211537      -0.00418368       0.00599921
H        7.28054752       2.08519947       9.31659374       0.00839069      -0.00119472      -0.00470239
H        8.60807394      -0.00002592       9.45997821       0.00296509      -0.00844679      -0.00742812
H        8.49390267       0.78685478      11.03201576       0.01420692      -0.00480711      -0.00855108
H        7.50295353      -0.63915566      10.67328771       0.00910951      -0.00359419       0.00078312
H        6.57863001       0.15339205       7.84464942      -0.00487378      -0.00713879       0.00478585
H        5.19193087       1.15636360       8.29432589      -0.00060344      -0.00437246       0.00938809
H        5.48429322      -0.38902038       9.11449317       0.00113088      -0.00367716       0.01121785
H        5.46024512       0.93643968      11.13424847       0.00293621      -0.01392427       0.01357961
O       13.19717943       7.57982163       1.91738547       0.00262469      -0.00904691      -0.01109624
C       11.91707633       6.97868068       1.77229747      -0.00101161      -0.00306089      -0.00105235
C       11.46524291       6.41372579       3.11459211       0.00093067       0.00921339       0.00496668
C       10.89984338       7.95934829       1.21255110       0.00163847      -0.00188160      -0.00406694
H       12.03723643       6.14427295       1.06732596      -0.00788447      -0.00878811       0.00449789
H       10.55050075       5.82273862       3.00166951      -0.00312959       0.01402552       0.01315476
H       12.23587264       5.76443640       3.53228890      -0.00115193       0.00772031       0.00656229
H       11.27503532       7.22489034       3.82097045       0.00868239       0.01558013      -0.00020072
H        9.93115129       7.47732338       1.06504256      -0.00179420       0.00225325       0.00503065
H       11.22225279       8.36605043       0.25347625      -0.00066830      -0.01183517      -0.00901398
H       10.77103141       8.80029644       1.89659623       0.00977202       0.00451979      -0.01044357
H       13.09631190       8.56061097       1.85420931       0.00635086      -0.00852993      -0.00875829
O       12.48125803       0.94327628       2.94202671       0.01889129       0.01432959      -0.01436263
C       11.61483076       1.55738958       1.97253740       0.00699052       0.00795245       0.00336870
C       10.17723063       1.09201079       2.11925005       0.01280361      -0.00457585       0.00585973
C       11.73540176       3.06912757       2.04375185      -0.00369191       0.00924283      -0.00022071
H       11.99752733       1.19085493       1.01763073       0.00670311       0.01122686      -0.00557554
H        9.59555171       1.42227126       1.25544094       0.00185828      -0.00333982       0.01484059
H       10.14117814       0.00410463       2.15617123       0.02415991      -0.00567695      -0.00059110
H        9.71835770       1.52395335       3.01268965       0.01851754      -0.01522531       0.01505765
H       11.19309973       3.54842694       1.22698893      -0.00880097       0.00617624       0.00160961
H       12.78199244       3.37669831       1.99610969      -0.00714549       0.01918152      -0.00161536
H       11.32235237       3.43938129       2.98451140      -0.00462791       0.00466491       0.00188531
H       12.11593525       1.02365212       3.83207770       0.00925133      -0.00832651       0.00147538
O        6.68344079       2.95752978       6.00504690      -0.00044960       0.01025389       0.01630086
C        7.78396206       2.48074358       5.20988099      -0.00647610       0.00970653       0.00702471
C        8.99415143       3.37807094       5.40376050      -0.00441253       0.00838935      -0.00003731
C        8.10271780       1.03206729       5.54307921      -0.00636341       0.00920492       0.00464353
H        7.42880978       2.56940616       4.18120880      -0.01293568       0.01042020       0.00967968
H        9.81270830       3.08439506       4.74255792      -0.00974450       0.00913542      -0.00691544
H        8.73318214       4.41449252       5.18145304      -0.00580774       0.00862460       0.00305535
H        9.35269649       3.30484036       6.43247038       0.00300057       0.00630310      -0.00290069
H        8.92270326       0.65745131       4.92657233      -0.00871398       0.00947532       0.00154331
H        7.23172909       0.39411423       5.38523449      -0.00706173       0.00979256       0.00697298
H        8.42623362       0.95109039       6.58510171      -0.00263882       0.00776949       0.00339869
H        6.88962991       2.74912557       6.92337152       0.00522138       0.01096728       0.01236324
O        7.03970558      11.42289913       2.89446947       0.00137854      -0.00073838      -0.00093979
C        6.76538883      11.00083700       1.54708309      -0.00261191       0.00103045      -0.00180775
C        5.82958528      11.98317837       0.86161308       0.00251678       0.00687820      -0.00002448
C        8.04608688      10.77664046       0.76883194      -0.00290167      -0.00365510      -0.00159067
H        6.24491495      10.04441221       1.67083153      -0.00693175       0.00368771      -0.00347360
H        5.58950764      11.62931264      -0.14520405      -0.00065767       0.00881104       0.00030364
H        4.89961661      12.10524398       1.41893310       0.00355475       0.01119409       0.00134958
H        6.31027962      12.95973380       0.76149552       0.00737152       0.00441097       0.00033146
H        7.85150325      10.30603782      -0.19690918      -0.00546162       0.00319385      -0.00443472
H        8.73813093      10.14153214       1.32131602      -0.00881681      -0.01221439      -0.00420706
H        8.55341124      11.72245089       0.56853152       0.00421051      -0.00628828       0.00440933
H        7.62515418      12.18712157       2.84607536      -0.00003320      -0.00521970       0.00044565
O        0.38117646       3.50691287      11.71001028       0.00343764      -0.00136015       0.00896573
C        1.71448630       3.83159968      11.29662287       0.00382125      -0.00170320       0.00951537
C        2.23434108       5.04132455      12.05482964       0.00568116      -0.00598580       0.01581711
C        2.62201064       2.62038559      11.41862843       0.00088146      -0.00418323       0.00564283
H        1.61394293       4.09703755      10.24211930       0.00750922       0.00433730       0.00869757
H        3.25317237       5.27804664      11.74187621       0.00647920      -0.00631697       0.01827595
H        1.58952795       5.90641078      11.89340955       0.00728993      -0.00420630       0.01956853
H        2.25358660       4.83447134      13.12801221       0.00350416      -0.01191001       0.01450203
H        3.60951563       2.84736273      11.01804214       0.00293621      -0.00492340       0.01060849
H        2.19815136       1.77801586      10.86727456       0.00043063      -0.00013970      -0.00066081
H        2.73001800       2.33291133      12.46752127      -0.00420439      -0.01034316       0.00452930
H        0.44617006       3.21259867      12.62484180       0.00040364      -0.00340309      -0.00107696
O        2.29240574       2.05149649       2.17284838      -0.01049396      -0.01252222       0.01282039
C        2.85704524       2.91913759       3.15420128      -0.00413465      -0.00940923       0.00516647
C        2.96449406       2.22293557       4.50103585       0.00020000      -0.00238755       0.00970644
C        4.20978585       3.35590768       2.63218265      -0.00645852      -0.00942798      -0.00320545
H        2.21627826       3.81046725       3.26669434      -0.00283930      -0.00856674       0.00273514
H        3.35958484       2.89663295       5.26169364       0.00453819      -0.00119393       0.00654380
H        1.98707857       1.86483037       4.83127566       0.00047225       0.00114694       0.01461555
H        3.63915935       1.36937517       4.42233741      -0.00252464      -0.00481960       0.01263312
H        4.70727321       4.02431591       3.33681177      -0.00420517      -0.00895660      -0.00445487
H        4.11286267       3.86268989       1.67107670      -0.01503485      -0.00762148      -0.00096609
H        4.84946791       2.48107476       2.49829319      -0.00516022      -0.00736085      -0.00924234
H        1.49128955       1.63915575       2.54300675      -0.03626552       0.03011623       0.00067157
O        7.42488362       4.86357851       2.90729069       0.01308590       0.01014799      -0.00364241
C        7.14803297       4.94842350       1.49210111       0.00219084       0.00352645      -0.00313330
C        6.49887412       6.28022873       1.17213905       0.00419360       0.00413001      -0.00597827
C        8.40128208       4.69095792       0.68372079      -0.00225949      -0.00233795      -0.00865015
H        6.42766875       4.15465083       1.29337471      -0.00061929       0.00432312       0.00392818
H        6.18763213       6.30275205       0.13077978       0.00002813      -0.00046606      -0.00490654
H        5.60802688       6.41679059       1.78615074       0.00702547       0.00826703      -0.00288388
H        7.19423476       7.10466626       1.35877372       0.00657986       0.00321134      -0.01260543
H        8.17533259       4.72176187      -0.38189280      -0.00771589      -0.00431821      -0.00750300
H        8.81426260       3.71100029       0.92391210      -0.00451843      -0.00329290      -0.00842169
H        9.16205191       5.44788951       0.89591052       0.00125702      -0.00445338      -0.01444212
H        8.30861282       5.22232684       3.04019549       0.00582257       0.01026091      -0.00993441
O        9.92457463       2.76663740       8.74966509      -0.00354517       0.01197565      -0.00596070
C       11.35999342       2.68588952       8.72738127      -0.00371253       0.00238568      -0.00032285
C       11.80413825       1.89146890       7.51377636      -0.00474451      -0.00149438       0.00193059
C       11.97982941       4.06747299       8.72945952       0.00624311      -0.00190163       0.00138170
H       11.67183111       2.16310598       9.63752128      -0.01074378       0.00098354       0.00113237
H       12.88259729       1.72077240       7.55861720      -0.00619714      -0.00993193       0.00749034
H       11.30798395       0.92413868       7.45841842      -0.01269299       0.00250502       0.00058372
H       11.58819347       2.44074658       6.59502894       0.00381217      -0.00046948       0.00058044
H       13.06182073       3.99843245       8.62120979       0.00648478      -0.01108665       0.00856952
H       11.76387083       4.59558905       9.65818594       0.00507428       0.00074339      -0.00044833
H       11.59586317       4.63844296       7.88500427       0.01648539       0.00052588      -0.00163777
H        9.68015330       3.70299546       8.70921061       0.00215413       0.01297799      -0.00707837
