191
Lattice="12.925154038568577 0.0 0.0 0.0 12.925154038568577 0.0 0.0 0.0 12.925154038568577" Properties=species:S:1:pos:R:3:forces:R:3 energy=-172021.109375 stress="-0.0032635247334837914 -6.320285319816321e-05 0.0008285252552013844 -6.320285319816321e-05 -0.002185927238315344 -8.508027167408727e-05 0.0008285252552013844 -8.508027167408727e-05 -0.002438171999529004" pbc="T T T"
N       11.71400862       9.87658233       3.31171609       0.00478921       0.00251996       0.00789812
C       12.58019526       8.66405367       3.45581830       0.00498629       0.00399131       0.01466316
C       10.77916579       9.95531600       4.46936876       0.00186139       0.00502079       0.00511616
C       10.91628666       9.78443960       2.05768513       0.00830594      -0.00284456       0.00632787
C       12.57357017      11.10081634       3.25008656       0.00380033       0.00246316       0.00477244
H       13.19767832       8.79044792       4.33920440      -0.00085104       0.00528087       0.01863307
H       11.94667102       7.78792256       3.53652679       0.00446743       0.00432944       0.01188852
H       13.20342451       8.58535271       2.57211203       0.01047967       0.00303302       0.01887809
H       10.15137774      10.83490576       4.34677931      -0.00035730       0.00231594      -0.00004378
H       10.17923668       9.04863920       4.47800497       0.00425085       0.00360084       0.00746247
H       11.36148944       9.99202876       5.38661965      -0.00059520       0.01058174       0.00625467
H       10.31934031      10.68849661       1.96846850       0.00968948      -0.00274801       0.00077341
H       11.60421045       9.74609989       1.21876230       0.01004800      -0.00727434       0.00821817
H       10.29672136       8.89543884       2.10624262       0.00768121      -0.00176293       0.00927936
H       11.93449290      11.96145138       3.09064938       0.00509684       0.00150262      -0.00486712
H       13.14593711      11.16518668       4.17077090      -0.00206146       0.00829108       0.00734237
H       13.24183608      11.00833147       2.40008905       0.00975396      -0.00392057       0.01058644
O       12.34419879      11.32224121      -0.27873587      -0.01649332      -0.01319349      -0.01312503
O       10.96823771      12.61350593       0.79432399      -0.00975740      -0.01294971      -0.00571060
O       10.37416367      11.72588636      -1.10109566      -0.01312494       0.00351691      -0.01200557
N       11.23778643      11.89889113      -0.19523449      -0.01307301      -0.00783127      -0.01050576
O       11.84511619       1.31399128       4.36956241       0.00615606       0.00624648       0.00204695
O       10.49786812       3.07574067       4.50873445       0.00008816       0.00021320       0.01229935
O       12.65523502       3.37110780       3.95871463       0.00296956       0.01143533       0.03200871
C       10.51981297       0.76811781       4.52472171       0.00772618       0.00036830      -0.00964859
C        9.71031485       1.96781548       4.97614150       0.00099045      -0.00710779      -0.00308645
C       11.74172747       2.65469286       4.24044356       0.00375444       0.00707239       0.01679330
H       10.55843806      -0.02635090       5.26538748       0.00801509      -0.00500351      -0.01595223
H       10.18691565       0.39198969       3.55997170       0.01420358       0.00722717      -0.01449043
H        8.73219563       2.01845016       4.51088245       0.00365961      -0.00564125      -0.00789781
H        9.62528233       2.05212943       6.05910959      -0.00459666      -0.01759446      -0.00304937
O        8.25746330      12.79041541       2.42099817      -0.00745409       0.00359569       0.00114787
O        7.19973841      10.88951207       2.82382438       0.01622654      -0.00853109       0.00282246
O        7.75163531      12.24677545       4.53307705       0.00979652      -0.00578032       0.00245953
C        7.89435532      12.30790272       1.10216789      -0.00643663       0.00067285       0.00203833
C        7.40857485      10.89345991       1.38800516       0.00973216      -0.00451010       0.00198403
C        7.72745124      12.00632518       3.34768751       0.00664140      -0.00387160       0.00220037
H        8.78303062      12.36708719       0.47727543      -0.00858879       0.00972758       0.00031003
H        7.09924366      12.95108266       0.73662672      -0.01405427      -0.00767514       0.00478747
H        6.45490676      10.66084377       0.92936893       0.01037237      -0.01352377       0.00558893
H        8.14418112      10.12851145       1.14490532       0.01627612       0.00367469      -0.00233583
O        6.73870895       3.99845072       2.74456885      -0.01749894       0.00038762       0.00542116
O        6.46484287       1.98855718       1.84375341      -0.00316906       0.00387490      -0.00466136
O        8.54578563       2.82004692       2.10137848      -0.01134312       0.01469604       0.00561364
C        5.31664194       3.85982885       2.56583049      -0.01593807      -0.00688738      -0.00047338
C        5.15471633       2.37164241       2.29127673      -0.00602284      -0.00666100      -0.00379415
C        7.36602903       2.92491070       2.21581043      -0.00828302       0.00663281       0.00206559
H        5.01325179       4.47256028       1.71375005      -0.01571336      -0.00737944      -0.00074688
H        4.82713279       4.19432897       3.47529336      -0.02120791      -0.01072221      -0.00227523
H        4.92924882       1.78374732       3.17838408      -0.00224713      -0.01032931      -0.00536576
H        4.43527592       2.13158748       1.51353989      -0.00390941      -0.01017106      -0.00442362
O        9.31677110       2.22104878      11.70156502       0.00907977      -0.00416166      -0.00181977
O        8.20015134       4.08223830      12.20948469      -0.00190508      -0.00897545      -0.01136043
O       10.43490456       4.00511781      12.50515884      -0.00436044       0.00118881      -0.00344813
C        8.00392501       2.01841894      11.17477467       0.01197794      -0.01375854      -0.00418848
C        7.19161466       3.16063581      11.77589205       0.00415593      -0.01617730      -0.01107588
C        9.41893146       3.48215861      12.17225170       0.00237858      -0.00194186      -0.00483635
H        7.65289609       1.03838234      11.48682728       0.01723096      -0.01406768      -0.00049268
H        8.06062228       2.08541529      10.08838743       0.01378528      -0.01820501      -0.00404143
H        6.54647986       3.66213327      11.06443828       0.00375459      -0.02196255      -0.01446909
H        6.60864726       2.83974669      12.63622751       0.00402883      -0.01508205      -0.01107401
O       10.93357400       7.11274039       6.00728689      -0.00652814       0.00123662       0.00395924
O       12.51236590       6.47922528       7.43318088      -0.01211224       0.00273350       0.01020730
O       12.28912253       8.65498481       6.90494946      -0.02016944       0.00336230       0.01934752
C       10.94504469       5.67008833       5.91483858      -0.00132343       0.00210778      -0.00092697
C       11.79802777       5.25987071       7.10533520       0.00025615      -0.00042510      -0.00278425
C       11.94460897       7.51091244       6.79524915      -0.01350926       0.00269258       0.01206307
H       11.38937685       5.39916405       4.96054427      -0.00082585       0.00658545      -0.00175261
H        9.91864688       5.31865512       5.96920629       0.00016916      -0.00179517      -0.00155293
H       11.21999817       4.96180479       7.97421336       0.00136063      -0.01424657      -0.00703824
H       12.53391539       4.50518458       6.85487200       0.00824422       0.00935537      -0.00834724
O        4.44524463       8.72223762       3.92037656      -0.00483117      -0.00338484      -0.00406438
O        2.70439660       8.06686024       2.70485475      -0.00016524       0.00899816      -0.01610404
O        2.62631700      10.04429159       3.77551451       0.00001276       0.00536263      -0.00931057
C        4.89863185       7.56372326       3.19550542      -0.00662464      -0.00401432      -0.00470549
C        3.59954063       6.93247992       2.73063956      -0.00641742       0.00476098      -0.01575027
C        3.20205551       9.03656221       3.49485141       0.00055817       0.00172949      -0.01023349
H        5.47260181       6.94044197       3.87764207      -0.01492003      -0.00946727      -0.00277409
H        5.51323079       7.91339832       2.36524999       0.00027362      -0.00517668       0.00000623
H        3.64086316       6.50764199       1.73196987      -0.00213538       0.01078254      -0.01811543
H        3.19766724       6.21945154       3.44518258      -0.01588544       0.00379491      -0.02229142
O        5.92634789      12.01071889      11.29464303      -0.00104628      -0.00358492      -0.00063973
O        6.24386316      12.03206905       9.09289989       0.01469457      -0.00008903       0.00205415
O        5.17340809      13.75533544      10.07675963       0.01273435       0.00263625      -0.00197222
C        6.86286008      10.93911269      11.02358624      -0.00480697      -0.00744383       0.00387859
C        6.66979280      10.72606086       9.53703931       0.00735542      -0.00228330       0.00184041
C        5.71401588      12.69393242      10.15050149       0.01069775      -0.00298208      -0.00005920
H        6.60216946      10.07101579      11.62089760      -0.01404922      -0.00768963      -0.00072150
H        7.87103374      11.28246696      11.27220808      -0.00525042      -0.01338030       0.01300080
H        7.58450460      10.46328138       9.00974344       0.01171142      -0.00272088       0.00963876
H        5.87554682      10.01591910       9.30930415       0.00790712       0.00027853      -0.00759974
O        2.56311885      11.52278194       0.79801309       0.00835478       0.01172910      -0.01310349
O        4.31280533      10.17204378       1.02850296       0.00256460       0.00427151      -0.01705811
O        4.36550713      12.22950752       1.95211671       0.01193655       0.00217676      -0.01125550
C        2.16625200      10.27063864       0.18994615       0.00249010       0.01472504      -0.01525383
C        3.49357100       9.56187519       0.00664930      -0.00074160       0.00997376      -0.01763099
C        3.78549637      11.39372466       1.32363622       0.00673980       0.00379920      -0.01535952
H        1.62310805      10.48921012      -0.72356884       0.00262952       0.01833573      -0.01454675
H        1.51615879       9.74645791       0.88994782       0.00043648       0.01617615      -0.01613054
H        3.45824354       8.48896537       0.17978356      -0.00452062       0.00976500      -0.02004421
H        3.95133984       9.77371603      -0.96057085      -0.00076476       0.01059985      -0.01733866
O        2.13049214      10.03260445       7.44757140      -0.01070359       0.02321547       0.00721878
O        3.42527168      10.30729301       9.23496194       0.00298172       0.00955977      -0.00139031
O        3.11280436      12.02168530       7.80720206       0.00386116       0.01720190       0.01002935
C        2.17733748       8.72170896       8.04543961      -0.00719586       0.01860653      -0.00115776
C        3.07687288       8.91285184       9.26510089      -0.00940877       0.01330777       0.00097162
C        2.89755747      10.88750266       8.12358904      -0.00157669       0.01588535       0.00576758
H        2.59594965       8.03141733       7.31611225      -0.00343081       0.02410939      -0.00421572
H        1.16529434       8.44505157       8.30977232      -0.00599939       0.01224080      -0.00309934
H        2.55669284       8.70150932      10.19702882      -0.01365897       0.02031157      -0.00003198
H        3.99560203       8.32575547       9.20341033      -0.01405966       0.00617123       0.00630376
O        9.05525621       6.76976322      11.14116323      -0.00406092       0.00339244      -0.01048318
O        9.14901895       8.74220965      12.14990623       0.00621444      -0.00582680       0.00539875
O        7.15195373       7.77042959      11.79685482       0.00167584       0.00421553       0.00397904
C       10.47163670       7.01682844      11.36683303      -0.00285098      -0.00482249      -0.01147279
C       10.47666877       8.51106016      11.59590912       0.00531486      -0.00767392       0.00485350
C        8.35374249       7.74816424      11.71097995       0.00189078       0.00101783      -0.00008454
H       11.00877493       6.71280325      10.47225309      -0.00631669       0.00220024      -0.01574665
H       10.77891563       6.42277395      12.22416856      -0.00370377      -0.01454550      -0.01837718
H       11.22265172       8.87430408      12.29233550       0.00597537      -0.02252528       0.01140305
H       10.54113156       9.08188938      10.67665082       0.01164310       0.00358292       0.01261568
O        9.67513158       6.65385537       3.30678734       0.00854445       0.01066684      -0.00909004
O        9.09783989       6.40184288       1.17545804      -0.00169694      -0.00122090      -0.00444395
O       11.26935315       6.29319793       1.76227868       0.00134552       0.02356368      -0.01710394
C        8.23983793       6.74952311       3.31412609       0.00759661      -0.01011917      -0.00056881
C        7.88432939       6.79459634       1.82706102       0.00029615      -0.00502360       0.00214237
C       10.11825144       6.41161840       2.04875019       0.00332832       0.01183671      -0.01110061
H        7.96525847       7.65999600       3.84231695      -0.00180416      -0.01867160       0.00851874
H        7.83221278       5.88591691       3.83339479       0.02233779      -0.01957482      -0.00539330
H        7.10637754       6.09512655       1.53776293      -0.00048968      -0.00479585       0.00421985
H        7.62561871       7.79403625       1.47588041      -0.00234875      -0.00382465       0.00770847
O        9.18924697       6.05352251       8.43561968      -0.00379442      -0.01033530      -0.00542582
O        7.49640638       4.83686322       9.19783557      -0.00887492      -0.00793347      -0.01434358
O        9.56727885       3.96781775       9.17272971      -0.01237643      -0.01535237      -0.01692936
C        8.05838784       6.92154240       8.30732422      -0.00234877      -0.00893158      -0.01019631
C        6.89211630       6.09898599       8.86572865      -0.00128907       0.00024088       0.00363824
C        8.81301230       4.87358924       8.96417737      -0.00843677      -0.01176369      -0.01265198
H        7.93572655       7.16110840       7.25621589      -0.00667810      -0.02011838      -0.01200902
H        8.25697084       7.82134105       8.88918944       0.00265373      -0.00359794      -0.02081901
H        6.47014810       6.52032647       9.77685267       0.01841636      -0.00181100       0.01314068
H        6.12694585       5.92737939       8.11525821      -0.01490062       0.01252814       0.01532567
O        5.53165033       2.94656497       5.97905844      -0.02318924      -0.01080585       0.01933239
O        7.52845163       2.85183028       6.94798542      -0.00515325      -0.00171512      -0.01988998
O        6.93623138       4.71155492       5.84491947      -0.04101315       0.00213039       0.00557631
C        5.64066493       1.58431967       6.46519319       0.00401056      -0.01561466      -0.00231235
C        6.87518632       1.63404051       7.35268179       0.00381845      -0.00210348      -0.00587910
C        6.69003329       3.60445241       6.22409943      -0.02470960      -0.00291806       0.00200070
H        5.76003751       0.92037442       5.60846501       0.01745409       0.00193325      -0.01344344
H        4.74017131       1.32662126       7.01768613       0.01015711      -0.04216435      -0.00605607
H        6.62443514       1.70773824       8.40787515       0.00500125       0.00802831      -0.00633061
H        7.55506308       0.80383489       7.17684886       0.00837909       0.00077522       0.00045035
O        2.37448538       5.84916380      10.88355724       0.00276207       0.00651027      -0.00555873
O        4.17998691       4.58219427      10.61866372      -0.00003110       0.00245496      -0.00205316
O        3.96162747       5.82505731      12.47929775       0.00292680       0.00895798      -0.00609541
C        2.09862478       5.07365327       9.69721956       0.00073230       0.00223384      -0.00233459
C        3.44829221       4.43134198       9.38442583      -0.00035161       0.00042775      -0.00196558
C        3.54251039       5.45086438      11.42242604       0.00193927       0.00612146      -0.00510341
H        1.73813316       5.74141655       8.91891773      -0.00009174      -0.00011465      -0.00366172
H        1.32532557       4.34528703       9.94251813       0.00087863       0.00381899       0.00181687
H        3.39170122       3.36813983       9.16238372      -0.00044043       0.00012672      -0.00143011
H        3.98774936       4.95609148       8.59500247      -0.00069138       0.00012624      -0.00191328
O        2.50003676       3.92686031       4.18326375       0.00922688       0.00048420       0.02221267
O        1.60574022       3.99123190       6.21437977       0.02228066      -0.00587049       0.02754377
O        1.51073551       5.81953557       4.90697235       0.02559930       0.00813639       0.03782660
C        2.50331561       2.55745028       4.62287973       0.00074527      -0.00233117       0.01110175
C        2.15289404       2.66862053       6.10017394      -0.00300228      -0.01456648       0.01087207
C        1.82777068       4.68191891       5.07336628       0.02352148      -0.01175410       0.03187141
H        3.49397082       2.14648261       4.46532550      -0.00034726      -0.00678641       0.00934835
H        1.75944816       2.01477095       4.04547809      -0.00029847       0.00607404       0.00431311
H        1.41041563       1.94429638       6.42592826      -0.01929775      -0.00391117      -0.00170938
H        3.02961208       2.61664201       6.74212195      -0.00745878      -0.04321986       0.01437241
O       12.52580236      11.87560625       9.32035088       0.01219129       0.01354876       0.00956421
O       10.88481494      10.42432233       8.93427991       0.00945321       0.01595978       0.01613092
O       12.81767632       9.70440324       9.84575688       0.00998205       0.01503253       0.01070863
C       11.37765071      12.67946740       8.99265347       0.01513296       0.01575518       0.00669959
C       10.44158621      11.65844130       8.36456602       0.00655001       0.01574741       0.01927426
C       12.14661148      10.59328069       9.41741067       0.01025656       0.01434094       0.01245412
H       11.68762252      13.46916808       8.31249703       0.01631429       0.00819761      -0.00173557
H       10.97296191      13.09169105       9.91643816       0.02038927       0.02681956       0.00358027
H        9.39687900      11.81450877       8.62717716       0.00999561       0.01889491       0.03069785
H       10.54785899      11.59056402       7.27812841      -0.00618831       0.01338083       0.01835197
O        6.57869786       8.28343581       5.82994464      -0.01220584      -0.00204077       0.00392131
O        5.01728581       9.53183354       6.79003163      -0.01333135       0.00152889      -0.00307158
O        4.81295984       7.29128514       6.80306353      -0.01346627       0.00194114       0.00516620
C        7.07910891       9.63335885       5.74991738      -0.01013434      -0.00313392       0.00341094
C        5.85561058      10.47549049       6.07968648      -0.00965646      -0.00093937      -0.00130077
C        5.40581533       8.28534490       6.49338749      -0.01273775       0.00061601       0.00203447
H        7.44961068       9.79856114       4.74752151      -0.00648423      -0.00487154       0.00471354
H        7.88964767       9.74323770       6.47536972      -0.01263529      -0.00337623       0.00588137
H        6.05437310      11.31163806       6.74179759      -0.01021381      -0.00088975      -0.00130764
H        5.31797312      10.80403719       5.19316454      -0.00630820      -0.00086190      -0.00312242
