200
Lattice="13.736070106688274 0.0 0.0 0.0 13.736070106688274 0.0 0.0 0.0 13.736070106688274" Properties=species:S:1:pos:R:3:forces:R:3 energy=-557116.0 stress="0.00018941558664664626 0.00041606185550335795 0.00032445407123304904 0.00041606185550335795 -9.12269315449521e-05 0.00019407398940529674 0.00032445407123304904 0.00019407398940529674 1.925079595821444e-05" pbc="T T T"
Tm      13.92735988      12.13902043      -0.16680686      -0.00862977      -0.01463449      -0.01339044
B        5.10044047      13.30563342       7.84495645      -0.00585206       0.00794081       0.01311393
F        6.42088700      13.63882642       8.14263858      -0.00322878       0.00274161       0.00663373
F        4.44111440      12.83724405       9.00046358      -0.00140494       0.00793910       0.01591825
F        4.42122815      14.47263208       7.39900463      -0.00294816       0.01304698       0.02143148
F        5.05133789      12.35268809       6.82695870      -0.01196888       0.00734079       0.01382971
B        9.58903294      12.57514671      10.50025812       0.00471783       0.01210911      -0.00455919
F        8.70879093      12.43189898      11.54759720       0.00042164       0.01258329      -0.00863117
F       10.78681125      13.31468448      11.02904379       0.00381857       0.01279873       0.00117049
F       10.08589747      11.32800166      10.10439303       0.00766498       0.01204491      -0.00103512
F        9.11372422      13.32207702       9.46985760       0.01092154       0.01156378      -0.00731444
B        8.61210711      11.47103983       3.07238918       0.00249906      -0.00043146       0.01151115
F        8.31677128      12.47851999       2.15654376       0.00041370       0.00098479       0.01524526
F        7.45360958      11.09313885       3.75363390       0.00119281      -0.01186156       0.00372165
F        9.07976556      10.34403470       2.32033771       0.01457825       0.00539351       0.00877976
F        9.60419497      11.87576711       3.95109045      -0.00463593       0.00077826       0.01868284
O        9.46428067       3.04243949       5.94941026      -0.00831240      -0.00274813      -0.00339809
O       10.14950174       4.95827085       5.01766482       0.02450579      -0.00986093       0.00726497
C        9.04588972       5.01790512       7.16607729       0.00259688      -0.00079137      -0.00436080
C        9.61396616       4.39001092       5.93926467       0.00786030      -0.00519720       0.00076050
H        7.97896743       4.79646445       7.20825329       0.00115667       0.00476344      -0.01191506
H        9.51989180       4.59569394       8.05239073      -0.00570438      -0.00397918      -0.00145288
H        9.19145631       6.09234898       7.12540324       0.00924002      -0.00152233      -0.00181425
H        9.81573824       2.71849988       5.10692037      -0.00393975      -0.00663100      -0.00018346
O        6.11211431       7.19999979       8.44183121      -0.00032735      -0.00977358       0.01575023
O        3.95453623       7.61409551       8.00781592       0.00244164      -0.00554793       0.00591260
C        4.88915232       8.36866267      10.07852623      -0.00397511       0.00472274       0.00407618
C        4.93082948       7.70450111       8.74504166       0.00059924      -0.00422722       0.00895995
H        5.14989723       7.64032728      10.84814071       0.00080997       0.01305802       0.01028326
H        5.63733158       9.16028200      10.09077959      -0.00940868       0.01002014      -0.00185708
H        3.90026461       8.77488079      10.26135450      -0.00649992       0.00024484       0.00029696
H        6.04239653       6.69781145       7.58065288       0.00050612      -0.01493336       0.01822680
O        3.55826915       5.44354059       6.58921411       0.00535226       0.00407797      -0.00080118
O        5.79202178       5.46559222       6.47355438       0.00624633      -0.01185697       0.01670049
C        4.63569081       3.43906226       5.96424156      -0.00597448       0.00396955      -0.01838399
C        4.72622454       4.87113883       6.35346487       0.00234753      -0.00182897       0.00101589
H        4.54245405       2.82852521       6.86754912       0.00681870      -0.00849152      -0.02531689
H        3.75500744       3.24693764       5.35507400      -0.01543985       0.01509755      -0.00781674
H        5.53479283       3.13392582       5.44126692      -0.01429877       0.00893702      -0.03565334
H        3.71988907       6.33457524       7.02290855       0.00822653       0.00059019       0.00673325
O       12.53597482      10.66582833       8.69413742       0.00148059       0.00300729      -0.00636476
O       13.44380617      11.92255909      10.28846860      -0.00277787      -0.01682913       0.01081675
C       12.36073988      12.99103465       8.41003304       0.02533183       0.00704753       0.00899163
C       12.82700306      11.82763220       9.21805899       0.00586395      -0.00366760       0.00338638
H       13.20476797      13.47402364       7.91398782       0.03542078       0.00675519       0.02653384
H       11.63739737      12.66589677       7.66735236       0.03395721       0.02005072      -0.00499250
H       11.90295254      13.72566028       9.06698395       0.02031404       0.00348984       0.00969954
H       12.69928471       9.89982583       9.31687393      -0.00514157      -0.00260293      -0.00940502
O        7.28609025       7.72627773       3.63052719       0.00249010       0.01289672       0.00227207
O        7.57809786       8.06185617       5.82680655      -0.00074947       0.00563644       0.00366008
C        5.52351546       8.78021740       4.82446730      -0.00201577       0.00345117       0.00416171
C        6.88544384       8.15707735       4.84570942      -0.00003397       0.00750707       0.00373745
H        4.97204512       8.51888477       3.92320830      -0.00216165       0.00061275       0.00515552
H        4.96805448       8.49220533       5.71434343       0.00009317       0.00327070       0.00541660
H        5.66583218       9.86257241       4.85626047      -0.00496356       0.00385091       0.00211015
H        8.23306341       7.50080688       3.71766505       0.00294524       0.01506618       0.00299910
O        5.44877017       2.51761523       0.64742080      -0.00673246      -0.02451205      -0.01047377
O        5.26750467       3.62242992       2.58796417      -0.01235646       0.00245708      -0.02626723
C        3.58246437       2.00930478       2.02003600      -0.00571066      -0.01201528      -0.00587311
C        4.83239175       2.80770312       1.81315576      -0.00883171      -0.00993234      -0.01569611
H        2.79526271       2.67680825       2.36557528      -0.00122872      -0.01566999       0.01045287
H        3.27006311       1.51969071       1.10259010      -0.01714772      -0.00456776      -0.00600220
H        3.80740324       1.26147519       2.78055305       0.00483776      -0.01878533      -0.01565976
H        6.24998034       3.06098487       0.61515576      -0.00832331      -0.02269468      -0.01826090
O       10.08526791       8.37082525       3.63208237       0.00582045       0.00647579       0.01407093
O       11.87131337       9.68636895       3.94205757       0.00913167       0.00109613       0.01645637
C       11.26832606       8.09005488       5.64514597       0.00729206      -0.00261587       0.01194739
C       11.14369906       8.80220753       4.34438870       0.00786173       0.00172865       0.01427191
H       10.38988816       8.32118023       6.25174514       0.01312792       0.00594278       0.01694518
H       11.27039179       7.01569508       5.46818950      -0.00490992      -0.00237098       0.01060464
H       12.17441679       8.40938455       6.14878869       0.01316139      -0.01287137       0.00791867
H        9.86752075       9.06180851       2.96728052       0.00731438       0.00908719       0.01582555
O       10.40679871       8.16622946      10.28272905       0.00633763       0.00863004      -0.00367337
O       12.62979613       8.44302902      10.09445720       0.00572443       0.00964424      -0.00812458
C       11.77485088       6.48922406      11.19592587       0.00947736       0.01176780      -0.00276172
C       11.66996865       7.78458157      10.46726806       0.00656077       0.01004881      -0.00506550
H       11.27220611       6.58236548      12.16001153       0.00260171       0.00903282      -0.00638683
H       11.26125196       5.71461736      10.62517896       0.01761337       0.00901455      -0.00645736
H       12.81837317       6.22474396      11.33566520       0.01009032       0.01746487       0.00347547
H       10.34710480       8.98694927       9.75723318       0.00359961       0.00623620      -0.00710538
O        7.81345410       1.37730175       2.78102424       0.00639310       0.00313346       0.01804686
O        5.87170309       0.27715827       2.91737965       0.00443411       0.00402176       0.00609809
C        7.09832246       0.71811575       4.93877280      -0.00124188      -0.00694105       0.01222551
C        6.83421658       0.75460053       3.47832932       0.00445276       0.00091705       0.01192588
H        7.84867824      -0.05706797       5.11476079       0.00112836      -0.00515872       0.01034184
H        7.51470380       1.65903013       5.29292870      -0.00581389      -0.00760430       0.01931131
H        6.19988295       0.45425162       5.48704320      -0.00249222      -0.01276589       0.00726600
H        7.66235294       1.13817394       1.85495851       0.00923178       0.00868160       0.01612338
O        4.51785452       4.81824172       9.39039921       0.00837719      -0.01987937       0.00574175
O        3.56177672       3.83316884      11.15650851       0.00395289      -0.01918364       0.00400728
C        2.17841842       5.00691035       9.55746282       0.00979257      -0.01306030       0.00331041
C        3.44538819       4.48093092      10.14401414       0.00723873      -0.01767930       0.00471085
H        2.26651501       6.07980519       9.38379135       0.01368372      -0.01334167       0.00436891
H        2.02209855       4.54861903       8.58103644       0.01019130      -0.01163552       0.00255439
H        1.34213439       4.80392241      10.21645884       0.00783278      -0.01138982       0.00133128
H        5.29562246       4.42304494       9.81005563       0.00569946      -0.03168395      -0.00020051
O       11.92075513      11.99926160      12.69344348      -0.01784592      -0.00172704       0.00170648
O       10.30007625      12.88601137      13.99078612      -0.00848064      -0.02115261      -0.00987200
C       10.15528848      10.54501737      13.40780957      -0.01316214      -0.00535667       0.00091515
C       10.71322110      11.90589859      13.45260274      -0.01880163       0.02180333       0.01032199
H       10.03609854      10.26290809      12.36130167      -0.01085552      -0.00259686       0.00181204
H       10.86189988       9.84170964      13.85519413      -0.01192620      -0.00159545       0.00140789
H        9.22861807      10.51286495      13.96676745      -0.01270616      -0.00370335       0.00160031
H       11.59682531      12.55123385      11.86855681      -0.01418994       0.00939798       0.00387138
O        4.01147336       6.77256585       1.19225668      -0.00568953       0.00178140      -0.00364929
O        2.26143010       7.78016682       2.15784632      -0.01078564       0.00068551      -0.01125209
C        3.34105171       5.98182505       3.33331677      -0.00734270       0.00715268      -0.00325543
C        3.11747489       6.93490308       2.21779673      -0.00823969       0.00329357      -0.00669707
H        3.17148363       4.96512928       2.97812075      -0.00140910       0.00542316      -0.00126339
H        4.38301059       6.00228394       3.65372976      -0.00810140       0.01258426      -0.00099321
H        2.67205822       6.21296160       4.15570304      -0.00995304       0.00635573      -0.00520125
H        3.79299055       7.46870846       0.55071162      -0.00659996      -0.00332135      -0.00845635
O        8.36042571       1.87833395      12.02484526      -0.00834900       0.00113787      -0.00255400
O        9.21940526       3.26180712      10.48430718       0.00270915      -0.00591576      -0.00400519
C        7.04510207       2.28554517      10.11073282      -0.00070739       0.00103733      -0.00726801
C        8.31258013       2.55081709      10.84704429      -0.00297856      -0.00244921      -0.00393371
H        7.06083658       1.26464171       9.71586676      -0.00123468       0.00112274      -0.00765206
H        6.18078279       2.36286898      10.77240669      -0.00230631       0.00090393      -0.00915805
H        6.96276820       2.96381419       9.26536304       0.00233020       0.00086258      -0.00781454
H        9.26587161       1.96761715      12.35324904      -0.00855631      -0.00402066      -0.00062128
O        6.40412949       9.36034884       1.25856488       0.01354313       0.02017236      -0.00198179
O        4.22952986       9.67780334       0.98653082       0.00970367       0.01170164       0.02028968
C        5.69642919      11.58204324       1.03358676       0.00355786       0.01665217      -0.01015704
C        5.37578806      10.14896240       1.07719421       0.00856245       0.01595286       0.00350882
H        5.93930657      11.90662408       2.04936660      -0.00274649       0.02690031      -0.01178986
H        6.59464337      11.77337884       0.45108543       0.00479716       0.01560687      -0.00811963
H        4.85615495      12.16180048       0.66788166       0.00211430       0.00983599      -0.01788577
H        6.12124589       8.44727387       1.44204190       0.01835883       0.02183133       0.01186238
O        2.70263903       4.36310452      13.99452818       0.00069511      -0.00246710       0.00756991
O        1.53354035       5.79080529      12.71961455       0.01023970       0.00338960       0.00541767
C        0.82110535       3.49707262      12.87008308      -0.00380898       0.00788379       0.00697364
C        1.68711981       4.68014678      13.17118176       0.00316518       0.00252783       0.00671846
H        1.25632265       2.99054320      12.00528404      -0.00281040       0.00077307       0.01171800
H        0.80329764       2.80075810      13.70701975      -0.01428419       0.01174220       0.00975701
H       -0.18589754       3.82186423      12.62391882       0.00017969       0.01438206      -0.00017891
H        3.26840105       5.14936459      14.08901886       0.00431503      -0.00502557       0.00821023
O        8.75778384       9.15583896       8.26068659       0.00177553       0.00323772       0.00715625
O        6.76239909      10.16102363       8.40259451      -0.00492144      -0.00749703      -0.01066560
C        8.45272011      11.18885484       7.04707447       0.00152171       0.00120401       0.00395137
C        7.87979371      10.16021110       7.95560364      -0.00084722      -0.00142148      -0.00098377
H        8.43886920      12.14868586       7.56463812      -0.01205603       0.00221598       0.00142708
H        9.45421856      10.93545267       6.71176323       0.00744863       0.00887126       0.01640271
H        7.78675973      11.27658204       6.18909480       0.01139165      -0.00654139      -0.00444597
H        8.22345364       8.47134217       8.69299422       0.00220382       0.00154578       0.00482437
O        1.42508310      -0.74434545      11.80310551      -0.01168078      -0.00254623      -0.00571635
O        2.04848684       0.91982835      10.41682048      -0.03806207       0.00424147      -0.01112878
C        3.64709239       0.19594542      12.06863136      -0.01494819       0.00945296      -0.02769613
C        2.35770660       0.22663597      11.32878672      -0.02170157       0.00176913      -0.01107675
H        4.05077916       1.20250903      12.14916381      -0.01762694       0.01094696      -0.03405322
H        3.55548926      -0.25773303      13.05405415      -0.00242585       0.01129149      -0.02544072
H        4.33892534      -0.39959160      11.46319136      -0.01938295       0.01031452      -0.03353727
H        0.78690811      -0.92030681      11.03148538      -0.01570621      -0.01074464      -0.00252509
O        2.14647126      10.93016854       0.82616072      -0.00012493      -0.00437722      -0.00471401
O        0.12813673      10.71247408       1.60233909      -0.00238922      -0.01658214      -0.01478121
C        1.89520493      10.49383714       3.21224554      -0.00830495      -0.00442354      -0.00628036
C        1.33616647      10.66992648       1.85471107      -0.00327299      -0.00885478      -0.00886482
H        2.71606802       9.78252265       3.20778415       0.00216714       0.00802261      -0.00323340
H        2.29093353      11.46219431       3.54140369      -0.02339968       0.00048497      -0.00289860
H        1.10958725      10.16071144       3.88471516      -0.00731555      -0.01589522      -0.01102585
H        3.12647190      10.47553983       0.92142973       0.00168201       0.00616112       0.00543953
O        7.61675499       8.20499346      12.52696378      -0.00722262      -0.01020306       0.00152144
O        9.47113628       7.40569157      13.50443814       0.00230026      -0.00377488      -0.00961149
C        8.05543502       5.91354880      12.24562198       0.00465080      -0.00682569      -0.01030210
C        8.48601173       7.21886195      12.83428391      -0.00169361      -0.00735837      -0.00731105
H        7.04072383       5.67754472      12.57139019       0.00423874      -0.01020132      -0.01401839
H        8.04068934       5.99115642      11.15796040       0.00762664      -0.00451823      -0.01027584
H        8.74380559       5.12723141      12.53531113       0.00592650      -0.00579141      -0.01049370
H        7.94971594       9.01935535      12.93258464      -0.01042867      -0.01019445       0.00326034
O        0.10625937       5.22976733       1.94426365      -0.01810384      -0.00656605       0.00381851
O       -0.52560183       6.60192858       3.59708256      -0.00197636      -0.00376606       0.00656998
C       -0.71640854       7.35728793       1.31024660      -0.02105734      -0.00595140       0.00849962
C       -0.38724314       6.41242452       2.41817268      -0.01154462      -0.00527983       0.00662482
H        0.13890011       7.45085471       0.64127270      -0.03512107      -0.01943325      -0.01087667
H       -1.54808810       6.95463465       0.72991314      -0.03990097       0.00286826       0.02982219
H       -0.99191513       8.31930561       1.73366355      -0.00033094      -0.00077280       0.00979500
H        0.25707902       4.68448739       2.72947192      -0.01940126      -0.00795133       0.00323474
O       11.25780639      14.12449257       2.37322254       0.00534272      -0.01247185      -0.00591433
O       13.14585738      13.42702989       1.42395331       0.00423756      -0.01373746      -0.00959079
C       12.73630034      12.95387842       3.75091457       0.01393720       0.00244810      -0.00370169
C       12.41130678      13.52896767       2.43367310       0.00517413      -0.00752893      -0.00578322
H       12.30929494      13.54591355       4.55587279       0.01487347       0.00684854      -0.00619149
H       12.25070217      11.96778568       3.77785889       0.01764256       0.00102258       0.00494378
H       13.80568698      12.82510462       3.87784426       0.01488569       0.00717357      -0.00708337
H       10.92641558      14.11016769       1.44900122      -0.00037315      -0.02113727      -0.00604242
O        2.30088076      13.77900103       4.71110801       0.01333428       0.00067478       0.00329649
O        0.78712279      14.63308936       6.11829576       0.01498461      -0.00505960       0.00846441
C        1.96715555      12.63354100       6.76267832       0.00676739      -0.01286107      -0.00479472
C        1.60626835      13.77505301       5.88142828       0.01275647      -0.00427526       0.00276731
H        2.59627273      11.90595792       6.26148728       0.02951387       0.00405429       0.00019222
H        2.54360063      13.03757471       7.59799634      -0.02222055      -0.01839377       0.01699209
H        1.06380077      12.17398523       7.15742215       0.00254260      -0.03197339      -0.03690111
H        2.05208148      14.59820272       4.25958943       0.01504737       0.00340223       0.00751211
O       13.91171657       6.15570178       7.06537412       0.01232690       0.00142485       0.01191697
O       12.13296486       5.45550640       8.23095097      -0.00491071       0.00976101      -0.00943482
C       13.10293316       3.99365879       6.57941706       0.00210613       0.00880808      -0.00453216
C       12.97368187       5.24341062       7.38923176       0.00266629       0.00669113      -0.00129843
H       12.75844026       4.21774185       5.56691636       0.00301520       0.01298245      -0.00392595
H       14.13849516       3.66344752       6.52042481       0.00141835       0.00683231      -0.00396539
H       12.48483568       3.20924664       7.00530629      -0.00065041       0.00899399      -0.00806269
H       13.73195079       6.94198208       7.60227365       0.01258448       0.00060830       0.01320779
