193
Lattice="13.425889621108682 0.0 0.0 0.0 13.425889621108682 0.0 0.0 0.0 13.425889621108682" Properties=species:S:1:pos:R:3:forces:R:3 energy=-505322.75 stress="0.0015547339571639895 0.00011953300418099388 0.0008758939511608332 0.00011953300418099388 0.0014422622043639421 0.000681124278344214 0.0008758939511608332 0.000681124278344214 0.000768190308008343" pbc="T T T"
Tm      13.80243326      11.65525168       2.08566331       0.01026507       0.00057873      -0.00084856
Cl       4.60665513      13.14872899       4.25413341       0.00185649       0.00224579       0.00410405
Cl       7.45691485      12.51139162      11.22368410       0.00984275      -0.00321425       0.01694714
Cl       1.76197928      12.08338384       0.07738649       0.02951920      -0.02337756       0.00494038
O        4.95000646       9.46792042       7.37760001       0.00156313       0.00756454       0.00209770
C        5.57195925      10.25800394       8.39107300       0.00302602       0.00393292       0.00395399
C        4.59631673      10.77586051       9.42630926       0.00334072       0.00346199       0.00490212
H        6.36663353       9.68441774       8.88405160       0.00175282       0.00132495       0.00304455
H        6.05270510      11.08640214       7.86898975       0.00483891       0.00440276       0.00595659
H        5.12926370      11.39593305      10.15087977       0.00391819       0.00036702       0.00725794
H        3.81444267      11.37002998       8.94994958       0.00489853       0.00638598       0.00589100
H        4.12166600       9.94943242       9.96260732       0.00110876       0.00287415       0.00209732
H        4.46855065       8.73699715       7.79160385       0.00202882       0.00636286       0.00062247
O        9.60123943       7.30533641       9.95291791       0.00009698       0.00556173      -0.00119597
C        8.75622339       7.37829253      11.09076060       0.00419796       0.00552708       0.00021058
C        8.53724403       8.81947498      11.48398636       0.00521240       0.00426990       0.00288295
H        7.79182583       6.90147924      10.88815072       0.00418299       0.00397843       0.00580704
H        9.20294412       6.81478414      11.92830099       0.00909212       0.00438637       0.00030196
H        7.95123739       8.88179834      12.40153998       0.00699624       0.00412132       0.00387184
H        9.48880942       9.33252048      11.63433347       0.00521038       0.00537278       0.00068571
H        8.00148571       9.37002831      10.71290427       0.00311662       0.00475837       0.00389007
H        9.33903835       6.50633727       9.45866472       0.00039165       0.00341600      -0.00039035
O        3.86390004       9.41142998       0.61391867      -0.01426458      -0.02481642      -0.00156858
C        5.27589526       9.63457756       0.44088385      -0.01633334      -0.01474443      -0.01009630
C        5.71348501      11.03874579       0.79117520      -0.02871249      -0.01172805      -0.00942904
H        5.75887604       8.90889056       1.10281711      -0.00692195      -0.01244876      -0.01548046
H        5.56434461       9.39159670      -0.58617381      -0.02273822      -0.01043423      -0.01273304
H        6.79970891      11.11119738       0.70293709      -0.03140248       0.00305024      -0.02344368
H        5.31321476      11.76503409       0.08332941      -0.04787005      -0.01334600       0.00009358
H        5.41448979      11.31669682       1.80322273      -0.01991087      -0.02020166      -0.00473389
H        3.39074582      10.19025819       0.28442424      -0.02244073      -0.02705567       0.00395880
O       12.82695752      13.15812765       3.57518485      -0.00375915      -0.00696385      -0.00117478
C       11.53042584      13.11968926       4.23242973      -0.00908501      -0.00164568      -0.01172878
C       11.06784469      11.69146632       4.35853758      -0.01385590       0.00042060      -0.00877471
H       11.63813876      13.56495000       5.22246859      -0.01608681       0.00269724      -0.01254573
H       10.82056532      13.71923483       3.65934515      -0.00305444      -0.00191736      -0.01976010
H       10.06958270      11.67134984       4.79726780      -0.01722601       0.00487388      -0.01601008
H       11.00968974      11.19766275       3.38348494      -0.00788949      -0.00377618      -0.00687490
H       11.73249688      11.12127109       5.01066009      -0.01982591       0.00105139      -0.00178935
H       13.29887653      13.93810790       3.94774142      -0.00445044      -0.00660408      -0.00039276
O        7.11112899       0.11494380       6.59463246      -0.00881118      -0.00967360      -0.00434017
C        6.72692546       0.89112408       7.72510463      -0.01018396      -0.00847435      -0.00603497
C        7.96954890       1.45200271       8.37436174      -0.01039141      -0.01278774      -0.00162587
H        6.06136134       1.70663744       7.40991017      -0.00668502      -0.00626981      -0.00791857
H        6.18760728       0.28012803       8.46089746      -0.01511005      -0.00672585      -0.00787854
H        7.70274738       2.10352703       9.20618505      -0.01060227      -0.01395919      -0.00056876
H        8.57770022       0.64946825       8.78592893      -0.01344092      -0.01534647      -0.00208944
H        8.55942429       2.02137464       7.65316397      -0.00743241      -0.01257471       0.00088170
H        6.32528120      -0.08195989       6.06584866      -0.00785689      -0.00590436      -0.00827405
O        5.69044047       6.58983071      12.41922215      -0.00443403      -0.00197759      -0.01190096
C        5.50060376       5.26406745      11.94098865       0.00184742      -0.00558561      -0.00233203
C        6.60578060       4.30802359      12.34661285       0.00617087       0.00168511       0.00354877
H        4.52381554       4.87722075      12.26893521       0.00359756      -0.00826037      -0.00078268
H        5.46839539       5.36035091      10.85323743       0.00151227      -0.01284009      -0.00336015
H        6.42941108       3.30969192      11.93804122       0.01093267      -0.00136319       0.00864406
H        7.56998745       4.66570461      11.98516150       0.00475164       0.00409383       0.00175042
H        6.66317638       4.21696985      13.43272292       0.00630273       0.00804498       0.00399143
H        5.54883499       6.58263021      13.37099791      -0.01876575       0.00635655      -0.01177680
O        8.59370272       5.15170158       8.54935808       0.00469130       0.00016841       0.00093850
C        7.18851321       4.92883885       8.56028386       0.00540513      -0.00201559       0.00032371
C        6.37335434       6.17262753       8.25750794       0.00338978      -0.00272405       0.00199950
H        6.93201323       4.12641344       7.86244249       0.00633785      -0.00168222      -0.00040555
H        6.95981341       4.55867151       9.56119422       0.00602899      -0.00351175       0.00030777
H        5.30565047       5.95675259       8.34268563       0.00351168      -0.00441855       0.00069027
H        6.61746054       6.98339957       8.94670862       0.00154104      -0.00344767       0.00346479
H        6.54764634       6.52795313       7.24173469       0.00410189      -0.00082932       0.00260250
H        8.90985004       5.27257033       7.63426120       0.00436565      -0.00131921      -0.00113841
O        2.71691825       5.81960773       9.80594538      -0.00116718      -0.00179297       0.00173026
C        2.29438107       4.44949177       9.78139877      -0.00111172      -0.00113565       0.00131921
C        3.38013090       3.50831409       9.30528067      -0.00276023      -0.00173730      -0.00159445
H        1.93135132       4.16552397      10.77365299      -0.00075870      -0.00257223       0.00094360
H        1.44113854       4.42884738       9.10164306      -0.00218746       0.00030933       0.00172111
H        3.00144105       2.48647096       9.24792251      -0.00394522      -0.00134009      -0.00245217
H        3.73030467       3.79812905       8.31412872      -0.00374701      -0.00081226      -0.00170070
H        4.23272603       3.50444015       9.98586229      -0.00177865      -0.00353034      -0.00260249
H        3.34062557       5.94786323      10.52928199      -0.00298297      -0.00093390       0.00682685
O        0.26335700       1.92539676       4.92239084      -0.02351689       0.00531182      -0.00185978
C        1.46302728       2.66870906       5.23478306       0.00163841      -0.00997764      -0.00898568
C        1.23812728       4.15528636       5.07833063       0.00321329      -0.00746214      -0.00611006
H        1.78134754       2.42298635       6.25288570      -0.00743085      -0.01163021      -0.00648934
H        2.22538393       2.29345207       4.55382016      -0.00446036      -0.01044506      -0.00311607
H        2.14861419       4.71175155       5.30749956       0.00553669      -0.01178048      -0.00024708
H        0.93550999       4.39373348       4.05823882       0.01060203      -0.00465009      -0.00700970
H        0.45737390       4.50720938       5.76015505       0.00178075      -0.00558166      -0.00969017
H       -0.47183998       2.33876111       5.38744270       0.01292568      -0.01190424      -0.02402684
O       10.31011097      12.01238104      10.21025793       0.00808722      -0.01723595       0.01784468
C       10.31512505      11.79292141       8.81470873       0.01277861      -0.00505015       0.01585019
C        9.27653419      10.77477688       8.37916640       0.01054549       0.00346464       0.00205565
H       10.14721081      12.73408333       8.26999604       0.01966667       0.00116557       0.02402034
H       11.32457358      11.45247922       8.55521993       0.01271957      -0.00686032       0.01712275
H        9.22584248      10.71210825       7.28971929       0.01743356       0.01124780       0.00145972
H        9.49788864       9.78758016       8.78796164       0.00285683      -0.00062680      -0.00324340
H        8.29755437      11.08953781       8.73982187       0.00933795       0.00531190      -0.00232382
H        9.37646083      12.20218372      10.49111262       0.00825559      -0.01376422       0.01590326
O        4.34632755       7.10987976       5.00460506      -0.02075738       0.00364864       0.00063685
C        5.46578962       7.91068902       4.62635988      -0.01121862      -0.00626600       0.00373828
C        5.06807378       9.27930851       4.11388526       0.00155008      -0.00362325       0.00015366
H        6.14716002       8.03127997       5.47452941      -0.01526436      -0.01025583       0.00766200
H        5.98987430       7.34088585       3.85252487      -0.01193720      -0.01107624       0.00810659
H        5.94388641       9.83406452       3.76899572       0.00730927      -0.01240811       0.00076509
H        4.36557416       9.20359817       3.28130085       0.00288631       0.00011276      -0.00168578
H        4.62571543       9.86590405       4.91774699       0.00433453       0.00254534      -0.00312001
H        4.05319394       7.37033721       5.88904116      -0.01420706      -0.00226545       0.00298335
O        2.40599939       6.83711739       0.54252890       0.01885667       0.03735912      -0.00625929
C        2.71238570       6.10224189       1.73619616       0.00528315       0.02898358      -0.00892790
C        4.19562044       5.86588961       1.90972552       0.00088185       0.00539688      -0.00492252
H        2.32654245       6.62517251       2.61788697       0.01125622       0.03099531      -0.00763470
H        2.17693402       5.15363181       1.65296046      -0.00925313       0.03781280      -0.01348244
H        4.41143688       5.42081501       2.87990622      -0.00957481      -0.00594231      -0.00784159
H        4.58795988       5.19961919       1.14050126      -0.00524254       0.00535844      -0.00791575
H        4.72474768       6.82271856       1.88296282       0.01687602      -0.00353010       0.00552136
H        2.93418115       7.65864406       0.54109814       0.02033257       0.03868079       0.00231472
O        2.04179341      11.77677861       3.65610822       0.00121200       0.00759643       0.00644914
C        1.74562248      11.12683023       4.91523525       0.00058696       0.00645727       0.00591121
C        1.87586191      12.05107847       6.10344872      -0.00772980       0.00807312       0.00576177
H        0.71375090      10.76482553       4.83096459       0.00260234       0.00112633       0.00286939
H        2.39399212      10.25313551       5.01856917       0.00499418       0.01002476       0.00833685
H        1.55108534      11.53238488       7.00721166      -0.00404891       0.00574935       0.00574546
H        2.91122964      12.36191857       6.22697656      -0.01009765       0.01616369       0.00645697
H        1.25759797      12.93989988       5.97053039      -0.01477373       0.00309916       0.00510562
H        2.94611740      12.22966049       3.75051468       0.00217763       0.00644046       0.00699016
O        9.74420589       5.94591225       6.20109339      -0.00469284      -0.02273619      -0.03140837
C        9.16442753       7.24831636       6.00782566      -0.00020745      -0.00148582      -0.00121307
C       10.18253043       8.26173773       5.53978242       0.00745437      -0.00685290      -0.00240613
H        8.32815052       7.17722249       5.30712817      -0.00012186       0.00372805      -0.00420702
H        8.76625648       7.54300761       6.97983083       0.00471690      -0.00368494      -0.00590420
H        9.69190255       9.22058544       5.36502966       0.01519592      -0.00497065       0.00465526
H       10.95354843       8.40498938       6.29750319       0.01035666      -0.01875713      -0.00422600
H       10.65129373       7.94126503       4.60830641       0.00237608      -0.00729109      -0.00498459
H        9.75731206       5.48669777       5.35494504      -0.01810834       0.00809559       0.01311284
O       13.47878865       8.10564154      13.23997313       0.01980370       0.02665314       0.00435941
C       12.49308998       7.64975385      12.30179654       0.01535109       0.00935599       0.01991570
C       13.10316856       7.02731414      11.06744862       0.00534752       0.01230840       0.01473927
H       11.82738305       6.92246847      12.78415906       0.03115904      -0.00000587       0.03498644
H       11.90039795       8.52635620      12.03852193      -0.00244881      -0.00211304       0.02521740
H       12.30728283       6.79667679      10.35664655       0.00066225       0.00268255       0.02342427
H       13.81080928       7.70992946      10.59789960      -0.00812733       0.02061823       0.00479819
H       13.63158297       6.10418153      11.31213496       0.02003598       0.02011116       0.00954436
H       14.19513530       7.44998511      13.36452643       0.02990057       0.03406852       0.00426649
O        7.08899955       4.01599930       3.76023084      -0.00168066       0.00014256      -0.00332427
C        6.68969893       4.05500832       5.11698108      -0.00026357      -0.00083958      -0.00293922
C        5.24928339       3.61734115       5.32192188      -0.00051844       0.00090781      -0.00136785
H        7.35517651       3.42896953       5.72836811      -0.00007397      -0.00256035      -0.00419027
H        6.80929246       5.09137380       5.44708621       0.00190251      -0.00147521      -0.00151885
H        4.97991036       3.68475523       6.37913399       0.00067946       0.00124220      -0.00110006
H        4.57959191       4.27074710       4.76331762      -0.00032806       0.00175771      -0.00074768
H        5.10396535       2.58425727       4.99954502      -0.00223737       0.00089994      -0.00122671
H        7.11413802       3.06674641       3.51292781      -0.00299434       0.00106678      -0.00568143
O       13.29815417       9.44586421       2.05032037       0.00504428       0.00458682       0.00680235
C       13.48414903       8.50813394       3.14496643      -0.00069046       0.00198425       0.00547677
C       12.82844421       7.17392593       2.88492810       0.00221285       0.00217634      -0.00422095
H       14.55745177       8.39612500       3.32686179      -0.00162169       0.00194700       0.01145583
H       13.03823212       8.97696868       4.02418201      -0.00613904      -0.00174086       0.00457850
H       12.89257657       6.56412729       3.78877802       0.00016721      -0.00310984      -0.00749055
H       11.77706622       7.28515656       2.62041045       0.00272211       0.00218850      -0.00683289
H       13.32350925       6.63477399       2.07793656       0.00587672       0.00771994      -0.00554943
H       13.30364270       8.92948679       1.18137894       0.01090994       0.00711316       0.00401643
O        3.04134379       7.46386586       7.64663297       0.00506721       0.00513577       0.00828996
C        1.95194218       8.38833390       7.67310371       0.00093243       0.00043206       0.00495189
C        0.74132247       7.87608108       6.92122710       0.00432986      -0.00636098       0.00403982
H        1.69384358       8.62853594       8.70885367      -0.00159319       0.00094104       0.00448799
H        2.33292470       9.30097449       7.21362191      -0.00229640       0.00145859       0.00420365
H       -0.03280565       8.64671280       6.88499136       0.00057992      -0.01019771       0.00171809
H        1.01909799       7.60964641       5.89966789       0.00706906      -0.00687098       0.00486675
H        0.30970555       6.99749767       7.40393264       0.00789247      -0.00770773       0.00501026
H        2.91984399       6.81238062       8.36454023       0.00440565       0.00291838       0.00625883
O        7.15564968       1.32344431       3.23063466      -0.00308561       0.00138114      -0.01103914
C        7.24529161       1.04046912       1.83385946      -0.00410047      -0.00317777      -0.01036543
C        5.95977817       1.33252872       1.08967330      -0.00472379      -0.00615878      -0.01052654
H        8.05994948       1.66447433       1.45933185      -0.00470287      -0.00353339      -0.01283047
H        7.53777104      -0.00551953       1.68423996      -0.00341876      -0.00349492      -0.00723600
H        6.09150018       1.12562886       0.02611248      -0.00512326      -0.00991156      -0.00981726
H        5.15159168       0.70740615       1.46973998      -0.00438580      -0.00512312      -0.00791450
H        5.67558488       2.37776415       1.22757156      -0.00466519      -0.00591029      -0.01382679
H        6.40437560       0.81205431       3.59200857      -0.00193641       0.00137579      -0.00812972
O       12.04275369      11.99057850      13.92717161       0.01929919       0.01216683      -0.00426292
C       10.60676541      12.11570240      13.61433155       0.01721506       0.00830904       0.00190394
C       10.24825745      13.51403638      13.19660668       0.01225293       0.00698638       0.00110583
H       10.36821645      11.40706603      12.82007624       0.01607706       0.00634718       0.00382945
H       10.08839600      11.81172017      14.52352851       0.02202721       0.00842261       0.00446254
H        9.19736537      13.52657049      12.89560490       0.01107678       0.00321743       0.00407611
H       10.41983765      14.22876073      14.00196024       0.01257830       0.00859017      -0.00043096
H       10.82251547      13.80280154      12.31560169       0.00869206       0.00728228      -0.00115110
H       12.52264019      12.15971462      13.10253216       0.01499332       0.00728083      -0.00744915
O        9.82356980       6.56505767       1.31903018       0.01719570       0.01633750      -0.04090357
C        8.64520924       7.31642663       1.60471957      -0.01800979      -0.00061250       0.01773936
C        8.95798467       8.77776749       1.86230912      -0.01016910       0.00154233       0.00112785
H        7.92604596       7.21716679       0.78257635      -0.00876746      -0.00334278       0.00688404
H        8.20474327       6.84074071       2.48308167      -0.00031333       0.00347868       0.00169817
H        8.05461657       9.33599010       2.11515862      -0.01312412      -0.00105464       0.00346884
H        9.66588363       8.87478992       2.68633066      -0.01014160       0.00528169       0.00226887
H        9.39552444       9.23866376       0.97396377      -0.01359046       0.00326984       0.00210717
H       10.16421989       6.88198476       0.47590686      -0.02912720      -0.01804481       0.02824590
