196
Lattice="13.349762408647853 0.0 0.0 0.0 13.349762408647853 0.0 0.0 0.0 13.349762408647853" Properties=species:S:1:pos:R:3:forces:R:3 energy=-1077743.375 stress="-0.0012276432244107127 3.328504317323677e-05 0.00013480981579050422 3.328504317323677e-05 -0.0004508180427365005 -0.000601541600190103 0.00013480981579050422 -0.000601541600190103 -0.0012650928692892194" pbc="T T T"
Tm       9.85018448      12.84526614       2.75346681      -0.00345081       0.00622443       0.00287271
I       10.37585634      13.17975269      12.36235729       0.01197355      -0.00374685       0.00780405
O       11.87693234      13.81360584      11.65957475       0.01680857      -0.00257289       0.01965232
O        9.09364709      14.40971494      12.45609231       0.01379612       0.00785467       0.00569566
O        9.82637630      11.68319393      11.57572391       0.01076673       0.00291032       0.00791481
O       10.72918322      12.71374925      14.09867435       0.00158188      -0.00535659       0.00822238
I        7.97911867      11.54953729       5.85051553      -0.01896650       0.00053072      -0.01339853
O        7.42076187      13.38685878       5.32921131      -0.00936896       0.00426084      -0.00781867
O        9.51209460      11.99895871       6.75827730      -0.01796168      -0.01381224      -0.00686693
O        6.76698373      11.70720699       7.21499297      -0.01915491       0.00444600      -0.01487219
O        8.96226680      11.59641662       4.06299436      -0.00904235       0.00283858      -0.00757891
I        3.45676885      11.92233379       2.37775260      -0.00401495       0.00797474       0.00121030
O        4.45200537      11.86718287       0.89484103      -0.00390851       0.01101692       0.00269958
O        3.90227484      13.38464583       3.30581530      -0.00909334       0.00687045       0.00371674
O        1.73524716      11.89383509       1.94343122      -0.00593394       0.00561239      -0.00084890
O        3.89146241      10.45749533       3.33007322      -0.00453550       0.00776455      -0.00102678
O        4.86606288      13.59462141      11.89178847      -0.01247215       0.00058776       0.02019471
C        4.22446870      12.48174239      11.28233925      -0.00829321       0.00793982       0.00178415
C        5.12554481      11.26488284      11.22144645      -0.00746274       0.00846696      -0.00224562
H        3.30440184      12.23709634      11.82519333      -0.01253462       0.00320032      -0.00701928
H        3.94516049      12.80372883      10.27673750      -0.00083522       0.01802807       0.00402141
H        4.57963908      10.40008380      10.84279800      -0.00351163       0.01172838      -0.01473395
H        5.98495709      11.44194243      10.57466074      -0.00296158       0.01469342       0.00529961
H        5.47892687      11.02154155      12.22294685      -0.01445295       0.00026342      -0.00202298
H        4.98130272      13.35083197      12.81873425      -0.02907927      -0.00633974       0.01689447
O        3.66504837       7.97960366       1.91898478       0.00545317       0.00663254      -0.00279367
C        3.69391077       8.34073214       0.54481673      -0.00042337       0.00446200      -0.00318438
C        2.33736062       8.76839997       0.01661598      -0.00361764      -0.00180730       0.00042441
H        4.43460495       9.13135631       0.37139210      -0.00398064       0.00680178      -0.00696339
H        4.04500071       7.45491302       0.00981289       0.00132744       0.00484121      -0.00268006
H        2.40179271       8.97092679      -1.05548124      -0.00781732      -0.00355684      -0.00010429
H        1.60391734       7.97900857       0.18640652       0.00008538      -0.00420487       0.00405168
H        1.98788743       9.67711863       0.51015530      -0.00541236      -0.00224426      -0.00000197
H        3.63372427       8.79719638       2.44225926       0.00356067       0.00764129      -0.00354080
O        4.02017479       9.20138136       5.80606993       0.00289825       0.00542012      -0.00251734
C        4.92071246       8.95176202       6.88706754      -0.00022331      -0.00094532      -0.00165468
C        4.49297834       9.57659315       8.19316565      -0.00022444      -0.00263754      -0.00112885
H        4.96923273       7.86465888       6.99409552      -0.00483645      -0.00113761      -0.00502574
H        5.92198519       9.31278507       6.64239667       0.00158077      -0.00357983       0.00092132
H        5.21160184       9.29783042       8.96447898      -0.00126339      -0.00466829      -0.00097248
H        4.50148614      10.66338849       8.11515801       0.00112609      -0.00260782       0.00004952
H        3.50525046       9.22797991       8.49683449      -0.00096017      -0.00164521      -0.00224696
H        4.22843186      10.03190238       5.36207181       0.00427508       0.00843940       0.00353064
O        9.75885642       7.87522232      10.07764208       0.00026679       0.00591373      -0.00968480
C        9.07174472       8.20586878      11.27541048      -0.00251848       0.00658900      -0.01126525
C        7.67558283       8.72573123      11.00073544      -0.00398910       0.00138664      -0.01464769
H        9.02753410       7.30067789      11.88467018      -0.00027872       0.00948924      -0.00865608
H        9.63625516       8.95087535      11.84881051      -0.00592494       0.01106775      -0.01324052
H        7.13824608       8.87400034      11.93701281      -0.00560276       0.00180798      -0.01521474
H        7.72553229       9.67633269      10.46725232      -0.00769252      -0.00023097      -0.01699921
H        7.12236192       8.01395718      10.38433764      -0.00114360      -0.00255364      -0.01286120
H        9.70553602       8.65737845       9.49241298       0.00587766       0.00459062      -0.00938460
O        8.52845816       8.63783227       0.92166476      -0.00709963      -0.00712508      -0.01103289
C        8.89723443       9.97752137       1.22998098      -0.00660813      -0.01040345      -0.00480481
C        7.76600776      10.94519372       0.94373221       0.00031644      -0.00414866      -0.00730047
H        9.21043179      10.05159004       2.28109016      -0.01030658      -0.01342624      -0.00352407
H        9.76015482      10.19623720       0.59893403      -0.00196502      -0.01207181      -0.00025228
H        7.99468626      11.98069817       1.22206886       0.00666550      -0.00638399      -0.00649731
H        7.52698334      10.95165829      -0.11923804       0.00248573      -0.00183013      -0.00776100
H        6.86797295      10.67935590       1.50748218      -0.00236405       0.00134923      -0.00902595
H        7.62438713       8.49420040       1.21303672      -0.01719210      -0.00308898      -0.01958708
O       11.86037703      13.24231018       5.97897812      -0.01159764      -0.02368235       0.00863445
C       12.03863452      13.38327963       4.59766693      -0.01436917      -0.00495429       0.01224101
C       12.18952249      12.04928938       3.86862193       0.00755543       0.00187641      -0.00325617
H       11.20838873      14.01246220       4.17529121      -0.00196514       0.03226812       0.03089212
H       12.94723719      13.96658377       4.44315036      -0.00827092      -0.00070384       0.02544586
H       12.32145672      12.17807158       2.78294849       0.01523163       0.02696779       0.01181742
H       13.10217920      11.56407058       4.21702158      -0.00043175      -0.00694083      -0.00978398
H       11.34919751      11.37756629       4.09182094       0.01452328       0.00987290      -0.02284868
H       11.00722486      12.79165611       6.16382743      -0.01619625      -0.02141236      -0.00198134
O        6.30892423       1.58985548       7.37923482       0.00680290      -0.00330190       0.01090336
C        6.29468279       0.97292755       8.67223008       0.00147551      -0.00097027       0.01180255
C        7.67425351       0.87383960       9.27810008       0.00106233      -0.01102683       0.01142079
H        5.63597112       1.58646353       9.29101761       0.00658941       0.00516686       0.00966549
H        5.86651750      -0.02565746       8.57487171      -0.00679527       0.00221705       0.01310675
H        7.60419623       0.46649392      10.28764800       0.00215288      -0.00188469       0.01511611
H        8.30063594       0.21269606       8.67888068      -0.00608820      -0.02063757       0.01540896
H        8.14666779       1.85510306       9.34261367       0.00934371      -0.01472588       0.00379637
H        6.70231204       0.97741325       6.72786137      -0.00243329      -0.00674155       0.01080461
O        6.50962933       6.31300061      13.12203293      -0.00180969      -0.00081441       0.00396538
C        5.94638293       5.28260647      12.32124743       0.00042859      -0.00263625       0.00311793
C        6.58409059       3.93408921      12.57365899       0.00661042       0.00009406       0.00082174
H        4.86074873       5.22281627      12.48920345       0.00113016      -0.00708942       0.00568362
H        6.10948918       5.59958340      11.28893925      -0.00334822      -0.00138871       0.00327468
H        6.12150551       3.14757641      11.97405850       0.00895295      -0.00105815       0.00082678
H        7.65072526       3.95445307      12.35287653       0.00611949       0.00524865      -0.00098441
H        6.46057023       3.65031324      13.61949224       0.00969934      -0.00155910       0.00071791
H        6.45792354       6.03315071      14.04116043       0.00270022      -0.00142722       0.00135123
O        7.42631576       6.12300426       7.69840501      -0.00810516       0.00366747      -0.01018555
C        8.54781892       5.42145564       8.22859764      -0.00634140       0.00797635      -0.00686139
C        8.28005724       4.85814079       9.60878651      -0.00752534       0.00813498      -0.00741941
H        8.83888102       4.61013329       7.54790012      -0.00182094       0.00915766      -0.00514039
H        9.36582776       6.13940366       8.28458072      -0.00963253       0.01149470      -0.00547355
H        9.12072613       4.24812837       9.94643232      -0.00505087       0.01235228      -0.00552641
H        8.13943998       5.66711161      10.32409589      -0.01292512       0.00722989      -0.00730816
H        7.39484889       4.21815463       9.60344249      -0.00403799       0.00344464      -0.00909558
H        6.72737740       5.44506747       7.57368276      -0.00630914       0.00092687      -0.00820176
O        3.46805164       6.20739983       9.84090486       0.00832641      -0.00337368       0.01019764
C        2.71088449       5.00849887       9.94490207       0.00009105      -0.00686955       0.00006564
C        3.54019737       3.75185303       9.78970433       0.00513035      -0.00377220       0.00141411
H        2.15431738       4.99605029      10.89173198       0.00188830      -0.00737580       0.00145358
H        1.97916250       5.07060864       9.13763850       0.00295499      -0.00700992       0.00203687
H        2.89818017       2.86880904       9.80253429       0.00651766      -0.00537510       0.00111673
H        4.08798180       3.77663209       8.84803446       0.00459982      -0.00272392       0.00132832
H        4.25219655       3.64197036      10.60918385       0.00481370      -0.00274632       0.00128287
H        4.13964671       6.19989008      10.52887362      -0.00826420      -0.00227311      -0.00298833
O       10.01447233       9.98637379       8.42293483       0.01494741       0.00318719      -0.00422662
C       11.38516760       9.89097325       8.07917527       0.01555103       0.00655532       0.00157802
C       12.25871489      10.73401267       8.98474903       0.01189709       0.00928205       0.00303578
H       11.65102582       8.83361329       8.16677036       0.01816357       0.00752056       0.00516528
H       11.52304838      10.18361108       7.03294035       0.02091749       0.00463149       0.00160927
H       13.31283870      10.60440490       8.72906583       0.01301903       0.00613902       0.00908616
H       12.00984330      11.79029118       8.87954510       0.01546098       0.00919664      -0.00254246
H       12.10627209      10.45030344      10.02686437       0.00663761       0.01312513       0.00308448
H        9.67649244      10.80702703       7.99772815       0.00760169      -0.00556360      -0.01885686
O        7.75249314       7.95179035       5.15613787       0.00700837      -0.00361308      -0.00316828
C        6.82492599       8.27324794       4.11640055       0.00447422      -0.00323395       0.00129670
C        6.60914984       7.13893815       3.13645327      -0.00024851      -0.00545746       0.00550282
H        5.86746791       8.58806519       4.53331339       0.00740683       0.00129224       0.00276095
H        7.26346486       9.13915779       3.61549547       0.00708032      -0.00642410      -0.00199348
H        5.93201591       7.47510392       2.34626116      -0.00419851      -0.00558605       0.00855903
H        7.55986446       6.79774522       2.72149319      -0.00250444      -0.00656558       0.00102057
H        6.11527583       6.29842893       3.62261579       0.00219358      -0.00369689       0.01029511
H        7.36186035       7.38440853       5.83798471       0.00679730      -0.00424486       0.00311700
O        1.50521680       4.55554074       3.11841205      -0.00405288      -0.00968102      -0.00910747
C        2.91291572       4.59346503       3.04860644      -0.00433886      -0.00110015      -0.00074661
C        3.42362523       4.48020617       1.62414173       0.00486445      -0.00088197       0.00278854
H        3.30223523       5.51964063       3.49464850      -0.01203966       0.00182891      -0.00009254
H        3.27712025       3.75458233       3.64831111      -0.00302534       0.00190645       0.00276390
H        4.51620585       4.45629062       1.60659564       0.00499554       0.00446980       0.00908009
H        3.04990987       3.56901139       1.15430268       0.01194631      -0.00342341       0.00222574
H        3.09174862       5.34362186       1.04492294       0.00422929      -0.00347364      -0.00076222
H        1.15315573       5.06607177       2.36563289      -0.00311501      -0.00708084      -0.00805818
O        1.83067291      12.81537489       5.06786486      -0.00346544       0.00785659       0.00627315
C        1.97859510      12.89442792       6.47897870      -0.00251740       0.00394188       0.00620633
C        3.37915366      13.28592576       6.89570395      -0.00330925       0.00653048       0.00659910
H        1.24431469      13.60556788       6.87641918      -0.00386018       0.00116861       0.00868513
H        1.71022898      11.91317283       6.88193856       0.00055796       0.00243825       0.00404406
H        3.44936043      13.34909268       7.98273984      -0.00294370       0.00292333       0.00695963
H        4.12921052      12.57194273       6.55074123      -0.00127041       0.00972907       0.00400241
H        3.64855547      14.26438171       6.49257276      -0.00622731       0.00885755       0.00984412
H        2.55869153      13.29761623       4.64871352      -0.00207404       0.00475280       0.00613874
O        9.96855258       6.71335773       4.09257570      -0.02561621       0.01297754       0.00364327
C       10.37063318       6.03105805       5.26847277       0.01299006      -0.03913108      -0.00975496
C       11.70933320       6.52572471       5.77485010       0.00808942      -0.00978652      -0.00143299
H        9.61167817       6.16186032       6.04283853       0.00783932      -0.01354291      -0.01407045
H       10.42561925       4.95834249       5.04591177       0.01568878      -0.00643986      -0.00835271
H       11.97385484       6.01740463       6.70674899      -0.00135765       0.00644320      -0.01781617
H       12.50062110       6.34548456       5.04755052      -0.01271367       0.01298126       0.00834544
H       11.66219104       7.59773420       5.96508950      -0.00177403      -0.01104671       0.00074006
H        9.21619579       7.26864515       4.36166834       0.02234772      -0.02065524      -0.01064289
O       12.57860037       4.89352657      12.02063052      -0.02155605       0.00411379       0.01263297
C       11.93865490       5.84131723      11.14839687      -0.00231524      -0.00573540       0.00340170
C       12.90564776       6.78484554      10.47046046       0.00029516      -0.00107396       0.00371626
H       11.32410396       5.31482920      10.41406992      -0.00419891       0.00304767       0.00108391
H       11.25964276       6.40215049      11.78326831      -0.00779021       0.00025344      -0.00051066
H       12.33078369       7.56573554       9.97242027       0.00276461      -0.00238927       0.00177448
H       13.56819550       7.25044616      11.20115858      -0.00423820      -0.00562957       0.00701736
H       13.51725288       6.27592285       9.72555385       0.00215632      -0.00647241       0.00896546
H       13.02194770       4.22449281      11.49414603      -0.00309617      -0.01183445      -0.00259583
O        5.69493073       4.12790637       7.06745737      -0.00206741      -0.00523373      -0.00285423
C        5.62165372       4.25680542       5.65303859      -0.00034839      -0.01087511      -0.00327229
C        6.98620005       4.12224828       5.00643425       0.00087672      -0.00370594      -0.00069280
H        4.92994603       3.50891139       5.25124239       0.00507563      -0.01627368      -0.00198317
H        5.18461290       5.23894619       5.45197378      -0.00623675      -0.01414955      -0.00722346
H        6.91740147       4.19787427       3.92231452       0.00244282      -0.00563877      -0.00062446
H        7.65808630       4.90368683       5.35968157      -0.00391930       0.00027256      -0.00079107
H        7.42450752       3.15188446       5.24464733       0.00614512      -0.00097308       0.00104684
H        5.98199917       3.19434919       7.24015039      -0.00020198      -0.00380425       0.00125934
O       13.60921533       6.00130687       1.09386394      -0.00133628      -0.00041048      -0.00301105
C       12.56939020       6.50563926       1.94466098       0.00185853       0.00121596      -0.00284654
C       11.40896993       7.08189834       1.17294230       0.00268584       0.00719368       0.00040147
H       12.21567981       5.70819758       2.60747980      -0.00002474       0.00280237      -0.00254413
H       13.04401791       7.26161475       2.57187876       0.00571260      -0.00031567      -0.00209108
H       10.67633528       7.49678133       1.86148675       0.00558357       0.00867729       0.00232138
H       11.73941804       7.86224578       0.48518877       0.00429265       0.00633961       0.00058367
H       10.90003397       6.30466835       0.59946870      -0.00150324       0.00938906       0.00069287
H       13.21110120       5.52947045       0.34385411      -0.00500793      -0.00095855      -0.00389032
O        1.14876334       8.77145992       5.11482422       0.00992488      -0.00131392      -0.00137556
C        1.14237411       8.58271929       6.51746603       0.00291964      -0.00459814      -0.00157654
C        1.72371195       7.24466415       6.93854385       0.00419578      -0.00391269      -0.00178649
H        1.68730797       9.39465453       7.01037414      -0.00153747      -0.00416094       0.00277349
H        0.09979204       8.65450113       6.82788728       0.00198650      -0.00808453      -0.00638446
H        1.76622078       7.17192535       8.02687700      -0.00199616      -0.00661175      -0.00150244
H        1.12954217       6.42150170       6.54159536       0.00838074      -0.00409228      -0.00695533
H        2.74105092       7.14093955       6.56215753       0.00680386      -0.00013460       0.00436291
H        2.06827984       8.92820679       4.86989569       0.01007231       0.00056750       0.00411822
O        8.46511962       0.97312897       2.80427517       0.00379175       0.01404096       0.01003094
C        7.33091527       1.74036039       2.51261897       0.00420451       0.00961886       0.00013185
C        6.50462307       1.15833201       1.38221075       0.00812522      -0.00306791       0.00469202
H        6.69253266       1.81396155       3.40391962       0.00289190       0.01744754      -0.00134927
H        7.64010069       2.76522865       2.26031214       0.00504422       0.00731879      -0.00864211
H        5.59273151       1.74350824       1.24114952       0.00807954      -0.00613986      -0.00218711
H        7.06901171       1.14346078       0.44919831       0.00956985      -0.01136602       0.00601843
H        6.19906234       0.14281473       1.62873219       0.01034858      -0.00094754       0.01480615
H        7.82030800       0.27857769       4.46609898      -0.00465546       0.00735886      -0.00459614
