198
Lattice="12.87129432958799 0.0 0.0 0.0 12.87129432958799 0.0 0.0 0.0 12.87129432958799" Properties=species:S:1:pos:R:3:forces:R:3 energy=-501339.03125 stress="0.0006644107052125037 -7.798640945111401e-05 0.00019907918613171205 -7.798640945111401e-05 0.001532674883492291 5.349229832063429e-05 0.00019907918613171205 5.349229832063429e-05 0.0008061517728492618" pbc="T T T"
Tm      14.05091826      11.85586598      -0.14492750      -0.00625828       0.00372121       0.00342136
Cl       1.50407719      10.94675282       9.16000143      -0.00738025       0.00856018      -0.00061899
O        2.60310753      11.91809388       8.67499511       0.00375938      -0.00309449       0.00135162
O        1.36220680      11.06222707      10.73796360      -0.01810466       0.01658042      -0.00200534
Cl       4.57523550      12.28476924       3.56347432      -0.00319600      -0.00624979      -0.00235945
O        3.36466879      11.99907009       4.50364979      -0.00144887       0.00442466       0.00318718
O        4.53880843      13.71526290       2.94819921       0.00198459      -0.00847316      -0.00895721
Cl       0.88683157      12.20970227       2.85545676      -0.00809182       0.00366729       0.00333238
O        1.97080885      11.47415117       1.97441861      -0.01814926      -0.01743847       0.00764088
O       -0.21362231      12.55268774       1.76083352      -0.00210220       0.01689288       0.00112617
N       10.16776691       2.32670075       7.88697211       0.00476315      -0.00296319       0.00136524
H        9.23355409       2.72542979       7.97330413       0.00718114       0.00057116      -0.00237641
H       10.16580007       1.75788777       7.03859553       0.00468937      -0.00576054       0.00151260
H       10.77903124       3.11434305       7.69581210       0.00984627      -0.00715251      -0.00039128
N        7.16610250      10.30657201       2.71142849       0.00292057       0.00004181      -0.00779387
H        7.48232742      10.80272665       1.88681971      -0.00015188      -0.00463998      -0.00929834
H        6.17635814      10.12017124       2.60326352       0.00791432      -0.00958567      -0.00160474
H        7.63538375       9.40590320       2.77766946       0.01234570      -0.00338741      -0.00548661
N        4.55813924       5.29932105      10.37377165      -0.00574985       0.00014351      -0.00259449
H        4.46156661       4.61433853      11.11678982      -0.00751855       0.00655603       0.00327208
H        3.90165739       5.01474621       9.64250940      -0.00512608      -0.00392028      -0.00085866
H        4.17687950       6.16032322      10.75197784      -0.00361799       0.00486565      -0.00999752
N        7.70572107       9.43131580       9.03980568      -0.00623396       0.00648740      -0.00185615
H        7.73678578       9.19442504      10.02381063       0.00837388       0.00641904      -0.00258705
H        6.79961014       9.15814644       8.67895446      -0.01014091       0.00836519       0.01059107
H        7.78262937      10.44525881       8.95901376      -0.00736450       0.00884795      -0.00131724
N        9.37221550       8.30226616       6.67497447      -0.00736281      -0.00639401      -0.00335005
H        9.41787138       7.28978216       6.68593429      -0.00073119       0.00126481       0.00035882
H        8.84143659       8.58017260       7.50428239      -0.00984405      -0.00120979      -0.00321178
H       10.31201798       8.64800352       6.85634469      -0.00304892       0.00348726       0.00277434
N       11.74916465       7.32157787       0.58671582      -0.00213766      -0.00022332      -0.00291500
H       12.63739723       6.85327780       0.77852534       0.00281482       0.00984199       0.00179135
H       11.76686659       8.19590728       1.10222125      -0.01245605       0.00323746      -0.00722450
H       11.74538381       7.55117847      -0.40478675      -0.00288149      -0.00518883      -0.00338315
N       10.67160522       4.47522007      10.41559371      -0.02506705       0.01113787      -0.02420522
H        9.74351717       4.45033708      10.82964111      -0.00630428       0.00151377       0.00404378
H       11.35327319       4.48932080      11.16274815       0.02187910       0.01039004       0.03797602
H       10.79000626       3.60341614       9.91210772       0.00986837       0.01101196      -0.00149942
N       10.93671633       7.81414789      10.31641948       0.00777176       0.02336957       0.00103880
H       10.89359616       8.29272248       9.42082087       0.01921800       0.01765880      -0.00316832
H       10.10889527       8.10555916      10.82685804       0.00752766       0.02367512      -0.00937092
H       10.84295876       6.81572849      10.12972868       0.00512837       0.01662267      -0.00040178
N       10.37170398       0.57344380       5.04673367       0.00586691      -0.00520714       0.00074726
H       10.19899971       0.92202193       4.10554178       0.00549567      -0.00759407       0.00018792
H        9.66697874      -0.14982650       5.21525275       0.00731295      -0.00651968       0.00183165
H       11.26305212       0.08965513       5.00947136       0.00726699      -0.00355138       0.00274417
N       11.32159043       4.59789393       2.49272411      -0.00015154      -0.00587501       0.00328002
H       10.47328553       4.04598410       2.56772777      -0.00023981       0.00882008      -0.00617596
H       11.13397858       5.35877321       1.84371811      -0.00183583       0.01781096      -0.01153945
H       11.45102237       5.01516559       3.41195030       0.00313174       0.00279531      -0.00496669
N        1.19421737       6.80992338      10.24273716       0.01153033      -0.00576644      -0.00128835
H        1.50019982       6.69222258      11.20164249       0.00378995      -0.01110603      -0.00802694
H        0.30773736       7.30556413      10.28441767       0.00454798       0.01326670       0.00060785
H        1.86953437       7.41313944       9.78080689       0.01177628      -0.00488757      -0.00216560
N        3.92009720       7.76146331       8.17263008       0.00072896      -0.00242183       0.00465525
H        4.67014721       7.16865430       8.51333826      -0.00141558      -0.00675974      -0.00296462
H        4.34734051       8.57037245       7.72067062       0.00296809      -0.00368379       0.00146289
H        3.47073228       7.23692561       7.42168040      -0.00801764       0.00244250       0.00558278
N        1.07308258       1.20082946      12.01568865       0.00110954       0.00681856      -0.00212014
H        1.48210603       1.61986982      12.88570730       0.00159469       0.00684070      -0.00290456
H        1.66975033       1.50720846      11.22482020       0.00801477       0.00005174       0.00017270
H        0.17066991       1.64530508      11.88735671       0.00861071       0.01963934      -0.00799188
N        2.21953153       1.15895556       6.55207051      -0.00065445       0.00145466       0.00042324
H        1.41776059       1.64301466       6.15689788      -0.00017139      -0.00184241       0.00010328
H        1.88446923       0.45069087       7.19774396       0.00053602       0.00031337       0.00314404
H        2.63742607       0.64102153       5.78017014       0.00076051      -0.00046050       0.00227709
N       10.48883349      10.37616136       2.44758531       0.00151281       0.01278758      -0.00992309
H       10.05014718      10.42250878       3.36290323       0.00627432      -0.00483777      -0.00489764
H        9.77864510      10.70468704       1.79737177      -0.00360020       0.02496717       0.00115624
H       11.19646198      11.10927104       2.43768368       0.00027018       0.01299664      -0.00030804
N       12.89080911       8.28166660       3.89089766      -0.00559759       0.00238130      -0.01105893
H       12.27046830       8.91460475       3.39464001       0.00342061       0.00667574      -0.01084625
H       12.66434233       7.34969907       3.56145206      -0.00650328       0.00158933      -0.02785814
H       13.84542449       8.46800679       3.57639140      -0.00235262      -0.00251077      -0.00012880
N        2.57628865       6.43317211       5.42147678      -0.01104094       0.00109567       0.00260234
H        2.97328408       7.14248758       4.81247475      -0.04532384       0.01857851      -0.00618163
H        1.57263756       6.57817748       5.38040776      -0.01747627      -0.03875702       0.01344702
H        2.76882560       5.52855178       4.98932677       0.01723721       0.00765306      -0.00260585
N        4.43886548       4.23536325       1.66297730       0.00203398      -0.00055454       0.00661992
H        4.12649631       4.31793209       2.62964108       0.00811420       0.00146673       0.00869080
H        5.05643893       5.02795369       1.49195284       0.00383355      -0.00049637       0.00336284
H        5.02789740       3.40845447       1.65452423      -0.00131506      -0.00082532       0.00280582
N       11.40479675      10.53096445       7.59495845      -0.00358417      -0.00155057      -0.00151308
H       10.79368531      10.93017408       6.89123121      -0.00392382      -0.00399402      -0.00315505
H       12.35212357      10.53173254       7.21654587      -0.00222982       0.00296540      -0.00056357
H       11.39159066      11.16930273       8.38289909      -0.00804136      -0.00301541      -0.00182468
N        3.06298205       8.81105894       3.02612958      -0.00837182      -0.00825137      -0.00869597
H        3.96109369       8.63108366       3.47404708       0.01528698       0.00382583       0.00672819
H        2.91682461       9.81478471       2.97174958      -0.01011429      -0.00919907      -0.00542979
H        3.09237231       8.44404160       2.08321361       0.00944992      -0.00982798       0.00200883
N        3.12993248       3.37440510       4.54725391       0.00728741       0.00148557       0.00707937
H        3.60508006       2.61599487       4.06003425       0.00347801       0.00143252       0.00289786
H        2.13632625       3.15782567       4.48323936       0.00606775       0.00865039       0.00289141
H        3.34421198       3.21955137       5.52874371       0.00360207      -0.00750473       0.00683767
N        7.09844421       3.46178471       8.54367412       0.00512177      -0.00549619      -0.00104403
H        7.40316330       3.33304942       9.50266171       0.00491261       0.00594514       0.00307395
H        6.62060938       2.61754624       8.24095064       0.01184121      -0.00796407       0.00636363
H        6.39355752       4.19051119       8.59542071      -0.00057424      -0.00730952      -0.00668903
N        8.82672375       7.63840920       3.62832117       0.00506216      -0.00138266      -0.00492862
H        9.00552252       8.05186542       4.54790155       0.00407675      -0.00457857      -0.00369024
H        9.63679144       7.84457451       3.05216751       0.00405402       0.00164005      -0.00479138
H        8.82589685       6.63382087       3.78371757       0.00729170      -0.00268798      -0.00844802
N        2.98378926       1.96748355       9.82946503       0.00804615      -0.00119741      -0.00375491
H        2.86839267       1.23135153       9.13766747       0.00750571      -0.00300285       0.00257114
H        3.92935413       1.87221691      10.17965391       0.01937039      -0.00122340      -0.00601560
H        2.94773357       2.84986992       9.32224153       0.00915880      -0.00406405      -0.00235148
N        8.04350254      12.60503974       8.40691575      -0.01192258       0.00618836      -0.00317930
H        8.65318600      12.28556964       7.65959425      -0.00561507      -0.00017996       0.00463093
H        8.64207887      13.15174224       9.01690278      -0.01620894       0.01551226      -0.00509925
H        7.38690847      13.24704972       7.96207199      -0.01121684      -0.00081155      -0.01326941
N        1.45942845       9.98526719       6.28844168      -0.00474215       0.00162236      -0.00567155
H        2.12306488       9.37323814       6.75104960      -0.00243654      -0.00026353      -0.00291537
H        2.01282927      10.62790121       5.72907795      -0.00560756      -0.00295693      -0.00687735
H        0.94435117       9.39576650       5.63671306      -0.00600418      -0.00222687      -0.00060519
N        4.73235240      10.59969370       6.86756663       0.00430855      -0.00228626       0.00347193
H        4.00265534      10.94757731       7.49009635       0.00283280      -0.00411527       0.00283025
H        4.49589791      11.01180931       5.96555988       0.00458430      -0.00301307       0.00336651
H        5.58586823      11.04723959       7.18450939       0.00311508       0.00015874       0.00442546
N       11.43303581       5.82475947       5.58945105       0.00898492      -0.00298285       0.00107184
H       10.47048756       5.48796634       5.52115943       0.00852586       0.00464650      -0.00339184
H       11.44095079       6.80624860       5.33142949       0.02760305      -0.00843374       0.00659071
H       11.69496295       5.79637937       6.56875734      -0.00439592      -0.00498259       0.02407260
N        2.20949631       2.03933513       1.61922678      -0.00154078       0.00059447       0.00433183
H        2.71737640       2.91050807       1.47138605      -0.00292542       0.00172265       0.00400681
H        2.86912816       1.43086828       2.10879468       0.00070081       0.00118661       0.00236431
H        1.45810428       2.24175248       2.26830584      -0.00025789      -0.00130283       0.00603511
N        6.14364232       6.98864171       1.63565752      -0.00643543       0.00555179       0.00377449
H        5.98301062       7.69732183       0.92924309      -0.00793591       0.00346195       0.00301337
H        7.08836751       7.13554507       1.98264332      -0.00711843       0.00952854       0.00569237
H        5.55271330       7.23889294       2.42425935      -0.00875608       0.00435824       0.00277103
N        3.52087190      11.12350426      -0.06326102      -0.00561756       0.01015478       0.00335389
H        3.98096657      10.84264724      -0.94820191      -0.00602150       0.00889035       0.00201619
H        3.52422535      10.30549231       0.54088973       0.00894525       0.01550363       0.00818200
H        4.12622824      11.78190994       0.42225735      -0.00915213       0.02202173      -0.00527389
N       11.26520719       0.36582240      10.09909943      -0.00447965      -0.00864527       0.00940251
H       12.26667124       0.27676553       9.95497007      -0.00565123      -0.01238489       0.01012640
H       11.14774661       0.94169906      10.92625889      -0.00208986      -0.00432734       0.00858157
H       10.91790611       0.94356728       9.32483181      -0.00344116      -0.01003423       0.00827865
N        8.76766706      11.75651570      12.47676000       0.00102763      -0.01446714       0.00238377
H        7.84316303      12.13786340      12.26804480       0.00017753      -0.01821254      -0.00245555
H        8.71789837      10.75431232      12.30447634       0.00605921      -0.01451500       0.00011045
H        9.36845767      12.12279089      11.74309847       0.00377613      -0.01042082       0.00669879
N        7.40632685       1.77280192       3.75491879      -0.00107634       0.00216964       0.00051108
H        6.50582302       1.50574324       3.36144213      -0.00037421      -0.00261996       0.00164692
H        7.62080958       1.08665539       4.47055872       0.00213794       0.00479031       0.00242634
H        8.11540960       1.64387492       3.03677655      -0.00120857       0.00266593       0.00043188
N        8.13470676      11.21119451       5.54256273       0.00666174      -0.00773770      -0.00377811
H        8.33495418      10.29857771       5.94941908       0.00848497      -0.01215725      -0.00752400
H        7.77497927      11.03046342       4.60085923       0.00759880      -0.00584220      -0.00505347
H        7.35728936      11.59849369       6.06455839       0.00805775      -0.01295244      -0.00323573
N        5.60456483       1.27804618       6.58493527       0.00306854      -0.00274809       0.00022499
H        5.91967600       2.05781906       6.01415056       0.00264959      -0.00166894       0.00297688
H        4.64946252       1.49209887       6.87229909       0.00476982      -0.00162195       0.00599867
H        5.49744762       0.50650601       5.93182768      -0.00281321      -0.00023220      -0.00302622
N        7.67223140       5.37512664      11.20256054      -0.00339861      -0.01516476      -0.02937005
H        7.62252728       5.59993651      12.18884879      -0.01485294      -0.00769725       0.02483360
H        6.72143858       5.42618365      10.83596044      -0.00946002      -0.00806471      -0.00776819
H        8.21443017       6.09462701      10.73867679      -0.00425127      -0.00608541       0.00466257
N        8.79989187       8.43299177      12.81971105      -0.00750400      -0.01413551      -0.01304242
H        9.62334779       7.93550474      13.15751061      -0.00461571      -0.01274662      -0.01260580
H        8.16659955       7.72383695      12.46717752      -0.01141719      -0.01611112       0.00402338
H        8.35055568       8.82125087      13.64246091       0.00281817      -0.00104722      -0.01257768
N        4.62340659      10.37081799      10.18123605      -0.00310142      -0.00523224       0.01363122
H        4.24278556       9.48089359       9.86668190      -0.00049628      -0.00850477       0.00791666
H        5.60026143      10.38147081       9.91131061      -0.00519231      -0.00164160       0.02493354
H        4.14544342      11.07150943       9.61381067      -0.00329679      -0.00630654       0.00646006
N       12.63081102       2.88362229       4.91990954       0.00554287       0.00254476      -0.01327845
H       12.39111688       2.90421240       3.93245907       0.00645087       0.00057086      -0.01099676
H       12.44330262       3.83492619       5.23451430       0.00183821       0.00111214      -0.01101692
H       11.92828922       2.28985957       5.35206399       0.00436819      -0.00071077      -0.01168508
N        8.74387169       4.15647176       5.42052865      -0.00008275       0.00568646      -0.00520419
H        9.45884550       3.44060476       5.51719485       0.00001179       0.00687917      -0.00022921
H        8.07955034       3.73059341       4.77272914       0.00017625       0.00179092      -0.00289553
H        8.27546105       4.16792772       6.32440765      -0.00090522       0.01034421      -0.00501499
N        5.57699317       8.04362593       4.77392879       0.00197014       0.00795683       0.00641996
H        5.39178414       8.76812576       5.46524093       0.00737302       0.00627266       0.01277052
H        6.56640792       8.08486207       4.54945032       0.00355354      -0.00112187       0.01186412
H        5.42064935       7.16234984       5.25024350      -0.01195301       0.00748833      -0.00212549
N       10.04839567       1.28026904       1.66020609      -0.00931776       0.00213923      -0.00075433
H       10.07875801       2.10597477       1.07441883      -0.01011732       0.00099865      -0.00404593
H        9.58099679       0.54831215       1.12859221      -0.00921374       0.00100291       0.00168693
H       11.00941233       0.97013827       1.77822532      -0.00918348       0.00361214      -0.00094192
N       11.93034437      10.76402043      12.22656312      -0.00482047      -0.00461525       0.01064295
H       12.02552420       9.84159600      11.80334084       0.00477573      -0.00569180       0.00760700
H       11.54965049      11.34717596      11.47681792      -0.01341552      -0.00987794       0.00898135
H       11.20037532      10.68781370      12.92826553       0.00173172      -0.01361294       0.01107934
N        1.40165655       5.66922178       1.56558728       0.00576915       0.00555076       0.00840086
H        1.70494959       6.11199344       2.42712807       0.00147847      -0.00648851       0.01431094
H        2.20405741       5.13493501       1.24237864       0.00580490       0.00768262       0.00558802
H        0.68033142       5.00058632       1.82817483       0.00252584       0.00128589      -0.00254708
N        2.27779187       4.65022060       8.19030431       0.00236423      -0.00373121      -0.00406560
H        1.68548980       5.19122050       8.82352038       0.00080716      -0.00455181      -0.00562386
H        1.73451800       3.87626048       7.82346811       0.00283401      -0.00510606      -0.00525139
H        2.48335773       5.25160443       7.39617435       0.00272451      -0.00422996      -0.00373581
N        6.13408460      13.07933024      11.18766465       0.00162888      -0.00100705       0.00652567
H        5.28055365      12.54046142      11.09953435      -0.01475380       0.01763575       0.00272065
H        6.59611699      13.01458609      10.28553430       0.00163140      -0.01779453      -0.00239868
H        5.87154869      14.04672632      11.32915305       0.02981026      -0.00001966       0.00221268
