199
Lattice="13.293498462916663 0.0 0.0 0.0 13.293498462916663 0.0 0.0 0.0 13.293498462916663" Properties=species:S:1:pos:R:3:forces:R:3 energy=-492072.5 stress="0.001359685673378408 5.999782842991408e-05 -0.00045538700942415744 5.999782842991408e-05 0.0016519229393452406 -3.2594831282040104e-05 -0.00045538700942415744 -3.2594831282040104e-05 0.0009702041861601174" pbc="T T T"
Tm      10.87544816      13.51409506      -0.51826310      -0.01349595       0.02046133       0.01018660
O        8.96128808      12.69265627       6.89490987       0.00296217       0.00753355      -0.00484237
O        7.67308638      14.46997785       6.45492473       0.02418132       0.03293872      -0.01399097
C        7.84118429      13.29711391       6.81613491       0.01673074      -0.00606567      -0.00139128
H        6.95418962      12.69837220       7.11695104       0.00817662       0.02662137      -0.01197882
O        5.46782500      12.16901294       0.40522215      -0.00112432      -0.00663406      -0.00049186
O        7.22578352      11.45232014       1.60305553      -0.01274586      -0.02399451      -0.00396842
C        6.03784345      11.85975638       1.47556481      -0.00485396      -0.01559041      -0.00884366
H        5.43449978      11.93267679       2.40901237      -0.00913471      -0.01548162      -0.00383902
O        8.70377283      13.85115611      13.15425361      -0.01769892       0.00764292      -0.00410199
O        9.43854449      11.83610469      12.60542073      -0.00289416       0.01179701      -0.00192665
C        8.47351858      12.63835179      12.81485667      -0.00896218       0.00467169      -0.00333197
H        7.43832294      12.32295546      12.66939575      -0.00628710      -0.00358118      -0.00029622
O       11.64457364       8.59619461       3.22059218      -0.00200701      -0.00287366      -0.00808634
C       10.38967536       8.13701252       3.75338964      -0.00484620      -0.00147980      -0.01239516
H        9.70560891       7.85462477       2.94898466      -0.01091895       0.01993676      -0.01480600
H        9.89724423       8.90205497       4.35104077       0.00498945      -0.00862381       0.00481555
H       10.58415157       7.26033247       4.37298396      -0.00846603      -0.01460966      -0.02976458
H       11.63685799       9.56747327       3.21829938      -0.00227708      -0.00237666      -0.00999011
O       11.37984188       1.91756107       1.04488485      -0.00861850      -0.00396580       0.02208805
C       11.61367072       1.64161175       2.44616375       0.01803994      -0.01016677       0.01593924
H       10.67322206       1.40632814       2.94616151       0.02992153      -0.02045099       0.03417464
H       12.05988596       2.51552601       2.91989886       0.02064811      -0.00924340       0.01313944
H       12.29751178       0.80259176       2.52287004       0.02656715      -0.00470184       0.00075448
H       10.83925411       2.75880338       1.08762387      -0.00247848       0.00493580       0.03702262
O        3.94073207       5.76428622       2.03011379       0.00179934      -0.00606585      -0.00189172
C        4.18960949       7.02405401       2.64821030       0.00088049      -0.00310138      -0.00715402
H        5.21340365       7.37127240       2.47884742       0.00094402      -0.00341485      -0.00789127
H        3.99878647       6.99353940       3.72646385       0.00013392       0.00146930      -0.00706464
H        3.50206490       7.74332713       2.20739662       0.00074115      -0.00535505      -0.01083885
H        4.40443925       5.08959470       2.53998653       0.00082117      -0.00390197       0.00199601
O        7.01846183       3.58470290       9.13591550       0.00673349      -0.00531638       0.00220686
C        7.13723738       2.33340278       9.78764724       0.00153248      -0.00411749       0.00662366
H        6.22532375       1.72971029       9.71691381       0.00175244      -0.00362134       0.00176579
H        7.30752844       2.53679794      10.84536094      -0.00594276      -0.00167186       0.00740480
H        7.96862713       1.73721280       9.39673352       0.00441116      -0.00546269       0.01417540
H        6.84195903       3.42739023       8.19922450       0.00945166      -0.00688070       0.00272377
O        3.35981266      10.50882258       0.46563193      -0.01345271       0.01142800      -0.02840105
C        4.16381277       9.46346057      -0.03289888      -0.01648384       0.00441617      -0.01791713
H        3.54098342       8.57494798      -0.15627455      -0.02000380       0.00714642      -0.01666290
H        4.98468807       9.20890300       0.64991565      -0.02124646       0.00404190      -0.01164144
H        4.60470582       9.72327768      -1.00261171      -0.00876813      -0.00332384      -0.01701599
H        3.95911375      11.29037430       0.48973357      -0.00706005       0.00699750      -0.02186957
O        0.81221777       3.37929943      13.22639447      -0.01173437       0.00349185       0.00427593
C        0.98351234       4.80314226      13.20755671       0.00449659       0.00175639       0.00570740
H        0.91757643       5.22641353      14.21086740       0.00620282       0.00205105       0.00590837
H        0.25671613       5.28201732      12.54497235       0.01214004       0.01066647       0.00368755
H        1.98397982       4.99223750      12.82624737       0.00808764      -0.00949791       0.00924515
H       -0.05783304       3.15762319      13.58022162      -0.01416659       0.01274350       0.00416580
O        6.99296727       8.59808436       7.58435703       0.00162774      -0.00296408       0.00123435
C        7.38638933       7.46966188       8.33425093       0.00439430      -0.00129265       0.00134403
H        7.98848927       7.74538182       9.21322373       0.00848748      -0.00020161      -0.00151768
H        7.94879448       6.74406900       7.73708701       0.00166386      -0.00312385       0.00039917
H        6.48374014       6.97625918       8.69686755       0.00558114      -0.00035152       0.00640131
H        7.78709096       9.00119316       7.18844889       0.00079904      -0.00104080       0.00008550
O        2.13108127       2.79640701      10.91637606      -0.00110763      -0.00346666       0.00937837
C        3.53343773       2.84180863      11.16090022      -0.00078174      -0.00626456       0.00843652
H        3.92132491       1.85487861      11.42907818      -0.00353610      -0.00547263       0.01543143
H        3.77998252       3.54470433      11.96118335       0.00261790      -0.00059915       0.00257745
H        4.02486889       3.17908727      10.24873861      -0.00087180      -0.01490005       0.00504118
H        1.65703788       2.82701699      11.76810238      -0.00180488      -0.00309343       0.00900795
O        2.43586696      11.00215763       6.24658925      -0.00721902       0.00782677       0.00491507
C        1.13200295      10.44401605       6.14552157      -0.00383690      -0.00016433       0.00180065
H        1.02133835       9.84462383       5.23796539       0.00317339      -0.00306305       0.00285465
H        0.35764185      11.22055367       6.14316546      -0.00840655      -0.00468695      -0.00286813
H        0.97568317       9.79450385       7.00682260      -0.00297400       0.00083402       0.00287861
H        2.67790733      11.37752898       5.36636301      -0.00716941       0.00839655       0.00544836
O        7.32548064       7.51445753      13.70223630      -0.00120440       0.00730926       0.00950521
C        6.71477150       7.19807433      12.45947614       0.00192639       0.00207308       0.00939035
H        7.45471360       6.88554694      11.71297823       0.00521114       0.00837165       0.00980043
H        6.15070075       8.03759422      12.05045689      -0.00490040      -0.00268757       0.00883574
H        6.02493476       6.36967459      12.62395377       0.00872837      -0.00402179       0.00864854
H        7.45227625       8.46608181      13.75876777      -0.01457071       0.00963441       0.01211928
O        0.14196993       3.84343723       9.35957157       0.00257426       0.00704843       0.01082897
C        0.49588835       4.28302737       8.05991664      -0.00176872      -0.00543152       0.00535765
H        0.91529574       3.46937422       7.45519211      -0.00523290      -0.01160577       0.01106554
H        1.21803104       5.10866659       8.09024634      -0.00049371      -0.00606331      -0.00494596
H       -0.40975599       4.64719072       7.57564552      -0.00341037      -0.00855978       0.00566313
H        0.94849392       3.52684021       9.80551804       0.00235552       0.00410573       0.00924449
O       11.31326707      11.46640145       3.12860129      -0.00492546      -0.00317901      -0.00546810
C        9.90114402      11.47812503       2.79896995      -0.00587380      -0.00252534      -0.00203899
H        9.30667761      11.13589183       3.64442206      -0.00350766      -0.01221818      -0.00422615
H        9.74576770      10.80579176       1.96010102      -0.00627061       0.00601652      -0.00889227
H        9.56992336      12.47679047       2.50863976      -0.00801392       0.00023580       0.00886711
H       11.39848905      11.97647410       3.97326319      -0.00196195      -0.00186731      -0.00624031
O        2.90478341      12.09603030       3.85901429      -0.00463569       0.00411612       0.00354326
C        1.83515607      11.83266842       2.96482572       0.00110072      -0.00039482      -0.00233451
H        2.04700663      12.22495398       1.96878519       0.00590391      -0.00148961      -0.00177497
H        0.88993821      12.25538433       3.33195622      -0.00232080      -0.00266257      -0.00841334
H        1.73014987      10.75316108       2.87445582       0.00432338      -0.00098971      -0.00150818
H        3.10087753      13.05325170       3.80245561      -0.00121890       0.00307793      -0.00237202
O        9.76210899       4.56269726       4.38565563      -0.01527905      -0.03120860      -0.02961998
C       10.59159209       3.89980221       5.33377405      -0.00941670       0.00325631      -0.01101409
H       10.30761946       2.84836692       5.43899504       0.00124784       0.00261948       0.01837619
H       10.53332328       4.38364950       6.31252635      -0.01488553       0.03067556      -0.02467310
H       11.62294433       3.96650461       4.98350563      -0.00884750       0.00343967      -0.01115216
H        8.88510161       4.68691605       4.81232201      -0.01394311      -0.02093455      -0.03063251
O        1.95896030       0.08667484       7.44367212      -0.00809363       0.00145895       0.01684415
C        2.54310496       0.04061884       8.72889476       0.00069007      -0.00097050       0.01289773
H        2.34912424       0.99037044       9.22679641       0.00595303      -0.00081742       0.01502180
H        3.62800866      -0.11669694       8.68225269       0.00002712      -0.00355082       0.00537814
H        2.11920548      -0.76112337       9.34632184       0.00301464      -0.00041550       0.01538406
H        2.17474124      -0.76623330       7.00440706      -0.01020719       0.00269226       0.01305491
O        0.13931743       6.58134858       3.92488530      -0.00719529      -0.00448579      -0.00009078
C        0.65453172       6.88553384       5.20606623      -0.00666767      -0.00546476       0.00017709
H       -0.08285986       7.39264785       5.83731443      -0.00586557      -0.00438268       0.00028886
H        1.55237027       7.51385124       5.15626093      -0.00546381      -0.00705802       0.00034383
H        0.92355234       5.94957317       5.69608034      -0.00836998      -0.00618652      -0.00015756
H       -0.36709030       7.35630541       3.62169974      -0.00361166      -0.00250349      -0.00147150
O        4.29959575       3.78009216       4.21161243       0.00431919       0.00067562       0.00229672
C        3.16678759       4.41669805       4.81498427       0.00397399      -0.00062120       0.00418874
H        2.61025436       4.91110132       4.02117828       0.00141166      -0.00228144       0.00495234
H        3.47990947       5.16953532       5.54266797       0.00431025       0.00048333       0.00302804
H        2.51898642       3.68783745       5.31062084       0.00627701      -0.00143027       0.00618134
H        4.90111281       3.47608684       4.92239061       0.00656138       0.00319906       0.00021371
O       12.23217798      12.20995382       0.78346917      -0.00926584       0.01176524      -0.00272387
C       12.81358679      10.98315116       0.25337528      -0.00440627       0.01777819      -0.01056476
H       12.17609503      10.13419825       0.49456428      -0.00131691       0.01360455      -0.01694470
H       13.81915715      10.84022669       0.64721729      -0.00408730       0.01897405      -0.01059875
H       12.87215534      11.07827356      -0.82884786      -0.00407635       0.02510855      -0.01013771
H       11.98707893      12.00537362       1.73301825      -0.00849355       0.00512329      -0.00389296
O        1.73086471       7.99560423       8.74798311       0.00488144      -0.00559154      -0.00964069
C        3.13864964       8.22176019       8.80401715       0.00313652       0.00631505      -0.00865576
H        3.69663692       7.27972968       8.80031878       0.01101561       0.01074243      -0.00859651
H        3.42100772       8.79927321       9.68831044      -0.00230135       0.00852178      -0.00848976
H        3.40521144       8.79352565       7.91810686      -0.00094575       0.00859120      -0.00852501
H        1.46344069       7.55526914       9.55855526       0.00791998      -0.00690241      -0.00926042
O       10.82720643       6.38996181       8.31510599       0.00496453      -0.00695464      -0.00285806
C       11.90261659       6.97629449       9.04276602       0.00009382      -0.00137141       0.00017211
H       12.34573725       6.26559779       9.74857900      -0.00212932       0.00261432       0.00570241
H       11.59401482       7.87841961       9.57996573      -0.00426790       0.00089920      -0.00535114
H       12.66182559       7.25615189       8.31509102       0.00325328      -0.00328102       0.00253615
H       10.08436247       6.26244635       8.91096337       0.00212474      -0.00622238      -0.00606495
O        7.47815746       5.08336439       5.70574232       0.00671548      -0.00272661      -0.01396662
C        6.83469998       6.16781519       5.02918406      -0.00011888       0.00286129      -0.00024764
H        6.05257780       6.61351560       5.64760739       0.00495830      -0.00363687       0.01071867
H        6.41308190       5.84457456       4.07509704      -0.00816719       0.00980103       0.00094053
H        7.58689874       6.93055341       4.83844522      -0.00280440       0.00528154      -0.00082880
H        6.81923059       4.41071225       5.93546399       0.00791141       0.00015336      -0.00536255
O        3.11940031       1.46055361       3.36973494       0.01468563       0.00003651      -0.01538122
C        2.00495497       1.99862408       2.67717531       0.00960302       0.00486711      -0.00436291
H        1.76581935       1.35602696       1.82931971      -0.00496962       0.00098917       0.00278369
H        2.22136232       2.99608831       2.29056412       0.01285729       0.00075176      -0.01325203
H        1.12685674       2.05887138       3.33110727       0.01771823       0.01555000       0.00575069
H        3.66461254       2.21106739       3.67441899       0.00997209      -0.00111565      -0.00457905
O       11.56902867      -0.29498908      10.69289306      -0.00577584       0.01502331       0.01460658
C       12.30262432       0.41562953       9.67122435       0.00531358       0.00073992       0.01327156
H       11.63180948       1.06814104       9.11172257       0.01426131       0.00328888       0.00527947
H       12.78493644      -0.28497433       8.98950448       0.00190912      -0.00877702       0.02058719
H       13.06722804       1.02711340      10.14559269       0.00888264      -0.00315619       0.01287864
H       10.82976502      -0.79363994      10.21699772      -0.00162515       0.00996047       0.01318744
O        7.27393629       9.55179327       3.50777566      -0.00715131      -0.01006967       0.00833076
C        6.23539472       9.93620903       4.38425592      -0.00576019      -0.00644659       0.00812554
H        5.24803950       9.88011756       3.90780279      -0.00611001      -0.00232091       0.00764900
H        6.36375793      10.96556146       4.74402769      -0.00206506      -0.00708020       0.00898382
H        6.24606883       9.27356867       5.24933420      -0.00881732      -0.00687522       0.00764447
H        7.30575686      10.23739731       2.79812124      -0.00872704      -0.01306372       0.00405055
O        5.72053177       2.90839238       6.43639658       0.01579219      -0.00150774      -0.00337687
C        4.55669512       2.54194918       7.18989459       0.01359053      -0.01149413      -0.00554453
H        4.83278051       2.05185396       8.12343675       0.01693846      -0.01626900      -0.00938666
H        3.89858092       1.87673380       6.62523890       0.01905999      -0.01162645      -0.01123863
H        4.01504072       3.45534672       7.43280175       0.00806320      -0.01680931      -0.00000168
H        6.34969543       2.13055896       6.38955458       0.01816868       0.00921732      -0.00561655
O        9.58583874      11.91991028       9.45617713       0.01247722      -0.00311142      -0.00240678
C        8.90319986      10.71228411       9.81843170       0.00148205       0.00461300      -0.00133213
H        8.73428561      10.09510280       8.93809021       0.00317014       0.00037473       0.00113162
H        7.94548011      10.93840890      10.29118532      -0.00037450       0.01299664      -0.00857139
H        9.52085569      10.18084895      10.53905767      -0.00632024       0.00481282       0.00589743
H        9.33827891      12.18091418       8.54388683       0.00862662       0.00222346      -0.00249709
O        9.22892213       9.94859006       6.55076724       0.00043780      -0.00112295      -0.00151864
C       10.59248002       9.69368926       6.86617337      -0.00047088      -0.00243461      -0.00208932
H       10.89288837      10.18537308       7.79721063       0.00041692      -0.00592269      -0.00033540
H       11.25542655      10.03723412       6.06644091       0.00043179      -0.00073209      -0.00111705
H       10.70418958       8.61698353       6.98598734      -0.00127355      -0.00316802      -0.00567859
H        9.07036481      10.91181469       6.59728560       0.00130589       0.00106853      -0.00185223
O       10.28886496       4.20452270       1.77173537       0.00078413      -0.01625440      -0.01476067
C       11.33865815       5.16504699       1.70771442      -0.00576638      -0.00672162      -0.00499354
H       11.71218925       5.17707557       0.68490164      -0.00178041       0.00425088      -0.00333691
H       12.16166513       4.93745373       2.39279455      -0.00716916      -0.00494543      -0.00266859
H       10.96953758       6.16168141       1.96133385      -0.01696257      -0.01254719       0.00100774
H        9.95623800       4.22936699       2.70217741      -0.00292689      -0.02328192      -0.01505092
O       10.22515504       2.24895052      11.71462931      -0.00766945       0.01616447       0.00275778
C       10.37421256       3.25305000      10.68697448       0.00283012       0.00779945      -0.00420846
H        9.86323891       4.16606778      10.99337589       0.00962335       0.01447576      -0.01214701
H        9.95056300       2.90713757       9.74371997       0.00160363       0.00451577      -0.00280064
H       11.43520281       3.44589164      10.55267905       0.00467750      -0.00155323      -0.00346250
H        9.28692331       2.15909717      11.93903267      -0.00938386       0.02255353      -0.00242762
O       11.38187917       7.88705468      12.79889282       0.00541413       0.00319623       0.00884485
C       10.39841520       7.01220208      12.26092466       0.00208619       0.00694771       0.00850144
H        9.60470774       6.78760684      12.97685142      -0.00172210       0.01400185       0.00649628
H       10.84750063       6.07573837      11.90776298      -0.00199476       0.00283608       0.01367439
H        9.94790829       7.51686689      11.40428612       0.00792941       0.00601208       0.00472614
H       11.51174924       7.65753342      13.72425390      -0.00412291       0.01150908       0.01218911
O       11.23064797      -0.42942484       5.40453376       0.00255775       0.00402743      -0.00941172
C       12.10696497       0.60552462       5.84358788       0.00252797      -0.00376852       0.00492756
H       11.68902942       1.11926020       6.70961654      -0.00284572      -0.00635330       0.00435770
H       12.25411881       1.34617079       5.05339912       0.01300129       0.00052497       0.01046896
H       13.07586032       0.19056598       6.12269668      -0.00123429      -0.00884178       0.01142493
H       10.37773391      -0.36461522       5.89038304       0.00115857      -0.00143565      -0.00442052
