194
Lattice="14.087757778825797 0.0 0.0 0.0 14.087757778825797 0.0 0.0 0.0 14.087757778825797" Properties=species:S:1:pos:R:3:forces:R:3 energy=-1255709.375 stress="-0.00028275864315219223 -0.0003610449348343536 0.0013746838667429984 -0.0003610449348343536 -0.0010715993121266365 -0.0002888919407268986 0.0013746838667429984 -0.0002888919407268986 -0.00037050526589155197" pbc="T T T"
Tm      13.00191248      13.90058558      -1.52000117       0.00225165       0.00697386       0.01211741
I       10.95899425      13.49736287       4.86327155       0.01098967      -0.01074203      -0.03326244
I       14.61295263      16.15669602      11.81102650      -0.02308849       0.02127770       0.00215837
I       10.44125900      15.13112166      13.22029569      -0.01850566      -0.04001178       0.00881051
S       10.54287609       4.05932601       6.44446268       0.00860190      -0.01194733      -0.01662755
O       11.94858978       3.90268028       6.94816087       0.00504065      -0.00787264      -0.02623516
C       10.58969923       3.79043206       4.67660121      -0.00732248       0.00555062      -0.02129161
C       10.18198280       5.82232320       6.41059309       0.00175525      -0.01390296      -0.00335139
H       10.90229220       2.75635784       4.53242019      -0.02245985       0.00333732      -0.03463523
H       11.29845877       4.48755729       4.22897046      -0.01197253      -0.00472127      -0.02066645
H        9.57565016       3.92223163       4.30059655      -0.01086096       0.01606264      -0.00586055
H        9.21111079       5.96575395       5.93426828       0.00341983      -0.00819098       0.00344578
H       10.97969605       6.33719642       5.87104542       0.00071943      -0.00787586       0.00094189
H       10.15781747       6.17922785       7.43981218       0.00503912      -0.01965822       0.00204793
S        0.51560699       6.39151176       1.30496171      -0.00102967      -0.00236440      -0.00476801
O       -0.47024673       5.53659123       2.04412987      -0.00032330      -0.01036799       0.00322974
C        1.93591370       5.34427968       0.93973413      -0.00018424       0.00080192      -0.00430227
C        1.33597386       7.42999782       2.51842656      -0.00753385       0.00202292      -0.00721049
H        1.62826345       4.63673112       0.17035674       0.00477505       0.00150762      -0.00412805
H        2.21317274       4.81575098       1.85318592       0.00307378       0.00325598      -0.00348876
H        2.74990015       5.98601731       0.59936367      -0.00199813       0.00583027      -0.00366261
H        2.13706374       7.97649590       2.02170569      -0.00942582       0.00495639      -0.01139876
H        1.73273019       6.79307681       3.30911619       0.00135664       0.00554882      -0.00840668
H        0.58075639       8.11013440       2.90349798      -0.00677520      -0.00187791      -0.00708799
S        5.89817621      11.91781118      12.62520230       0.00642335      -0.00200075      -0.00689316
O        5.03135888      11.75259258      13.83857588       0.00593388      -0.00614244      -0.01106453
C        7.26191328      12.96740044      13.14584238       0.00252414       0.00256848      -0.00592881
C        5.02795629      13.08046753      11.56400317       0.00399905      -0.00324732      -0.00313365
H        7.83655066      12.38248771      13.86251400       0.00476256       0.00739802      -0.00369523
H        6.85003159      13.85704491      13.62386088      -0.00352535       0.00079629      -0.00743562
H        7.89977930      13.22439343      12.30155146       0.00412026       0.00655063      -0.00229174
H        5.66482232      13.49738992      10.78473895      -0.00087298      -0.00265385      -0.01010999
H        4.63231161      13.87489895      12.19607163       0.01153616      -0.00209887      -0.00120328
H        4.20848592      12.52924420      11.10643184      -0.00106385      -0.00143072       0.00278472
S        1.80357536      12.62087975      -0.43281548      -0.01173735      -0.00543382       0.00086200
O        0.31103829      12.97229504      -0.12522607      -0.01420170      -0.00861364      -0.00205457
C        2.11814151      11.08364264       0.40592493      -0.00574000      -0.00444993      -0.00181764
C        2.76024802      13.75334227       0.55660268      -0.01606724      -0.00310799       0.00228909
H        1.27947418      10.42810613       0.18175893      -0.00149143      -0.00876302       0.00323034
H        2.20959510      11.25319797       1.47774008      -0.00530409      -0.00448772      -0.00018224
H        3.05740876      10.70748807       0.00856606       0.00255862       0.00907787      -0.00217853
H        3.80921011      13.56990842       0.32857199      -0.01059985      -0.01341652       0.02789064
H        2.57759375      13.55922993       1.61239443      -0.04518856       0.00893934      -0.00007221
H        2.46823898      14.75684067       0.25230504      -0.00225268      -0.00446314      -0.00693808
S        5.17583852       2.26792305      13.15114713      -0.00011563      -0.00339544       0.01160109
O        5.54805035       1.39485888      14.31433977      -0.00229579      -0.00184160       0.00386608
C        6.63446942       2.46941211      12.11975846      -0.00346863      -0.00515692       0.00433856
C        5.15151208       3.94927668      13.77057830       0.00462265      -0.00144708       0.01129064
H        6.78313173       1.54831466      11.56205735      -0.00659317      -0.00742675       0.00534892
H        7.48766842       2.69207408      12.76089580      -0.00070727      -0.00694897       0.00129737
H        6.43245861       3.27559695      11.41179694      -0.00219861      -0.00638443       0.00316697
H        5.03101893       4.61131590      12.91678873      -0.00056234       0.00077846       0.01491496
H        6.09057572       4.14970852      14.28634039       0.00775696      -0.00323772       0.00599211
H        4.31248647       4.04792443      14.45436834       0.00943244      -0.00397615       0.01705589
S        4.88694247       8.92068480       8.31573318       0.00122654       0.00050294       0.00142333
O        5.17976523      10.27022390       7.73945924       0.00157487       0.00146472       0.00128895
C        4.46710344       9.19796949      10.05044387       0.00476746      -0.00010566       0.00207281
C        6.45516639       8.07914388       8.58660901       0.00137144       0.00121269      -0.00121832
H        3.54303863       9.77267657      10.06538069       0.00514174       0.00184837       0.00372730
H        5.26650644       9.75951335      10.53577396       0.00552431      -0.00263759       0.00150999
H        4.30816401       8.24053333      10.54242966       0.00284127      -0.00004023       0.00060089
H        6.26884866       7.12616529       9.08456301       0.00232074      -0.00054748      -0.00463168
H        7.10954304       8.70913669       9.18786893       0.00150248      -0.00094134      -0.00160263
H        6.87451716       7.92755042       7.59320206       0.00123215       0.00414895      -0.00373763
S        9.12885619       5.42391189      12.93429055       0.00005448       0.00507092       0.00184786
O        8.86190116       6.81065695      13.43219405       0.00618094       0.02448916      -0.01049545
C       10.89570232       5.10457805      13.09141734      -0.00274205       0.00900991       0.00154248
C        9.07677357       5.50990999      11.13443864      -0.00348808      -0.01104775       0.00528765
H       11.46107091       5.83427906      12.51021280      -0.00808813       0.03093553       0.03483611
H       11.09363849       4.08167210      12.76648589       0.00291551       0.02260982      -0.03645662
H       11.14234005       5.18788149      14.14812297      -0.00359155      -0.03420316       0.00540856
H        9.42496352       4.55886622      10.72913918      -0.00051600      -0.01887514       0.02212370
H        9.70495244       6.33532737      10.79254738      -0.00848961      -0.01994640      -0.00902740
H        8.03754174       5.67013862      10.84774247      -0.00527248      -0.01631835       0.00199584
S       12.21142704       9.41931357       0.36059706       0.00113797       0.00897733      -0.00037885
O       13.52893743       9.51583411       1.06115170      -0.00003636       0.01470671      -0.00105667
C       11.20888263      10.77380643       1.00119285      -0.00862199       0.00117612       0.00029129
C       11.30862242       8.08108397       1.14223273       0.00676879       0.00866735       0.00578403
H       11.64408519      11.70145998       0.62941364      -0.02070411       0.00646857      -0.00272023
H       11.24615438      10.77079722       2.09055918      -0.00321669       0.00612084      -0.00286782
H       10.18669506      10.67506040       0.63881226      -0.00937703      -0.01119294       0.00141385
H       10.32661627       7.96866728       0.68034772       0.00952286       0.00428739       0.00218962
H       11.25138636       8.27223225       2.21182719       0.00493705       0.01455402       0.00399661
H       11.89207213       7.17766004       0.98039351       0.01067734       0.00761870       0.00980210
S       12.84075556      12.67272766       9.19864473       0.01191379       0.00319624      -0.00002152
O       12.82948895      12.82377923      10.73616076       0.01987163       0.01065938      -0.00248605
C       14.58999011      12.65995442       8.82163642       0.00884312       0.01085392      -0.00733767
C       12.43531204      14.28242192       8.56689733      -0.00121871      -0.00146306       0.00143915
H       14.98800081      11.71553945       9.18624764       0.01755067       0.01746537       0.00370389
H       15.07242453      13.50344440       9.31395058       0.01075188       0.02062288      -0.02768482
H       14.70541504      12.71313385       7.73926673       0.00397417       0.00052243      -0.00688611
H       12.38189089      14.21492449       7.47567797      -0.00756567      -0.00897367       0.00281322
H       13.16549977      15.01428623       8.90966399      -0.01178928       0.00925734      -0.00651610
H       11.43563526      14.48948646       8.93910671      -0.00068554      -0.00836020       0.00845788
S        4.93541662       8.59801518      13.92874054       0.01099682       0.00037396      -0.00577903
O        4.07628112       8.01201177      15.00916908       0.01234049      -0.00821072      -0.00700605
C        5.63448246       7.20091448      13.04323228       0.01271206       0.00766641      -0.01521303
C        6.47565558       9.11177347      14.70081942       0.01082963      -0.00162597      -0.00466543
H        4.81927143       6.72126286      12.50556409       0.01175973       0.00631619      -0.01296111
H        6.08496555       6.52399030      13.76628262       0.02287447       0.00627868      -0.02367394
H        6.39334710       7.54653268      12.34401709       0.00496390       0.01674842      -0.01955169
H        7.20231551       9.32838508      13.91851164       0.01006877       0.00323293      -0.00390866
H        6.83159165       8.30283192      15.33660567       0.01285166      -0.00353079      -0.00981846
H        6.25471119      10.00954375      15.27180039       0.01055550      -0.00445771       0.00012872
S        6.93536007       1.29713937       8.12585228      -0.01983869      -0.01697533       0.01862681
O        6.07244635       0.94937693       9.30449188       0.01514375      -0.00485542      -0.03399634
C        8.49420458       1.89030793       8.80588547       0.00029451      -0.00859928      -0.00445798
C        6.35334731       2.87475632       7.50442038       0.00112769      -0.00387293      -0.00700802
H        8.94313916       1.06568736       9.35813021      -0.00197202      -0.01106541      -0.01171260
H        8.28759828       2.72952987       9.47035321      -0.00515397      -0.01402719       0.00322035
H        9.14657939       2.19643445       7.98944643      -0.00333457      -0.00388756       0.00175610
H        6.97486864       3.17907746       6.65978790       0.01115856       0.00653563       0.01340896
H        6.34391965       3.61414510       8.30726664      -0.01674601      -0.01419642       0.00468206
H        5.34195480       2.69629124       7.14163085       0.00937600      -0.00627986      -0.02196711
S        3.99297163       5.46685859       9.79799841       0.00496078       0.00184876       0.00031506
O        5.43437116       5.15992268      10.09293087      -0.00224030       0.00258195      -0.00329772
C        3.03422600       4.13110466      10.50739748       0.00182635      -0.00094616      -0.00785369
C        3.65591811       5.06638026       8.07342416      -0.00049996       0.00888389      -0.00168276
H        3.00820395       4.25825020      11.58756091       0.00546004      -0.00738334      -0.00694402
H        3.50426869       3.18220483      10.24669287       0.00025034       0.00074516      -0.01518787
H        2.01697424       4.17095150      10.12240526       0.00197190       0.00417583      -0.00557818
H        2.63122893       5.36794930       7.85795443      -0.00091511       0.00624978       0.00084424
H        3.77297121       4.00107698       7.89280078       0.00229062       0.00933295      -0.00548409
H        4.34775531       5.64660682       7.46586165      -0.00034334       0.01085006      -0.00081689
S        1.41645328       3.79505526       4.56814673       0.00609359       0.00398636       0.00559938
O        2.15760075       2.96170030       5.57147646       0.00506216       0.01253140       0.00148690
C        0.71687189       5.19862267       5.45413442      -0.00586227       0.00311923       0.00048769
C       -0.16401463       3.00552794       4.22788743       0.00883013      -0.00165442      -0.00086322
H        1.54363520       5.84096171       5.75434555      -0.00913695       0.00708912       0.00281072
H        0.16970235       4.81707045       6.31731024      -0.00708869       0.00116608      -0.00089885
H        0.04483880       5.74936760       4.79649448      -0.00498278      -0.00028088      -0.00135590
H       -0.66823383       3.62123197       3.48349490      -0.00095853       0.00648281       0.01497406
H       -0.73752933       2.93617706       5.15290967       0.01548924      -0.02461074       0.00161523
H        0.03262399       2.01984172       3.81607558       0.01519530       0.00783753      -0.02194227
S        8.67770422      12.34873474       8.38039422      -0.01049328       0.00167349       0.00280762
O        9.98131772      12.59243844       9.07924724      -0.00010145       0.01594545       0.00049984
C        7.64363897      11.50922209       9.57853145      -0.00386077       0.00977445       0.00948215
C        8.88158822      10.95516733       7.27399419       0.00865477       0.00101906       0.01349759
H        7.46741288      12.22133232      10.37770873      -0.00400015       0.01508527       0.00259465
H        8.18750807      10.64485488       9.96308688      -0.00941198       0.01150858       0.01492966
H        6.70541401      11.22522882       9.09800436      -0.00501829       0.00809852       0.01372156
H        7.89925384      10.60796673       6.94875346       0.01130337      -0.00559682       0.00806378
H        9.41523657      10.16139429       7.79850762       0.01263092       0.00604336       0.01680139
H        9.45213067      11.32464517       6.42363800       0.01161731       0.00221580       0.01529225
S        6.28955359       9.15102327       4.27045750       0.00825614       0.00299141       0.00580597
O        7.00957487       8.59975532       5.46240212       0.00000018       0.00569773      -0.02374589
C        6.19889813      10.94030423       4.47401537      -0.00261360       0.00667948       0.00925118
C        4.52969133       8.84865397       4.50476320       0.00210673       0.00161074      -0.00440571
H        7.19344331      11.34897896       4.29784460      -0.00090066       0.00778224       0.02629104
H        5.86647131      11.14158745       5.49273505      -0.01121496      -0.00375545       0.00952345
H        5.48427439      11.34002178       3.75416249       0.00170705       0.01259277       0.01038651
H        3.98820347       9.32491972       3.68769049      -0.00191110      -0.00460204      -0.00163169
H        4.22918117       9.26593935       5.46525957       0.00306244       0.00098403      -0.00171307
H        4.38039775       7.77158336       4.47207472       0.00875748       0.00184871       0.00097567
S        6.75689191       3.01308021       3.26440620      -0.00518823      -0.00282416      -0.00848329
O        7.41377782       3.57547057       4.48787339      -0.01966107       0.01747465      -0.01261139
C        5.47650166       1.88004714       3.82972398       0.00154617      -0.00873864      -0.00417840
C        7.86142295       1.76532733       2.58909445       0.00286901       0.00193536       0.01124091
H        4.69473127       2.46790099       4.30887391      -0.00289141      -0.01192747       0.00021069
H        5.91563713       1.17959645       4.54095124       0.00656012      -0.00570472      -0.00764327
H        5.07675334       1.36045422       2.95889823      -0.00195958      -0.01054403       0.00049816
H        7.32755393       1.24731547       1.79297128       0.01798090      -0.00610936       0.00148580
H        8.18225115       1.09282479       3.38467467      -0.00581111       0.00552567       0.00759864
H        8.72384920       2.28068595       2.17055634       0.00775755       0.00270365       0.01208751
S        1.65782698      12.09315266       4.36970777      -0.01165545      -0.00229016       0.00672185
O        2.89373658      11.89537040       3.54370187      -0.01479352      -0.00249047       0.00469720
C        0.24732065      11.94066723       3.27091503      -0.01493141       0.00053189       0.01402092
C        1.50144553      13.86423149       4.65006944      -0.00685411      -0.00177670       0.01041205
H        0.20548675      10.91636098       2.90348183      -0.01995546      -0.00079989       0.01630361
H        0.36383401      12.62637949       2.43049907      -0.01691896      -0.00340851       0.01142028
H       -0.66526039      12.18368479       3.82163082      -0.01261818       0.00404554       0.01617010
H        0.51308597      14.07097252       5.06355500      -0.00515299       0.00079905       0.01195220
H        1.62249767      14.36938828       3.69135493      -0.00448022       0.00024207       0.01207930
H        2.27808085      14.19322507       5.33585713      -0.00450628      -0.00665620       0.01231641
S       12.24464205       9.13759924       4.95710514       0.00619223      -0.00699973       0.00510180
O       12.65946660       7.73297803       5.26577408       0.00694606      -0.00560784       0.00617707
C       12.35744745      10.07091723       6.49213770       0.00840598      -0.00459781       0.00306416
C       10.44470082       9.17266735       4.82983422       0.00685334      -0.00876676       0.00569025
H       13.41887454      10.17909347       6.71165621       0.00831716      -0.01127699       0.00503788
H       11.85786595       9.50917067       7.28355262       0.00546080      -0.00127737       0.00315732
H       11.90873876      11.05619786       6.33830350       0.01401212      -0.00328280       0.00061708
H       10.14619147      10.20261976       4.62463241       0.00521071      -0.00989662       0.00269979
H        9.98740411       8.80814893       5.74749524       0.00842818      -0.00687519       0.00644910
H       10.16127284       8.52927885       4.00031602       0.00750744      -0.01203339       0.00773339
S       12.62838428       7.05982088       9.94356099       0.00812209       0.00420031       0.00699067
O       11.40361779       7.53960466       9.23563982      -0.01117051      -0.00169635       0.00940531
C       14.05673734       7.60449192       8.97765401      -0.01105565       0.00396113      -0.01624936
C       12.79726631       5.31025553       9.56644587       0.00369886       0.00330842       0.01725075
H       14.12426625       8.68450971       9.08786454      -0.01250273       0.00468323      -0.02290381
H       13.90530643       7.33562679       7.93112367      -0.02066056      -0.00079841      -0.01233439
H       14.95385889       7.13944669       9.38967475      -0.00346237       0.01019671      -0.02309196
H       13.74849605       4.94023057       9.94840602       0.00167782       0.00580793       0.02748270
H       12.69629903       5.14793235       8.49221240       0.01031633      -0.00880085       0.01952285
H       11.99219686       4.78993522      10.08168886       0.00196069       0.00922066       0.02141133
