200
Lattice="12.766263626626552 0.0 0.0 0.0 12.766263626626552 0.0 0.0 0.0 12.766263626626552" Properties=species:S:1:pos:R:3:forces:R:3 energy=-471372.1875 stress="0.0011411417508497834 0.0006440946599468589 -0.0007888242544140667 0.0006440946599468589 0.000991819310002029 -7.787850699969567e-05 -0.0007888242544140667 -7.787850699969567e-05 0.0006056682323105633" pbc="T T T"
Tm      11.13728764      11.58356354      -0.18842316      -0.00853904      -0.00266480       0.00980192
O        9.40466746      11.89287554       9.04183707       0.00205177      -0.00286278       0.00252363
O        9.56806664      12.47815684      11.17782893      -0.00590491      -0.00507230       0.00390702
O       10.93842366      10.93373871      10.37151453      -0.00145119      -0.00243366       0.00725308
C        9.98348848      11.76308471      10.19973943      -0.00069240      -0.00399436       0.00629768
H        9.91849064      11.32521389       8.30844011       0.00152925      -0.00372721       0.00344007
O        4.62399239      12.14031239       8.54342951      -0.00414819      -0.00469536      -0.00635546
O        6.51364211      12.68521351       7.52447903      -0.00120592      -0.00313520      -0.00142545
O        5.99125665      10.50930802       7.80098762      -0.00093475      -0.00355029      -0.00193295
C        5.79865320      11.74129272       7.91179309      -0.00241196      -0.00511271      -0.00285688
H        4.05941651      11.35133622       8.72691354      -0.00268332      -0.00557777      -0.00512902
O       11.38113847      11.02872291       2.05858732      -0.00985643       0.00534812       0.01499718
O       11.58364480       8.83819301       1.71759633      -0.01058840       0.01917487       0.02485299
O       11.59605478       9.63300264       3.82582882       0.00145346      -0.00090556       0.02317917
C       11.53496460       9.73064721       2.59531140      -0.00543600      -0.01496512      -0.02874005
H       11.29824728      11.68992195       2.86631338      -0.00384063       0.00254809       0.01090974
N       11.13581480       4.19926032       2.63359112       0.01197560      -0.00437011      -0.01839301
H       10.28640274       4.11812730       3.18583766       0.01415654      -0.00695879      -0.01562390
H       11.62472099       5.02399273       2.97819410       0.01122134      -0.00307927      -0.01989406
H       11.72137839       3.41411122       2.89560499       0.01522667      -0.00227128      -0.01932785
N        0.11256676       9.86846265      12.19343524       0.00481892       0.01034874       0.01786901
H       -0.14262344       9.49089847      11.28668256       0.02671318       0.01072091       0.01340112
H       -0.16757724       9.19841600      12.91744410      -0.00724322       0.00690958       0.01227503
H        1.12263722       9.93861414      12.20892982       0.00340775       0.01301973       0.04089778
N        5.92147290       7.37478897       8.43940217       0.00576892      -0.00263985      -0.00296007
H        5.48032890       6.94117529       7.63636837      -0.00046233      -0.00044528      -0.00065565
H        5.93137907       8.38041466       8.27407669       0.00744078      -0.00254661      -0.00204990
H        5.31232868       7.20359202       9.23053228       0.00898510      -0.00114115       0.00008215
N        0.12023017       0.27080272      11.66766141      -0.00821126      -0.00015122       0.00949560
H       -0.15768771       0.59032308      10.72151355      -0.00688018       0.00611050       0.01220989
H        0.96078530      -0.28541833      11.54634877      -0.01135297      -0.00404739       0.00542225
H        0.41674697       1.07824327      12.20847454      -0.00339921      -0.00561225       0.01500748
N        2.55337390       0.94640342       6.81569297      -0.00058120       0.00583893       0.00121075
H        3.30630561       0.47168909       7.31167508      -0.00260114       0.01023380       0.00858790
H        1.69099938       0.66316377       7.26565991      -0.00307731       0.00673651      -0.00317633
H        2.68203978       1.93823186       6.99411480      -0.00413141       0.00748730      -0.00430770
N       11.10903651      12.46822690       4.18763672       0.00397515      -0.00130990       0.00923431
H       11.59802005      13.33391406       4.37869508       0.00208715       0.00151131       0.00416258
H       11.53017912      11.72954377       4.74012867       0.00462855       0.00433940       0.01282011
H       10.14421741      12.56211501       4.50333370       0.00359917      -0.00121907       0.00644480
N        5.43024218       2.53913236       8.61061197      -0.00365247      -0.00324347       0.01058547
H        6.20569709       3.08303512       8.98374061      -0.00090645      -0.00390904       0.00590893
H        5.82447036       1.68976274       8.19956211      -0.00721224      -0.00377325       0.00897010
H        4.87780110       2.22567922       9.40001905      -0.00101186       0.00021541       0.01386584
N        1.92802861      10.62004740       2.78394829      -0.00137898      -0.00127017      -0.00069149
H        1.33749746       9.94172887       2.31854151      -0.00214653      -0.00724115       0.00871033
H        1.95089948      10.36472458       3.76486349       0.00602686       0.00561072       0.00025380
H        2.88516870      10.53040205       2.43334215      -0.00257839      -0.00284780      -0.00577284
N        8.08350943       2.13440863      12.32776084       0.00029805      -0.00221118      -0.01353845
H        8.45830208       3.06886296      12.21701220       0.00369599      -0.00564767      -0.03051246
H        7.07982084       2.22289796      12.22364565       0.00063768      -0.00006259      -0.01318745
H        8.41710846       1.58659131      11.53702736      -0.00296169      -0.01615543      -0.00524041
N        9.64325296       7.68919832       5.54512266       0.00006812      -0.00730744       0.00174217
H       10.16907596       8.41325203       5.06178043       0.00314705      -0.01048864       0.00511879
H       10.31437579       7.04982112       5.98090608      -0.00436042      -0.00603372       0.01230666
H        9.08728920       8.11525320       6.27581927      -0.00810742      -0.00464459      -0.00532591
N        1.53716020       6.59916213       5.86692007       0.00034182      -0.00499454       0.00613481
H        1.94447926       5.67672686       6.00047995       0.01295681      -0.00053414       0.00021422
H        2.29024069       7.20332493       5.55560145      -0.00843200       0.00730240       0.00934300
H        0.88626786       6.51970837       5.08867769       0.00043294      -0.00927780       0.00686824
N        3.86803866       6.87198346       2.19032200       0.00317562       0.00032350       0.00219071
H        3.19172026       6.40235116       2.78284043      -0.00004263      -0.00269853      -0.00381039
H        4.04506203       6.23875988       1.41716341       0.00862472       0.00224601       0.00172436
H        3.39423381       7.68286148       1.80798955       0.00360689      -0.00000657       0.00068950
N       10.59867933      10.68209170       7.11489824      -0.00263602      -0.00837976       0.00425291
H       10.54491450       9.67114462       7.06882792      -0.00372241      -0.00837950       0.01090725
H       11.58170955      10.91774309       6.98710850      -0.00304855      -0.00956940       0.00019910
H       10.05090064      11.04341453       6.32934375      -0.00422377      -0.01239552       0.00351374
N        4.15277251      10.00691441       5.39637150      -0.00891173      -0.01774013       0.00122871
H        4.78742989      10.07219288       6.19369903      -0.00849638      -0.01314569       0.00040466
H        4.44230016      10.72596541       4.74080241      -0.02506258      -0.00509465       0.00831431
H        4.35423510       9.12929682       4.93034536       0.00827380      -0.00841632      -0.00880288
N        2.24675053       2.83905181       4.27070352      -0.00384003       0.00491557      -0.00077199
H        2.55828646       3.53961454       4.94000321      -0.00230948       0.00120768       0.00242077
H        2.73690796       3.00571171       3.39486312      -0.00857046       0.01292438      -0.00197138
H        2.56786119       1.95626791       4.65817510       0.00203062       0.00357363      -0.00924910
N        9.25318031       2.18748798       8.17254913      -0.00934309      -0.00923301       0.00626532
H        8.60916774       2.71999040       8.75037162      -0.00024471       0.00694862       0.00085505
H        8.76363812       1.33936732       7.90233584      -0.01221527      -0.01747835       0.03963696
H        9.39449972       2.74126961       7.33637903      -0.02722912      -0.03441755      -0.01267613
N        9.23772214       6.97322487       2.49504557       0.00021364      -0.00520268      -0.00206275
H       10.03476664       7.54653947       2.22538833       0.00143278      -0.00574429      -0.00679479
H        9.39899354       6.06134647       2.08424850      -0.00001374      -0.00724290       0.00235295
H        9.30656547       6.86429472       3.50568704       0.00220552       0.00050833      -0.00275463
N        1.73391798       3.26145129       9.85307934       0.00313470       0.01599240       0.01311563
H        1.89529148       3.75085362       8.97771193       0.00522612       0.02066104       0.01627954
H        1.78563238       2.27157363       9.64024797      -0.00996975       0.01686425       0.00637160
H        2.53809992       3.47295931      10.43733768       0.00949033       0.00216331       0.00966918
N        8.24480171      11.59091405       5.41903132      -0.00104071      -0.00496344      -0.00357819
H        7.98531286      10.61143078       5.35969880      -0.00362081      -0.00423767      -0.00395220
H        7.74476942      11.94270804       6.24347066      -0.00155891      -0.00352737      -0.00423045
H        7.80227033      12.02437232       4.61374210       0.00134889      -0.00427777      -0.00488679
N        0.88367712      10.97723099       6.13813609      -0.00593045       0.00180324      -0.00710867
H        1.78233898      10.55061747       6.35793718      -0.00710557      -0.00184819      -0.00587511
H        1.13879153      11.79502956       5.59136129      -0.00191366       0.00572220       0.00028155
H        0.42552312      10.33597365       5.49320697      -0.00391767       0.00774046      -0.01237042
N        4.22212182      12.25299265      11.67772720      -0.00034827       0.01510918      -0.00695524
H        3.59075639      12.91881376      12.11068835      -0.00333576       0.01969145      -0.01853089
H        4.37491367      12.54352911      10.71317195       0.00393300       0.00378937      -0.00969018
H        5.10989517      12.38261245      12.15045344      -0.00306147       0.02222909      -0.00395507
N       11.46427898       5.51991117       6.83162752      -0.00039259      -0.00046560       0.01106353
H       11.04128706       5.22914403       7.70551985       0.00487019      -0.00384884       0.01258266
H       12.30221466       6.05061371       7.04672788       0.00389777      -0.00589132       0.00717822
H       11.78045600       4.66222141       6.37549745      -0.00807047       0.00103637       0.00265343
N        0.98606766       0.81848478       2.02638738       0.00191160       0.00174430      -0.00427955
H        1.35282105      -0.09603810       2.31143286       0.00242324       0.00132534      -0.00624885
H       -0.02013994       0.69983287       2.01117631       0.00171851       0.00096958      -0.00355288
H        1.17169753       1.46483586       2.79038268       0.00250661       0.00078695      -0.00399879
N        6.53178136       6.36911505       0.29325728      -0.00043142       0.00342304      -0.00934884
H        6.13839139       7.29250926       0.44566993      -0.00392776       0.00093450      -0.00360673
H        7.45812781       6.54989814      -0.08800688      -0.00699261       0.00918662      -0.02257259
H        6.68955510       6.00453813       1.22803036       0.01572632       0.00452251      -0.01178406
N        4.85063025      10.71488326       1.84297768      -0.00293288       0.00205958      -0.00295240
H        4.84655316      10.69279792       0.83097317      -0.00212160       0.01480583      -0.00333600
H        5.54466445      10.05007137       2.18366022      -0.00069071       0.00034687      -0.01113686
H        5.16661918      11.63532731       2.12980940      -0.00623434      -0.00042946       0.00862226
N       12.07343321       1.00554134       8.84822707      -0.00104183       0.00746122       0.00486824
H       11.09168389       1.28825943       8.74404954       0.00009457       0.01118818       0.00296532
H       12.61482388       1.79132251       8.50585758       0.00305592       0.00272935       0.00057140
H       12.22895037       0.22286122       8.22180376      -0.00466864       0.00357732       0.00899356
N        8.51618889       1.71194533       3.48336269       0.01555401       0.00225987       0.00184143
H        7.92172345       1.91112454       4.28070316       0.03441521       0.00715724       0.01417617
H        8.08984873       0.90195001       3.03276934       0.00412912       0.00279054       0.01158922
H        8.38939320       2.49698343       2.85420152       0.00490347       0.00190200       0.00356551
N        8.00970005      11.54192711       2.33700343       0.00130576       0.00875345      -0.00756980
H        7.87597675      11.63972015       1.33721179      -0.00014910       0.01317758      -0.00740089
H        7.54360076      10.67805951       2.61367166      -0.00073175       0.00907379      -0.01129047
H        9.00231740      11.40250848       2.49424802       0.00160634       0.00334279      -0.01147763
N        5.24654312       0.90216710       4.85030796      -0.00813871      -0.00838213      -0.00229644
H        5.78752190       0.70492439       5.69317892      -0.00019276      -0.02083679      -0.01101776
H        4.34248403       0.47550304       5.03482775      -0.01556984       0.01542603       0.01469079
H        5.05348163       1.89916049       4.87939583       0.01811844      -0.00361615       0.00074019
N        7.63656821       4.67877984       9.71547922       0.00264540       0.00319570      -0.00880389
H        7.25415241       5.41685875       9.12706621       0.00094445      -0.00015249      -0.01205072
H        8.64443492       4.82356816       9.74976930       0.00200257       0.00778231      -0.00762424
H        7.28560267       4.85702262      10.65085931       0.00106142       0.00724021      -0.00998416
N        8.64664453       7.67521664      10.85527924      -0.00347807       0.01039474      -0.02254392
H        7.90579659       8.36790429      10.94107121       0.00101315       0.01573656      -0.02443648
H        8.29961398       6.96432583      10.22083075      -0.00488950       0.01704316      -0.02897444
H        9.37486269       8.16478019      10.34353105       0.00328214       0.00741703      -0.01601728
N        2.60613091      10.47611591       9.47093954      -0.00639969      -0.00097750      -0.00026894
H        2.87997461      10.64902868      10.43266441      -0.00827039       0.00644566      -0.00091612
H        2.39266721       9.49380788       9.35801969      -0.01221255      -0.00084797       0.00921239
H        1.75546068      10.98836376       9.27078343      -0.00255278       0.00269210      -0.00689707
N        3.42418193       2.77794244       1.17787068       0.00041748       0.01336409      -0.00397025
H        4.21279378       2.17282089       1.37372920       0.00035295       0.01916312       0.01361748
H        3.60226184       3.23536113       0.28713844       0.01044055       0.00332744      -0.00714619
H        2.60419408       2.18063042       1.09555758       0.00446478       0.00856557      -0.00758450
N       12.17793353       2.68847143       5.60572355      -0.01284037       0.00647059      -0.00971848
H       11.37698193       2.56865821       4.99866706      -0.00701996      -0.00090968      -0.01584141
H       12.21808629       1.89093238       6.22789303      -0.01716735       0.01388105      -0.00013198
H       13.02902791       2.71460305       5.03876212      -0.00738344       0.00368022      -0.00161067
N        8.63225666       4.55650201       5.15131849       0.00557180       0.00284759      -0.00286028
H        9.41648589       3.97482950       5.42041119       0.01572556       0.01782198       0.00040604
H        7.84668208       4.27750073       5.72980521       0.01388677       0.00086495       0.00753841
H        8.88416415       5.50300121       5.42878743      -0.00462829       0.00934010      -0.01623622
N        5.73193751       5.21700896       4.16554280      -0.00797925      -0.00976797       0.00760777
H        5.30830398       5.92248121       3.57132571       0.00015252      -0.00071380       0.01251792
H        5.56469720       4.32381458       3.71516715      -0.02403208      -0.00419217       0.00276167
H        6.73738335       5.35750766       4.14050316      -0.00608763      -0.02478378       0.00326655
N       10.43649014       0.87709594       1.02704665      -0.00400405       0.00418293       0.00150871
H        9.52679104       1.16473103       0.63767385      -0.00128049       0.00590152      -0.00291423
H       10.28227822       0.86567138       2.03552968      -0.00834116       0.01048066       0.00102359
H       11.02570766       1.69279141       0.87055029      -0.00034396       0.00111452      -0.00038427
N        9.42868902       9.85929541      12.77762244      -0.00757545      -0.00606871       0.00125472
H        8.62227843      10.03530241      12.17183227      -0.00933173      -0.00275601       0.00651754
H        9.06313428       9.72765447      13.71546793      -0.00341021      -0.01864218       0.00121771
H        9.76158843       8.93587670      12.51404559      -0.00546030      -0.00228250      -0.01020028
N        0.47317564       6.70112824       2.80649916       0.00362275       0.00250426      -0.00792444
H        1.11769287       7.41194845       3.13536195       0.00785122      -0.00935265       0.00653407
H       -0.28451155       7.24401281       2.38761690       0.00086353       0.01661097       0.01035268
H        0.93804843       6.22716246       2.04019392      -0.00421420       0.02358672      -0.02523984
N        3.65166615       4.46881254       6.92786923       0.00814294      -0.00345670      -0.00544079
H        3.38708254       5.18527278       7.59974977       0.01205979      -0.00112775      -0.00622603
H        4.25639918       4.90349045       6.23288828       0.01174803      -0.00825295      -0.00553741
H        4.24146070       3.79753272       7.43555098       0.00348786      -0.00545412      -0.00277087
N        7.04911838      10.54159792      10.74601475      -0.00801560       0.00479969       0.00287357
H        7.41945628      11.48252402      10.85641196       0.00157509       0.00101065       0.00330666
H        6.06144021      10.58438875      10.97101995      -0.00538548       0.01197613       0.01253997
H        7.07845016      10.37456167       9.74100355      -0.01785040       0.00771706       0.00225356
N        0.82416090       4.98413220      -0.22979684       0.00862972      -0.00948027       0.01190724
H        1.61521777       4.61809234       0.28981985      -0.00968762      -0.02948494       0.02502286
H        0.77801504       4.42433349      -1.07892606       0.01576153      -0.00050085       0.00584015
H       -0.00293911       4.76999058       0.31957818      -0.00555605       0.00032175      -0.00604659
N        6.70155608       8.59344714       3.18860492       0.00200878      -0.00295901      -0.01418063
H        7.49264021       8.02422034       2.86623847       0.00241461      -0.00431012      -0.01164643
H        5.85844147       8.05106326       3.01388904       0.00193767      -0.00357838      -0.01333556
H        6.78909853       8.65476074       4.19755758       0.00097528      -0.00046883      -0.01435436
N       10.90764235       5.74179545       9.96674651       0.00363204      -0.00236806       0.01113796
H       11.80134152       5.26344921       9.93586275      -0.00016634      -0.01002307       0.02549899
H       10.73293695       6.00214430      10.93055062      -0.00910138       0.00157628       0.00780773
H       11.02363175       6.60866455       9.45530034       0.01858492      -0.00466971       0.01116362
N        4.13518219       4.87844243      11.37218470       0.01183027      -0.01352701      -0.01254055
H        3.38426195       5.55385191      11.26743967       0.00546621      -0.01885430      -0.00063509
H        4.49516810       4.72095465      10.43602205       0.00878712       0.00195086      -0.01614726
H        4.88644223       5.32934118      11.89767472       0.00920958      -0.01299138      -0.00936201
N        2.19755498       6.84896512       8.86579052       0.02268800      -0.01494959       0.00402385
H        1.55200461       7.08292291       9.60954141       0.02836331      -0.03313731       0.01428245
H        1.72096310       6.94596147       7.96720509       0.01000442      -0.01546922       0.01127193
H        2.95675117       7.51824511       8.87566361       0.00986418      -0.00074732       0.00214997
