196
Lattice="13.369380198736783 0.0 0.0 0.0 13.369380198736783 0.0 0.0 0.0 13.369380198736783" Properties=species:S:1:pos:R:3:forces:R:3 energy=-716213.3125 stress="-0.0010090699652209878 0.0002100068304571323 7.900064883870073e-05 0.0002100068304571323 -0.001141684944741428 -7.017243842710741e-05 7.900064883870073e-05 -7.017243842710741e-05 -0.0007000351324677467" pbc="T T T"
Yb       9.42243957      12.97546348       2.30589721      -0.01673244      -0.01227687      -0.00930680
Br      10.39611185      13.40217388      12.73259865       0.00299488       0.00006236       0.00279543
O       11.63122411      13.85564965      11.82026519       0.01328561       0.00031210       0.01135342
O        9.93791025      14.56110357      13.83662496       0.00079115      -0.00169209       0.00166860
O        9.09903650      12.94828995      11.89307442       0.00994609       0.00575445      -0.00685418
O       10.80572438      12.17260115      13.78324204      -0.00546279      -0.00419228      -0.00011540
Br       8.34916075      12.48279317       5.64616831       0.00466067       0.00478181       0.00743057
O        7.95620119      14.04401859       5.31369662      -0.00829126       0.00163159       0.00203677
O        9.78729304      12.49788964       6.39939768       0.01308702       0.01830273      -0.01323260
O        7.21663162      11.73907332       6.49079576       0.02619281       0.00421030       0.01388709
O        8.56232432      11.76050426       4.17211694      -0.00346007       0.00317545       0.00296895
Br       3.97915442      12.36149912       2.60021882      -0.00649990       0.00131192       0.00585518
O        4.04449589      12.16389670       0.99396561      -0.00691819       0.00510193       0.00568342
O        5.48148452      12.27147807       3.21525672      -0.00663567      -0.00536185       0.00549605
O        3.35778546      13.82813861       2.96591476      -0.00211874       0.00174069       0.00987254
O        3.01876118      11.21445610       3.23222180      -0.01081985       0.00302553       0.00258881
O        6.06719152      11.56645965       9.96666379      -0.00457400       0.00453719       0.00550215
C        4.85421496      11.72404815      10.69919832      -0.00405538       0.00661480       0.00695339
C        4.54869974      10.55155530      11.60488565      -0.00710590       0.00398487       0.00230879
H        4.87934455      12.65147958      11.28688527       0.00091048       0.00394052       0.01103747
H        4.07587477      11.83829764       9.94140587      -0.00429222       0.01308267       0.00906354
H        3.60232975      10.70797826      12.12269775      -0.00564490       0.00568415       0.00456762
H        4.50730676       9.61707239      11.04681686      -0.01171815       0.00692943      -0.00177266
H        5.31814678      10.45561416      12.37288960      -0.00642768      -0.00261448       0.00060129
H        6.76745909      11.32607931      10.58132386      -0.00705773      -0.00220989       0.00130619
O        4.51486353       7.17814476       1.41048328      -0.00063905       0.00011933      -0.00507815
C        4.04647161       8.53763680       1.52101112      -0.00159210      -0.00115162       0.00237495
C        2.67611393       8.71374913       0.91396815      -0.00121069       0.00142173       0.00253296
H        4.05409421       8.84238950       2.56989188      -0.00245356      -0.00713125       0.00404418
H        4.78833324       9.13703591       0.99105334      -0.00159842       0.00234190       0.00646022
H        2.37741910       9.75965078       0.98879965      -0.00213014       0.00064036       0.00777077
H        2.68018781       8.41895761      -0.13651111      -0.00016342       0.00699539       0.00107110
H        1.93800658       8.10425457       1.43973426      -0.00109904      -0.00194266      -0.00147390
H        3.82741210       6.60539375       1.76765828       0.00033057      -0.00185356      -0.00599401
O        4.90037596       9.02439686       5.70185946       0.00661352       0.00422466       0.00749189
C        5.20990823       8.40355149       6.93727682       0.00234494      -0.00247747       0.00454080
C        4.51629843       9.03414426       8.12915011       0.00326258      -0.00493282       0.00623351
H        4.99609882       7.32551864       6.90605690      -0.00214231      -0.00138903      -0.00049660
H        6.28987043       8.51051037       7.06417132       0.00260699      -0.00786652       0.00646968
H        4.89722802       8.59309636       9.05240743      -0.00466110      -0.01454230       0.00464870
H        4.71981835      10.10395072       8.15634089       0.01163839      -0.00714564       0.01474888
H        3.43826351       8.86833108       8.10361968       0.00224482       0.00434556       0.00079697
H        3.98923183       8.82069015       5.42786423       0.00702164       0.00453597       0.00357848
O        9.61632232       7.63420111       9.98982079      -0.00265121      -0.00059503      -0.00501239
C        9.01883209       7.92877921      11.25429391      -0.00238374       0.00229067      -0.00560415
C        8.02173704       9.05844634      11.16211742      -0.00268161       0.00184923      -0.00833659
H        8.53132330       7.03682389      11.66729151      -0.00214106       0.00323033      -0.00345217
H        9.84240795       8.17977571      11.92588778      -0.00238186       0.00396635      -0.00651670
H        7.53041556       9.18844405      12.12519062      -0.00106968       0.00555557      -0.00809480
H        8.52047357       9.97618783      10.84593852      -0.00313129       0.00062890      -0.01248385
H        7.24036231       8.81566504      10.43749385      -0.00386363      -0.00083233      -0.00603823
H        8.92632942       7.70963129       9.32045077      -0.00356635      -0.00877528      -0.00391215
O        8.52236252       8.54927729       1.13938244      -0.00879323       0.00125813       0.00180587
C        8.87026447       9.91477960       1.10322436      -0.00471950      -0.00005299      -0.00483731
C        7.64678895      10.81934952       1.20492867      -0.00185472       0.00506432      -0.01277866
H        9.60768428      10.14086945       1.90511425      -0.00574785       0.00137595      -0.00441504
H        9.38717895      10.06909027       0.15761951      -0.00241247      -0.00560340      -0.00417721
H        7.82852268      11.84676572       0.84564838       0.00054855      -0.00328951      -0.03319238
H        6.87464583      10.46614249       0.52018493      -0.00665656      -0.00252387      -0.00260317
H        7.20556979      10.84293202       2.20455153       0.00176372       0.02112863      -0.01187056
H        8.00299925       8.36943468       1.92988593      -0.00802105       0.00656030       0.00258683
O       11.15564602      13.39178145       3.90956032       0.00069553      -0.00963590      -0.02623206
C       12.36546254      12.61808128       3.58061175       0.00925672      -0.00038517      -0.01148479
C       12.51440932      11.40567479       4.46282025       0.00528021       0.00044739      -0.01170218
H       12.24834807      12.34483384       2.52759214       0.02205955       0.00187328      -0.01277870
H       13.22416528      13.27809451       3.67511176       0.00479692       0.00353375      -0.00120951
H       13.29611147      10.76562445       4.05168626       0.02757293       0.01737761       0.01332086
H       12.82256165      11.69622508       5.46753431      -0.03079192      -0.00296155      -0.00273144
H       11.58609358      10.83155306       4.52515237       0.01731268      -0.01631396      -0.04023455
H       11.03271939      13.35170275       4.87150254      -0.00016408      -0.00057098      -0.02612776
O        6.20809822       1.93337578       7.32251288       0.00238940       0.00584898       0.01066768
C        6.27298672       1.04994311       8.45888528       0.00331068       0.00357051       0.00696748
C        7.64748984       1.02746199       9.08642745       0.00407964      -0.00273657       0.00447622
H        5.52464960       1.42061237       9.16026639       0.00623688       0.00601429       0.01000413
H        5.98122246       0.04460891       8.15628875      -0.00157486       0.00524539       0.00741330
H        7.66883374       0.33186800       9.92380430       0.00382053      -0.00539996       0.00191790
H        8.40061544       0.69903800       8.36582687       0.00140849      -0.00287656       0.00164078
H        7.93476044       2.01502834       9.44223507       0.00837712      -0.00495161       0.00676378
H        6.77255399       1.55745539       6.63429253       0.00142439       0.00238032       0.00538561
O        5.48630720       6.91166956      12.19785148      -0.02078672      -0.00298691      -0.01378328
C        5.49133029       5.53729525      11.87403102      -0.00376657      -0.00519294      -0.00209323
C        6.48804894       4.71898187      12.67478084       0.00205493       0.01262516       0.00732806
H        4.48681308       5.10519329      12.00668275       0.00093275      -0.01538312      -0.00158074
H        5.73433185       5.47664457      10.80990662       0.00019075      -0.01060743      -0.00044000
H        6.46160792       3.67347782      12.35962279       0.01461139       0.01067756       0.01436261
H        7.50191388       5.09464575      12.53881628      -0.00203153       0.02282204       0.00781013
H        6.24958878       4.76260490      13.73882149      -0.00234013       0.01662242       0.00588708
H        5.16918312       6.99132152      13.11792975      -0.01628739       0.00096303      -0.01234291
O        7.71680884       6.27230349       7.60979436       0.00374025      -0.00038454       0.00381977
C        8.63283948       5.28346801       8.08874597       0.00256614      -0.00307909       0.00052255
C        8.20059935       4.74457829       9.43479786       0.00296736      -0.00519852      -0.00027561
H        8.72055600       4.47071356       7.35917681       0.00035776      -0.00139639      -0.00143754
H        9.60478835       5.77015162       8.16916482       0.00320339      -0.00489244       0.00061022
H        8.94315315       4.05075627       9.83300645       0.00289832      -0.00622132      -0.00208905
H        8.08472572       5.56206081      10.14371985       0.00378315      -0.00654735       0.00122455
H        7.24897805       4.21557135       9.35152525       0.00280957      -0.00475703      -0.00069781
H        6.89909103       5.77588359       7.37752404       0.00254945       0.00169145       0.00335072
O        3.07293903       6.09605125       9.50151073      -0.00344121      -0.00274736       0.00274386
C        2.55827603       4.79801316       9.75451428      -0.00290652      -0.00409049       0.00104946
C        3.51479467       3.67393583       9.40444675      -0.00332308      -0.00254196      -0.00476749
H        2.24205117       4.71525343      10.80508530       0.00172459      -0.00632497       0.00220060
H        1.66112277       4.72035173       9.13439268      -0.00498182      -0.00375004       0.00482124
H        3.02054304       2.70688607       9.52176893      -0.00138912      -0.00320485      -0.00326915
H        3.85502067       3.77499492       8.37466613      -0.00872020      -0.00122456      -0.00641164
H        4.38935221       3.68272578      10.05659586      -0.00008287      -0.00180323      -0.00963162
H        3.75453879       6.29620305      10.15162214      -0.00777276      -0.00088955       0.00262940
O        9.94895742      11.08334168       9.17093831       0.00062668       0.01272303      -0.00938663
C       11.01874944      10.35761754       8.57095588       0.00293702       0.00554953      -0.00121537
C       12.30042159      11.16850968       8.51865061       0.00469774       0.00265384       0.00406471
H       11.14501988       9.46776730       9.18673140      -0.00116561       0.00458160      -0.00112802
H       10.73350434      10.02153553       7.56567671       0.00594822       0.00646570      -0.00228995
H       13.11481730      10.57742229       8.09168596       0.00479643       0.00203361       0.00503061
H       12.17288692      12.06090358       7.90206270       0.00807034       0.00411500       0.00528889
H       12.58743251      11.49087592       9.52063827       0.00254673       0.00073284       0.00513996
H        9.69159040      11.77266410       8.55150910       0.01173425       0.00680337       0.00204597
O        8.71483387       7.90804077       5.58939551       0.00563564      -0.00817561      -0.00003749
C        7.86834500       8.58287639       4.65740224       0.00534779      -0.00355271       0.00361717
C        7.01602923       7.63051748       3.84625467       0.00073940       0.00064296       0.00349134
H        7.22800969       9.30857259       5.16269700       0.00847620      -0.00339919       0.00722516
H        8.55218644       9.14170076       4.01406250       0.00495207      -0.00385597       0.00324473
H        6.39428433       8.17585275       3.13277526       0.00010996       0.00434418       0.00705459
H        7.62918687       6.89647584       3.31753760      -0.00257635       0.00074160      -0.00037076
H        6.31984650       7.09759473       4.49191629       0.00128478       0.00048973       0.00379995
H        8.19512507       7.39818245       6.24324344       0.00588526      -0.00519250       0.00170344
O        1.47697921       4.55243757       3.14853168      -0.00322461      -0.00695060      -0.00673491
C        2.84131171       4.25171059       2.96379595      -0.00238436      -0.00382712      -0.00413454
C        3.15482891       3.81238927       1.54510068       0.00090288      -0.00499021      -0.00293857
H        3.46970944       5.11757748       3.23870685      -0.00471866      -0.00214678      -0.00424121
H        3.09223734       3.45299722       3.66643702      -0.00195382      -0.00235510      -0.00276121
H        4.22132244       3.61158905       1.42511647       0.00148033      -0.00272598      -0.00101933
H        2.60423765       2.90391816       1.30167169       0.00329395      -0.00646360      -0.00259458
H        2.87329645       4.59326003       0.83228733       0.00051226      -0.00646921      -0.00435080
H        1.15524484       5.00036810       2.34281415      -0.00150855      -0.00209726      -0.00467961
O        1.58215105      13.41507027       5.23720371      -0.00431341       0.00287397       0.01189023
C        2.25337548      13.30384117       6.48597318      -0.00019068       0.00609574       0.00958478
C        3.61659478      12.65199418       6.37699771      -0.00358999      -0.00020537       0.00760582
H        2.34963662      14.29479340       6.95221227       0.00597207       0.00780731       0.00447246
H        1.59437027      12.71127760       7.12792268      -0.00031385       0.01214796       0.01462355
H        4.05385861      12.52223634       7.36861116      -0.00051633       0.00102436       0.00622191
H        3.55999642      11.67445717       5.89669385      -0.01012156      -0.00179000       0.01147208
H        4.30025519      13.27291521       5.79406024      -0.00320479      -0.00603001       0.00254548
H        2.23246380      13.62471122       4.54919582      -0.00613740       0.00265514       0.00988145
O       10.26769361       6.17252029       4.16595993       0.00345570      -0.00897992      -0.00055438
C       10.99422900       5.48351995       5.16780159       0.00516462      -0.00974751      -0.00240320
C       11.68532127       6.43597398       6.12563317       0.00283062      -0.01078159       0.00012404
H       10.33359968       4.80555398       5.72687094       0.00681084      -0.01289913      -0.00427523
H       11.73052595       4.85981619       4.65555809       0.00663769      -0.00651059      -0.00391027
H       12.25632846       5.89042167       6.87986896       0.00427106      -0.01167779      -0.00161411
H       12.37032037       7.07966664       5.57482606       0.00105499      -0.00723504       0.00221212
H       10.95864447       7.07371637       6.63239024       0.00149985      -0.01415208       0.00218559
H        9.69499587       6.80981800       4.64056355       0.00362982      -0.00985284       0.00023317
O       12.75943495       4.82174025      11.95487449       0.00133103       0.00374967       0.00382590
C       12.08517269       5.68992477      11.02635969       0.00397342       0.00054333       0.00072090
C       12.91211332       6.89633107      10.64318377       0.00118789       0.00266385       0.00257405
H       11.78651301       5.11743729      10.14201237       0.00827090      -0.00051248       0.00026870
H       11.17120148       5.99602449      11.53014656       0.00040892      -0.00077114      -0.00282967
H       12.31541892       7.55331145      10.00910817       0.00263950      -0.00097002      -0.00252274
H       13.21210240       7.45028680      11.53373639      -0.00585245       0.00612139       0.00251216
H       13.81628942       6.61508297      10.10029904       0.00510952       0.00444668       0.00820351
H       13.48061713       4.38973060      11.48956331       0.00507489       0.00507934       0.00691170
O        5.76469650       4.54463985       6.87790168       0.00057068       0.00335909       0.00276428
C        5.60746787       4.44553300       5.46195377      -0.00174525       0.00056468       0.00319630
C        6.93221623       4.24141379       4.75281611      -0.00309956      -0.00274177       0.00177372
H        4.91444243       3.62980814       5.23123055      -0.00295800       0.00077039       0.00608449
H        5.13399018       5.37411818       5.13884849      -0.00119294       0.00015953       0.00188377
H        6.80039942       4.26213301       3.66970239      -0.00501366      -0.00546732       0.00184776
H        7.64200120       5.02638632       5.01369528      -0.00212458      -0.00259581      -0.00161431
H        7.37838189       3.28204266       5.02358215      -0.00361319      -0.00224441       0.00333591
H        5.97373885       3.63820277       7.19341902       0.00044320       0.00416671       0.00428240
O       13.71072888       5.95061053       1.03633195      -0.00095868       0.00494391       0.00018364
C       12.61747493       6.39753852       1.85452259      -0.00183362       0.00048515       0.00128488
C       11.44356156       6.88192065       1.04212149      -0.00102776       0.00479573       0.00272638
H       12.30065906       5.59193728       2.52235364      -0.00290772      -0.00295901      -0.00347808
H       13.01909224       7.19806036       2.47956872      -0.00188729      -0.00339240       0.00599849
H       10.65785603       7.24730590       1.70040226      -0.00147124       0.00228348       0.00376190
H       11.73909604       7.68273138       0.36153268      -0.00025485       0.00768359       0.00655386
H       11.01867780       6.06477409       0.45542725      -0.00137139       0.00805442      -0.00121885
H       13.34633039       5.50553745       0.25086281       0.00000802       0.00592077      -0.00090197
O        2.31806752       8.83604001       4.67366839       0.01059996      -0.00081101      -0.00107878
C        1.48526474       8.71663985       5.82941825       0.00372696       0.00097376      -0.00634453
C        1.66798050       7.32396176       6.38477900       0.00085238       0.00219500      -0.00287434
H        1.76374327       9.47240699       6.57358071      -0.00125651       0.00248811      -0.00611007
H        0.43596218       8.88823842       5.56207951       0.00539756       0.00000273      -0.01307860
H        1.05498003       7.18871874       7.27597283      -0.00386384       0.00372316      -0.00588189
H        1.38189209       6.57758745       5.64238068       0.00465809       0.00089580      -0.00280267
H        2.70514380       7.14863370       6.67028338      -0.00074145       0.00288335       0.00287067
H        2.34461080       9.75271105       4.36454357       0.01036970      -0.00148390      -0.00409582
O        7.67934928       1.15455094       2.65164935      -0.01066297      -0.00611827      -0.00154287
C        6.57266365       1.79009318       1.94463758      -0.00656056      -0.00261137      -0.00388977
C        6.39645888       1.16439373       0.58860099      -0.00465290      -0.00149792      -0.00516474
H        5.67709076       1.66146244       2.55366941      -0.00904942       0.00133940      -0.00746572
H        6.80568104       2.85311319       1.86081252      -0.00312039      -0.00318298      -0.00356038
H        5.53735238       1.61958657       0.09357644       0.00066482       0.00483093      -0.00851809
H        7.27664265       1.31685506      -0.03671428      -0.00207858      -0.00736854      -0.00243201
H        6.18178532       0.10063908       0.67959252      -0.01305808       0.00003946      -0.00773336
H        7.46232992       1.12121256       3.60034013      -0.01303077      -0.00675531      -0.00062543
