197
Lattice="17.632160305204916 0.0 0.0 0.0 17.632160305204916 0.0 0.0 0.0 17.632160305204916" Properties=species:S:1:pos:R:3:forces:R:3 energy=-1803799.125 stress="0.0005609687650576234 4.016551247332245e-05 3.351273880980443e-05 4.016551247332245e-05 -0.0002700795594137162 5.825924927194137e-05 3.351273880980443e-05 5.825924927194137e-05 0.0001266160688828677" pbc="T T T"
Yb      18.21789103      18.31809316       1.18166879       0.00612945      -0.00962491      -0.00629371
P        3.08802142      15.78815864       7.52266966      -0.00771707      -0.01940763       0.00261394
O        2.01816486      15.74111031       6.28858174      -0.01110297       0.00442924      -0.00189269
O        2.18646484      16.32476721       8.76196833      -0.00698525       0.00264263      -0.00090754
O        3.55293268      14.41596775       7.82310488      -0.01767921       0.00460362      -0.00490177
O        4.01909228      16.91680243       7.17810066      -0.00353134      -0.00158083      -0.00252679
H        1.73264021      14.82839769       6.16497029      -0.01613179       0.00059167       0.00099610
H        1.86888053      15.56162537       9.25720769      -0.00916961      -0.00281063       0.00109196
P        8.85651417      16.65211707      11.85071054      -0.00052217       0.00554165       0.00220166
O       10.48082621      16.72979153      11.95807807      -0.00092173       0.00505504       0.00786749
O        8.50843758      17.84910204      10.80447042       0.00327906       0.00307822      -0.00204509
O        8.51502416      15.34467290      11.21206013      -0.00055903       0.00480151       0.00696707
O        8.32453359      17.08766710      13.17036771      -0.00370365       0.01143575       0.00057316
H       10.84334243      16.04512565      11.38524819       0.00070283       0.00360265       0.01065293
H        8.33439673      17.48846493       9.92746340       0.00529164       0.00025246      -0.00128573
P        6.21909371      15.00412487       1.09216398       0.01882143      -0.00785372       0.00158486
O        5.46422440      14.74532833      -0.31434789       0.01777428      -0.03203037       0.00692177
O        7.66568428      15.57728352       0.68155692       0.00716090       0.01131284      -0.01356456
O        5.48016547      16.10177537       1.82786653       0.00057245      -0.00982273      -0.00529432
O        6.40833144      13.67313617       1.71677593       0.04297864       0.00492382       0.01779437
H        5.48346814      15.52078292      -0.89050433       0.01435358      -0.04491228      -0.01165485
H        7.66638386      16.53806716       0.63931176      -0.00855230       0.01111770      -0.00452449
Cl       9.72853561       8.33603746       9.94750091      -0.00005706       0.00653340      -0.01022708
Cl      11.16020531      10.50569305      11.25839449       0.00216261      -0.00359154       0.00420540
Cl       8.96005806       9.17798796      12.63144898      -0.00577283      -0.00385799      -0.00882298
C       10.28762269       8.98074217      11.50213150      -0.00291166      -0.00239229      -0.00565505
H       10.98595653       8.26436238      11.91895925      -0.00608107      -0.00615767      -0.00670746
Cl       0.65990303       3.56912042      17.49508581      -0.00057998      -0.00677939      -0.00244821
Cl       3.05054180       1.93059357      17.73520766       0.00255366      -0.00274394      -0.00580119
Cl       3.27287224       4.66347541      16.77122864      -0.00211450       0.00047416       0.00246029
C        2.40862507       3.60621373      17.84078841      -0.00084159      -0.00444490      -0.00153296
H        2.51351483       3.92188429      18.87477297      -0.00236819      -0.00730834      -0.00006443
Cl       5.32045358      11.79773660       3.54869174       0.00198279      -0.00498307       0.00313538
Cl       4.28872652      12.38118523       6.19392846      -0.00599658      -0.00494045       0.00033993
Cl       3.66632051       9.80200905       4.91896253       0.00585479      -0.00919048       0.00146559
C        4.88002496      11.14509409       5.11235740       0.00048958      -0.00456476       0.00332300
H        5.74997354      10.67367392       5.55139042       0.00109127      -0.00119483       0.00590858
Cl       8.93676195      11.59374097      15.25708096      -0.00373141      -0.00520793      -0.00907466
Cl       7.09416292      11.68538319      17.49682720      -0.00600034      -0.00843865      -0.01046920
Cl       7.29685078       9.25272861      15.86363951      -0.00259486      -0.00672811      -0.01220089
C        8.14368673      10.66487449      16.54753043      -0.00444953      -0.00647317      -0.01037902
H        8.92382644      10.28250482      17.19324142      -0.00504091      -0.00626929      -0.00955832
Cl       1.08137481       3.73807198      13.61659999       0.00470801      -0.00608510       0.00358446
Cl       0.82425442       6.09715572      11.92100048       0.00409023      -0.00688704       0.00237831
Cl       0.05528600       6.22913738      14.73160597      -0.00385812      -0.00800207       0.00030154
C        1.16006420       5.50237009      13.56374101       0.00099191      -0.00589626       0.00334625
H        2.16969006       5.80871405      13.81280941      -0.00034636      -0.00355747       0.00609114
Cl      13.90392992      15.95888990       2.17976368       0.00289770       0.01134633       0.00058250
Cl      15.46945730      18.42995502       2.47334143       0.01031496       0.00982586      -0.00262970
Cl      13.24067266      18.28724663       0.56351279       0.01059008       0.01008998      -0.00235769
C       13.83939160      17.69812073       2.10606398       0.00904664       0.01133764      -0.00079920
H       13.20560607      18.07254637       2.90402641       0.00955455       0.01381899      -0.00135678
Cl       2.02172878      16.79990480       3.14845472       0.01191297      -0.00666302      -0.01034892
Cl       2.47584697      14.02845337       2.35638815       0.00242086      -0.00857216      -0.00958019
Cl       2.27438010      16.13530563       0.32116230       0.01002937      -0.00800465      -0.00975859
C        2.86752778      15.67833590       2.01650973       0.00811869      -0.00954342      -0.00996932
H        4.01532749      15.88892262       2.00072727       0.00972295      -0.01328957      -0.00888605
Cl      12.29546257       6.15227863       9.18609449       0.00330064       0.01025450       0.00061980
Cl      13.15600306       4.16339672       7.25263881       0.00085371       0.00592472       0.00399631
Cl      15.07383009       5.23125104       9.18301820       0.00170760       0.00481300       0.00384333
C       13.36713839       4.78399458       8.88408363       0.00098186       0.00776734       0.00334787
H       13.12912941       3.99559746       9.58954000      -0.00096201       0.00919086       0.00427948
Cl       5.08035523      -1.44512278      14.25351934       0.00073048      -0.00885874       0.01529281
Cl       4.71791445       1.38875082      13.71859831      -0.00108463      -0.01039502       0.00508255
Cl       6.27554236       0.54457377      16.02468270      -0.00326392      -0.00106969       0.00974751
C        5.84149853       0.15550251      14.33743921      -0.00048518      -0.00679932       0.01108353
H        6.77505293       0.09879193      13.74555155      -0.00054133      -0.00806268       0.01088935
Cl       4.08360829       8.26247464       0.06713255      -0.00490615       0.00262400      -0.00013831
Cl       2.24728583      10.04377790       1.45409359      -0.00285318       0.00192970       0.00398257
Cl       1.70823283       7.17953483       1.39750390      -0.00295368       0.00190036       0.00278857
C        2.96740740       8.43424502       1.42826026      -0.00289765       0.00187358       0.00173043
H        3.53214885       8.30862718       2.34461630      -0.00136440       0.00125965       0.00075719
Cl       5.54581673       5.51400913       2.46385964       0.01046188       0.01329519       0.00437905
Cl       3.58783114       6.10321585       4.53008558       0.00014718      -0.00572332      -0.00031049
Cl       5.76609409       4.23379254       5.07888385       0.00058572      -0.00615451      -0.00438059
C        5.28298985       5.69465494       4.20712766       0.00233608      -0.00025807       0.00429712
H        5.90095382       6.51376551       4.55722037      -0.00064628      -0.00193992       0.01350223
Cl      17.23489108      12.05888894       0.65120249       0.00082003       0.01487680      -0.00399448
Cl      14.46812375      12.93033314       0.86777687       0.00093214       0.01428154      -0.00529552
Cl      16.55047603      14.82656105       0.00964596       0.00044765       0.01370762      -0.00981949
C       15.98947247      13.11647860       0.00839644       0.00039688       0.01275280      -0.00567098
H       15.82592441      12.86249669      -1.03215902       0.00043692       0.01131908      -0.00537717
Cl       5.17120967       7.94185138      12.06086057      -0.00248438      -0.01873936       0.00177130
Cl       3.15419570       8.38720923      14.11846425       0.00005368      -0.00442947       0.00112963
Cl       3.62556915      10.41472346      12.07670760       0.01588245      -0.00779933       0.00117823
C        3.61485095       8.69199156      12.42580154       0.00281424      -0.00754032       0.00129526
H        2.86646456       8.22475141      11.79931767      -0.00046000      -0.00207429       0.00112385
Cl       7.51684714      17.86505039       7.38107179       0.00545287       0.01279584      -0.00385594
Cl       7.91723284      16.08544111       5.10817173      -0.00610304       0.00632393      -0.00335288
Cl       9.97472408      18.02405251       5.79913722       0.00378975       0.00351924      -0.01090378
C        8.69061728      16.95833458       6.42435978       0.00146534       0.00974584      -0.00653391
H        9.16331043      16.23530638       7.07850807      -0.00019819       0.00494647      -0.00879055
Cl      16.87167093       8.63414665       9.63227904       0.00578859       0.00460671      -0.00013584
Cl      16.50220733       9.23524457      12.46080259       0.01622254       0.00470281       0.00111884
Cl      14.18901958       9.08394841      10.70229101       0.00963932       0.00416796       0.00937279
C       15.80194829       8.45396677      11.04122664       0.01100152       0.00456639       0.00378292
H       15.71384798       7.39401309      11.24747514       0.01199193       0.00455198       0.00412314
Cl       7.98785752       8.76598360       6.48188198      -0.00748521      -0.00682732       0.00316241
Cl      10.71320807       7.80605781       6.07850259      -0.00677732      -0.00147073      -0.00491776
Cl       8.65190506       7.19500437       4.10576044      -0.00538725       0.01964012      -0.01311947
C        9.23945837       8.38256786       5.29352381      -0.00648014       0.00649972      -0.00014393
H        9.47298285       9.28908784       4.74760685      -0.00631613       0.01239577       0.01010722
Cl       1.89466294       3.67002870       6.55462787      -0.00551429      -0.00430489      -0.00041577
Cl       3.07277145       1.08828606       6.11444183      -0.00493947      -0.00356327      -0.00149180
Cl       0.83961427       2.39747870       3.19413431       0.00574986      -0.01102334      -0.00365040
C        2.70912456       2.58295749       5.59386034      -0.00349204      -0.00342967       0.00016791
H        3.08469555       2.96840244       4.65473117      -0.00119671      -0.00199738       0.00127971
Cl      13.68829048       0.59330924      13.46885703      -0.00464710       0.00189107      -0.00124225
Cl      12.33862488       1.80204944      11.19104504      -0.00027266       0.00452457      -0.00261705
Cl      14.80968486       2.98093098      12.20501262       0.00049556       0.00042695       0.00052614
C       13.89453155       1.48468517      11.95030024      -0.00150508       0.00183823      -0.00062870
H       14.47546835       0.85831903      11.28450031      -0.00176291       0.00129431      -0.00039183
Cl       9.45505419      10.71467925       2.34703948      -0.01644399      -0.00228313       0.00792830
Cl       8.95704048      12.46732454       4.60911125      -0.00970535       0.01453938       0.00053352
Cl      10.37482096      13.47759692       2.25678378      -0.00171316      -0.00579715      -0.00127436
C        9.10509021      12.40030866       2.84579501      -0.00746234       0.00190967       0.00128146
H        8.15595247      12.71230147       2.40337874      -0.00662696       0.00398090      -0.00164333
Cl       6.43350479       4.72559173      14.05941956       0.00272727      -0.00062364      -0.00238347
Cl       7.96989757       5.81588429      11.82620029      -0.00055158      -0.00164315      -0.00583576
Cl       7.64034510       2.93238816      12.07755049      -0.00118852      -0.00138897      -0.00330262
C        6.90305850       4.50200161      12.35601054      -0.00015384      -0.00103188      -0.00323225
H        5.99491651       4.57489980      11.76845458      -0.00116816      -0.00066403      -0.00160380
Cl      13.38003866      13.05423846      14.80630459      -0.00695577       0.00152285       0.00104189
Cl      11.87766732      15.50926474      15.35483064      -0.00588504       0.00286102      -0.00207871
Cl      10.87890869      13.60863696      13.39388088      -0.00509641       0.00239372      -0.00239319
C       11.75541334      13.81043487      14.90084035      -0.00659241       0.00273240      -0.00144435
H       11.22053758      13.28522325      15.68288017      -0.00787932       0.00342754      -0.00185493
Cl      15.63189749      12.71239864      11.18581889       0.00071836       0.00392855       0.01396371
Cl      14.02336538      15.09624804      11.67895455      -0.00637097       0.00183961       0.00039599
Cl      13.10139449      13.07698875       9.77581928       0.00651174      -0.00491413       0.00114447
C       13.99818600      13.37301655      11.27505803      -0.00106325       0.00084783       0.00455304
H       13.47027111      12.86503497      12.07310828      -0.00362447       0.00174376       0.00336754
Cl      15.54541526       8.01642916       1.02763041      -0.00530430       0.00871959      -0.00079632
Cl      13.31007985       6.92265079       2.55609104       0.00349987      -0.00293048       0.00388722
Cl      15.62907239       5.24982877       1.94409632       0.01053745       0.00889063      -0.00152747
C       15.05903041       6.89755934       2.30439840       0.00316839       0.00618731       0.00000048
H       15.53365011       7.20651630       3.22829590       0.00396726       0.00818691      -0.00106567
Cl      12.12596547       4.07478485      15.00119546       0.00024059       0.00096014      -0.00210917
Cl      10.45192339       6.47012862      15.00709591       0.00193424       0.00216281      -0.00293669
Cl      11.73677322       5.58825637      12.53743773      -0.00148380      -0.00123337      -0.00333455
C       11.00110472       5.07505877      14.07263208      -0.00002321       0.00069290      -0.00193638
H       10.13713148       4.47096288      13.82468942      -0.00086710       0.00092041      -0.00034145
Cl      15.56650067       9.96903322      15.81826477      -0.00354128       0.01056661       0.00108421
Cl      14.22877533       7.48044002      15.06389848       0.00330623       0.00826460      -0.00386292
Cl      12.74675130       9.56578147      16.45658386      -0.00269748       0.00191275      -0.00065106
C       14.03579870       9.21564788      15.30060917      -0.00142097       0.00744725      -0.00077760
H       13.77070140       9.66010330      14.34880891      -0.00225863       0.00835600      -0.00018710
Cl      17.44247549       0.19937587       6.87121397      -0.00647351       0.00197762       0.01021267
Cl      15.48676613       2.01140155       5.70494923      -0.00117284       0.00312676       0.00388801
Cl      15.20505500       1.16208039       8.48938245      -0.01296970      -0.00058529       0.00172907
C       16.34773929       1.53677481       7.17984263      -0.00769205       0.00143234       0.00711646
H       16.92800695       2.39346766       7.49754660      -0.00883593       0.00103971       0.01081109
Cl      17.81695253       8.23095704       6.00041142      -0.00116262       0.00259490      -0.00023016
Cl      14.94158343       7.76383413       6.14853603      -0.00140673       0.00497083       0.00394090
Cl      16.72823025       5.57429920       5.45165269      -0.00391500       0.00339864       0.00178628
C       16.54499525       7.06072066       6.39237079      -0.00138626       0.00389490       0.00176508
H       16.63671965       6.80981540       7.44147188      -0.00012299       0.00375736       0.00161621
Cl       3.48626623      11.69442480      15.88707016       0.00211707      -0.00743228      -0.00408691
Cl       3.12422698      13.52765018      13.64634362       0.00033437      -0.00690525      -0.00305465
Cl       0.84341648      12.03414437      14.67858749       0.00166374      -0.01060459      -0.00446662
C        2.39700085      12.81257817      15.09138628       0.00046490      -0.00871391      -0.00390462
H        2.17497677      13.61548820      15.78426454      -0.00101935      -0.00936261      -0.00348520
Cl       5.57053962      13.13913112      10.18897782      -0.00261414       0.00529251       0.00239220
Cl       7.99284800      11.57825140       9.76162750       0.00226134       0.01239729       0.00175389
Cl       7.38998489      13.83193562       8.01447777      -0.00674776       0.00963959       0.00073612
C        7.25432437      13.19963699       9.67217242      -0.00311071       0.01007776       0.00112987
H        7.79319716      13.88518132      10.32949056      -0.00425124       0.01174408       0.00065130
Cl      -0.55102345       0.73488702      15.90840381       0.00579718      -0.00688544      -0.00423490
Cl      -0.09708321       0.55372837      13.03123906      -0.00317331      -0.00780562      -0.00524704
Cl       1.23151172      -1.31865316      14.77910398       0.01216269      -0.00053628      -0.00887607
C       -0.21120213      -0.38329705      14.49851234       0.00626814      -0.00644562      -0.00260177
H       -1.08227789      -1.02850688      14.45610070       0.00943527      -0.01104423       0.00195357
Cl       5.26310193       2.72419900       8.72905941      -0.00280438       0.00006697      -0.00376505
Cl       3.58299435       4.15489996      10.63842163       0.00112253      -0.00528264       0.00361191
Cl       3.03369607       1.35409549      10.01926304       0.00017858      -0.00360751      -0.00212079
C        4.27976939       2.56934822      10.20379129       0.00034475      -0.00376183      -0.00192356
H        4.94550248       2.27008435      11.00481332       0.00250363      -0.00580795      -0.00418347
Cl      11.48796198      14.50517331       6.69681858      -0.00390154      -0.00404221      -0.00043792
Cl      13.54262827      16.47873310       6.04463022      -0.00526614      -0.00310895       0.00155061
Cl      12.10873186      16.63797102       8.58974346      -0.01005113      -0.00108230      -0.00189593
C       12.74770184      15.56381587       7.33871097      -0.00614844      -0.00203731       0.00047190
H       13.50522343      14.94003022       7.79628446      -0.00653875      -0.00037725       0.00307071
Cl      -0.61541000      14.29615686       8.06568850      -0.00476316      -0.00477722       0.00851195
Cl       0.51795551      12.10335083       6.51510158      -0.00829005      -0.01033679       0.01406363
Cl       1.04785237      12.28097473       9.37555645       0.00063244       0.00165452       0.01178509
C       -0.12228239      12.59449389       8.09317992      -0.00326762      -0.00452488       0.01415799
H       -1.00602917      12.00053123       8.29392489      -0.00255379      -0.00437309       0.01958065
Cl      15.67891424      10.63941679       3.66177461      -0.01035400       0.00293399      -0.00379410
Cl      14.69252955      12.94094892       5.16509290       0.00204780       0.00749764      -0.00720690
Cl      13.09083605      10.51034221       4.99866386      -0.00428012       0.01084394       0.00823736
C       14.73149827      11.17446868       5.05133773      -0.00347973       0.00812093      -0.00220684
H       15.21504229      10.79034129       5.94185979      -0.00134963       0.00904465      -0.00282708
Cl       4.90801323       9.51039774       8.52503803       0.02339494      -0.01361939       0.00228536
Cl       5.15764054       6.63866117       8.04707926      -0.00371403      -0.01600504       0.00235297
Cl       2.64981252       7.73517524       9.06496637       0.00563133       0.00814454      -0.00087914
C        4.07652965       8.03942927       8.04289110       0.00984503      -0.00579171       0.00131133
H        3.71083990       8.17489543       7.03248167       0.01229520      -0.00203132       0.00089827
