195
Lattice="12.502839679243289 0.0 0.0 0.0 12.502839679243289 0.0 0.0 0.0 12.502839679243289" Properties=species:S:1:pos:R:3:forces:R:3 energy=-172703.578125 stress="-0.005922017619013786 -0.00016855828289408237 -0.00011935395741602406 -0.00016855828289408237 -0.004864993039518595 -0.0001658598121139221 -0.00011935395741602406 -0.0001658598121139221 -0.0023740706965327263" pbc="T T T"
N        7.61776381       8.18453025       4.79492667       0.00607359       0.00967112      -0.00091585
N        6.42647807       9.98220538       4.71779774       0.00418705       0.00749856      -0.00143519
C        8.80727374       7.32851481       4.81085147       0.00676063       0.01093885      -0.00238729
C        9.47062547       7.21712165       3.44860130       0.00201999       0.00758898      -0.00378159
C        9.86068783       8.55686049       2.83379884       0.00358864       0.00531870      -0.00642201
C        7.66177785       9.51332977       4.88664073       0.00425500       0.00935107      -0.00252795
C        6.32260539       7.79409231       4.56624094       0.00643134       0.00777435       0.00115337
C        5.56702275       8.92410598       4.51604099       0.00530678       0.00661802       0.00085661
C       10.57997358       8.40858829       1.50219140       0.00132361       0.00133687      -0.00669658
C        6.08486634      11.39220198       4.69396521       0.00127320       0.00664598      -0.00153068
H        9.48743418       7.78691370       5.52250768       0.00881544       0.01444246      -0.00680685
H        8.49551725       6.36092377       5.19855681       0.00921553       0.01218233       0.00155906
H        8.82626938       6.64719713       2.77187815      -0.00122100       0.00840855      -0.00119333
H       10.36253752       6.60114747       3.58849929       0.00089049       0.00604692      -0.00503179
H        8.97383993       9.18220107       2.68581235       0.00551260       0.00763659      -0.00610160
H       10.49258369       9.11161560       3.53405766       0.00591445       0.00519790      -0.00841489
H        8.54941749      10.09576124       5.10074628       0.00395015       0.01018531      -0.00447931
H        6.05645285       6.75556740       4.52153654       0.00784958       0.00763973       0.00270779
H        4.51031094       9.06662720       4.37742367       0.00505085       0.00515028       0.00173095
H        9.95561959       7.90099677       0.76336749      -0.00072148       0.00178985      -0.00492479
H       11.47552326       7.79883898       1.62156550      -0.00017710      -0.00064059      -0.00714203
H       10.86595360       9.39167054       1.12505162       0.00367622      -0.00029340      -0.00840840
H        7.00348527      11.95882586       4.82197307       0.00060308       0.00801049      -0.00312258
H        5.62501995      11.64281191       3.73954584      -0.00083800       0.00561068      -0.00039440
H        5.38938226      11.62295420       5.49870005       0.00246947       0.00540451      -0.00058889
N        5.32719248       2.97052731       3.21369427       0.00815806       0.00004983      -0.01091673
N        4.03743303       4.68734585       3.47053640       0.00580135      -0.00166953      -0.01407818
C        6.29289295       1.90167836       3.49759780       0.00826015       0.00102067      -0.00910184
C        7.74252860       2.34416853       3.46610865       0.00823355       0.00040623      -0.00781789
C        8.11894449       3.30729389       4.58451594       0.00821796      -0.00542967      -0.00328457
C        4.94408631       3.91480118       4.07339250       0.00734827       0.00126193      -0.01304901
C        4.65245300       3.14322558       2.03163246       0.00695756      -0.00403979      -0.01058304
C        3.83720041       4.22120545       2.18994512       0.00573650      -0.00484202      -0.01260746
C        9.61064894       3.59607663       4.58467832       0.00763154      -0.00507534       0.00054999
C        3.31590810       5.78452224       4.09586099       0.00707185       0.00048417      -0.01723087
H        6.02521933       1.51417033       4.48480546       0.00757036       0.00214336      -0.00921816
H        6.09307353       1.12889463       2.76041462       0.00870090       0.00041461      -0.00803983
H        7.97958490       2.77441377       2.49087418       0.00789621       0.00581869      -0.00522423
H        8.35380597       1.43886942       3.52224893       0.00780961      -0.00015011      -0.01206377
H        7.57262083       4.25025646       4.46043509       0.00835003      -0.00504607       0.00117621
H        7.81220805       2.89192138       5.55384806       0.00705909      -0.01042585      -0.00601545
H        5.30458285       4.05026378       5.07983733       0.00752272       0.00426389      -0.01379697
H        4.80982458       2.48084833       1.19588053       0.00695830      -0.00538822      -0.00907138
H        3.13505937       4.68861304       1.51971713       0.00522511      -0.00697008      -0.01299531
H        9.91261553       4.02761971       3.63241252       0.00944109      -0.00101262       0.00318027
H       10.18846681       2.67973224       4.71437690       0.00758506      -0.00510648      -0.00117727
H        9.88953519       4.29978288       5.37373187       0.00503445      -0.00801803       0.00372109
H        3.64994366       5.89355665       5.12607216       0.00197954      -0.00186110      -0.01555049
H        3.49319979       6.70237073       3.54201834       0.01357655       0.00014371      -0.01523603
H        2.24779450       5.58393326       4.07693141       0.00652918       0.00491190      -0.02229059
S       10.56381321       0.10482820       1.26266709       0.02137595      -0.02218672      -0.00180152
O        9.28163688      -0.24605783       1.92774437       0.03211260      -0.03490400       0.01352668
O       10.37480480       0.06610650      -0.22123705       0.01140904      -0.03925116      -0.00026226
O       10.97249501       1.46018468       1.67878476       0.01906812      -0.01884413      -0.01119137
O       11.60004824      -0.88681623       1.63567892       0.03236461      -0.01304007      -0.00810516
O        9.21888125       9.87427785       8.01920493       0.00362032      -0.01377280       0.00822183
O       11.02837821      11.15705862       8.14386393       0.00268384      -0.01183984       0.01695548
O       10.20870954      10.56748410       6.12370781       0.01271488      -0.01321194       0.00752449
C        9.33547716      10.24155860       9.41180844      -0.00432110      -0.01115856       0.00733688
C       10.76596682      10.71448375       9.49604531      -0.00588068      -0.00965594       0.01580885
C       10.15373576      10.55653293       7.31546601       0.00686688      -0.01311540       0.01948082
H        9.13484655       9.36339161      10.02006721      -0.00767269      -0.01056749       0.00777620
H        8.62042251      11.03398824       9.62914729      -0.00707528      -0.01255459       0.00191059
H       10.91071686      11.53060514      10.20261946      -0.01156488      -0.00811017       0.01560491
H       11.44689371       9.89092207       9.71887231      -0.00583851      -0.00727260       0.02260994
O        6.19784910      12.08739684       0.98869265       0.00244810       0.01567796      -0.00952908
O        7.06789008      11.74755655      -1.02536447      -0.00774646       0.00577709      -0.01151717
O        5.68597426      13.49089678      -0.69233955      -0.01380670       0.00054884      -0.01551384
C        6.89249751      10.83296861       1.10489644       0.00208139       0.01563019      -0.00677222
C        7.71691803      10.77257674      -0.17005465      -0.00243419       0.01137589      -0.00854540
C        6.26932841      12.52725256      -0.27682347      -0.00696707       0.00690383      -0.01270890
H        6.14025143      10.04366902       1.17082280       0.00173262       0.01688057      -0.00229377
H        7.53303434      10.88337158       1.98088472       0.00527951       0.01822886      -0.00948647
H        8.74071782      11.10462994      -0.01096235      -0.00239557       0.01462007      -0.01409352
H        7.66105116       9.81060051      -0.66710549      -0.00214212       0.00934979      -0.00400662
O        1.84813590      10.40041018       7.97096167       0.01504385       0.02650312       0.01891226
O        1.52946723       9.11714109       9.75189145      -0.02893603       0.02126175       0.00655247
O        2.02193283       8.17872889       7.76875128      -0.01608530       0.02402174       0.00818759
C        1.58555921      11.33922186       9.02885797       0.00267661       0.02192187       0.01972825
C        1.51280184      10.46438901      10.27971834      -0.00322117       0.01781582       0.01522493
C        1.82312849       9.14976543       8.44587752      -0.01098624       0.02541536       0.01203957
H        0.65998261      11.85360472       8.78712261       0.00172365       0.01743443       0.01467241
H        2.41235256      12.04294996       9.06015873      -0.00203910       0.02623215       0.02842246
H        2.38229364      10.58127040      10.92051079       0.00327682       0.00024560       0.00944996
H        0.60023906      10.59633549      10.85386777       0.00290129       0.03016003       0.02146606
O       13.24680153       6.32776785       5.93491647       0.02272956       0.00375668       0.00993933
O       11.97889979       8.13992059       5.73519334       0.01142652      -0.00491355       0.00777747
O       13.59456756       7.74471116       4.22548974       0.03113988       0.01780240       0.02563995
C       12.25249418       6.19937453       6.96448979       0.01160952      -0.01063097      -0.00298838
C       11.63193436       7.58687729       7.01776329       0.00325307      -0.01503086       0.00094008
C       12.99383724       7.42534574       5.21389057       0.02383968       0.00715156       0.01367354
H       12.73784269       5.91090685       7.88974969       0.00209881      -0.01478184       0.00021875
H       11.54294440       5.43212446       6.64845758       0.02010724      -0.01200509      -0.01714340
H       10.55021572       7.58125458       7.12165737       0.00288773      -0.02185533      -0.00881267
H       12.07200480       8.21145603       7.79229748      -0.00697896      -0.01819658       0.00865263
O       13.03922832       3.93742086       1.65635631       0.00848615       0.01792273       0.00653505
O       11.18879849       5.15582559       1.65033204       0.00019526       0.00409523       0.00329274
O       12.36375123       4.93991452       3.55120683       0.00559114       0.02341953       0.00124848
C       12.43780336       3.71317367       0.35384997       0.00760034       0.00638860       0.00887780
C       11.45535499       4.86195278       0.25482033       0.00048673      -0.00055075       0.00457129
C       12.20484265       4.69017163       2.38223993       0.00529340       0.01608865       0.00437766
H       11.95361483       2.73581818       0.39010841       0.01433754       0.00325155       0.01520953
H       13.22965556       3.76961054      -0.38525983       0.00587761       0.00737238       0.00759163
H       11.88976424       5.75258559      -0.19835944      -0.00604323       0.00013703       0.00011849
H       10.51515922       4.59391166      -0.20961964       0.00196689      -0.00759670       0.00675306
O        6.27000792      -0.19869161       8.08068128      -0.00549811      -0.00955302       0.00415961
O        7.02847390       1.88987511       8.14068396      -0.00058100      -0.01165397       0.01118530
O        8.42536352       0.22707788       7.58567025      -0.00121927      -0.01423767       0.00059240
C        5.10751694       0.59724304       8.39707646      -0.00174922      -0.00970550       0.01595985
C        5.67601273       1.99254097       8.63737197      -0.00072598      -0.00914693       0.00916365
C        7.33849606       0.60718328       7.91092887      -0.01000166      -0.00903870       0.00736585
H        4.64602187       0.17836916       9.28607149       0.00830710      -0.00843288       0.02205893
H        4.42262060       0.54681442       7.54693479      -0.01150942      -0.01163190       0.02414966
H        5.17656439       2.77674534       8.07316486      -0.00007834      -0.01135296       0.00537945
H        5.71388608       2.24782469       9.69427184      -0.00196863      -0.00421225       0.00765902
O        2.97679534      12.21256978       4.56362945      -0.01554362      -0.01388337       0.01562575
O        1.95299364      11.38629258       2.77272230      -0.00473851       0.01221898      -0.00194532
O        3.65553192      12.83289507       2.51160667       0.01025170      -0.01182139       0.03400207
C        2.08620350      11.18843890       5.06700893      -0.03097369      -0.01014042      -0.00346416
C        1.14896894      10.94779557       3.90210891      -0.02257305       0.01513284      -0.01375523
C        2.91203709      12.19871815       3.20613714       0.00718656       0.00266400       0.00929502
H        1.59381737      11.55951139       5.95510771      -0.03335766      -0.01573491      -0.00317305
H        2.68472600      10.31214032       5.32940838      -0.04254386      -0.01934507      -0.01006210
H        0.91172474       9.89716510       3.77499172      -0.03786207       0.02079737      -0.02360383
H        0.24165728      11.54430463       3.92073646      -0.01240247       0.02924913      -0.02059766
O        0.69696172       1.74306517       4.26729582      -0.00820263       0.01428834       0.01119874
O        1.35200712       1.73001304       6.39669489       0.00403088       0.00400500       0.00839719
O       -0.40656117       0.48583782       5.76644680      -0.00625712       0.01157010       0.01263127
C        1.83793795       2.61425494       4.29220984      -0.00271472       0.00641920       0.00749069
C        2.16870592       2.73200680       5.78121389       0.00256446       0.00342032       0.00569695
C        0.45970936       1.25825836       5.48472009      -0.00091124       0.01247245       0.00908510
H        1.52503613       3.55236749       3.85199286       0.00246808       0.00861156       0.00877002
H        2.63108946       2.15402443       3.70810772      -0.00748092       0.00202033       0.00479561
H        3.21083112       2.50401830       6.00230563       0.00309250       0.00183341       0.00195765
H        1.89660666       3.70393447       6.19678766       0.00600445       0.00304195       0.00828859
O        8.06354595       6.28802498       0.08376993      -0.00057608       0.00359854      -0.01199141
O        6.78991962       5.16266432       1.51834215       0.00057742       0.00764862      -0.00297252
O        8.41073151       4.08319792       0.38483751      -0.00215328       0.00172234      -0.00775319
C        7.13646645       7.26016980       0.60647221       0.00472985       0.00361049      -0.01138176
C        6.08828643       6.39709685       1.28717409       0.00637805       0.00775873      -0.00148070
C        7.81167199       5.08303218       0.63586005      -0.01031128       0.01876575      -0.00365728
H        6.73443786       7.82666691      -0.22609887      -0.00081761       0.00268705      -0.00876763
H        7.67516580       7.90401084       1.30267000       0.00575361       0.00793967      -0.01641485
H        5.75183693       6.79228738       2.24015665       0.01346096       0.01291692      -0.00149348
H        5.23665805       6.19443553       0.64464312       0.00064248       0.01248872       0.00516650
O       10.83615970       3.26369598      10.16103291      -0.00832270      -0.01031303       0.01591164
O       12.30912006       3.10105583       8.50766930      -0.01760879      -0.00972182       0.00838129
O       12.35998800       4.88579464       9.86854585      -0.01717594      -0.00602829       0.00145632
C       10.63262719       1.93615053       9.61245418      -0.00506997      -0.01342717       0.02283150
C       11.36745208       2.01511624       8.28681422      -0.01303531      -0.01531917       0.01853997
C       11.87768712       3.83364508       9.54229220      -0.01418751      -0.00740993       0.00845635
H        9.56564937       1.76964009       9.49457025      -0.00469550      -0.01863803       0.03001940
H       11.03133816       1.22524891      10.33632712       0.00148003      -0.00863653       0.02364793
H       11.91820638       1.12570713       8.01173186      -0.00968614      -0.01286140       0.01879591
H       10.72170173       2.29185020       7.45171992      -0.01902062      -0.02274711       0.02128002
O        4.32167294       4.51541007      10.67381363      -0.01526645      -0.01066796      -0.01544484
O        3.96155217       6.41161145       9.57206850      -0.01311198       0.00085463       0.00484060
O        5.82632714       6.17145763      10.78425904      -0.01781648      -0.01278168       0.00505945
C        3.05156436       4.31019877      10.02817646      -0.01706949      -0.00142717      -0.01344249
C        2.74730876       5.65515405       9.36897502      -0.01015985       0.00160560      -0.01082054
C        4.78437255       5.73515074      10.37902091      -0.01255709      -0.00671291       0.00043255
H        2.32553196       4.04860595      10.78970076      -0.01739600       0.00231897      -0.01292610
H        3.16077403       3.49402575       9.31378757      -0.02386773      -0.00082386      -0.01448175
H        2.56862640       5.59139055       8.29911296       0.00134656       0.00617423      -0.01263729
H        1.93671514       6.18335356       9.85637315      -0.01514256      -0.00079030      -0.01700667
O        8.33727280       6.09232168       7.76255891      -0.00000708      -0.01363051      -0.01476032
O        6.92081650       4.60752620       8.60074364      -0.00400281      -0.00354855      -0.00512139
O        6.32438690       5.78834561       6.79327410       0.00132972      -0.01723181      -0.01537105
C        9.10797150       5.34394418       8.73430476      -0.00320071      -0.00534014      -0.00649789
C        8.04264375       4.59838382       9.51841893      -0.00518874       0.00027403      -0.00410306
C        7.12279203       5.51289110       7.65003878      -0.00044167      -0.01231472      -0.01171938
H        9.68737268       6.03664303       9.33911533      -0.00589338      -0.00030077      -0.01026954
H        9.77170810       4.68014134       8.17885909      -0.00066160      -0.00869361       0.00081848
H        8.29157826       3.56628193       9.73494503      -0.00643332       0.00153658       0.00184261
H        7.73640254       5.11598785      10.42054992      -0.00592440       0.00525564      -0.00739568
O        1.23474205       8.04342548       0.19416941       0.00753013       0.00871378      -0.00572990
O        3.14095438       7.58990325       1.23539017       0.00349402       0.01030901       0.00112507
O        2.23758276       6.05670635      -0.12549078       0.01623771       0.01462996      -0.01109418
C        1.45053628       9.19494827       1.04556334      -0.00143272       0.00386900       0.00229985
C        2.82074719       8.93245858       1.66255731      -0.00210741       0.00781280       0.00410873
C        2.19850161       7.14445600       0.38538322       0.00981800       0.01102376      -0.00602344
H        0.64561432       9.22731085       1.77104783      -0.00350475      -0.00537393      -0.00016266
H        1.41446911      10.09493790       0.44439368      -0.00650181       0.00819990       0.00958216
H        3.59225226       9.60141510       1.28923567      -0.00397709       0.01139653       0.00758362
H        2.78358628       8.92830728       2.74860066      -0.00456152       0.00479403       0.00376701
O        6.00473380       9.06245266      10.36014885       0.01695718      -0.00516556      -0.01708123
O        4.33663020      10.06568377       9.30536637      -0.00632873      -0.02271955       0.00489645
O        4.45091647      10.15570854      11.55123414       0.01818691      -0.02461666       0.00279266
C        6.29760976       8.87558141       8.96275009      -0.00398022      -0.01376151      -0.01985028
C        5.02243894       9.32588214       8.26806074      -0.01089817      -0.01024610      -0.00558746
C        4.89709801       9.78981968      10.49918542       0.01070023      -0.01859206      -0.00351864
H        6.52900041       7.82679019       8.81570705      -0.01365982      -0.01595911      -0.01760658
H        7.14040485       9.50361929       8.70318656      -0.00239033      -0.02243257      -0.03479347
H        5.21410043      10.00914649       7.44519631      -0.01951606      -0.00264627      -0.00082874
H        4.38562264       8.50227888       7.95881355      -0.01101133      -0.00862139      -0.00879436
