197
Lattice="11.989992086453393 0.0 0.0 0.0 11.989992086453393 0.0 0.0 0.0 11.989992086453393" Properties=species:S:1:pos:R:3:forces:R:3 energy=-158187.046875 stress="-0.0029216045513749123 0.0004705137835117057 -0.0002864845300791785 0.0004705137835117057 -0.004144124686717987 0.00016727478214306757 -0.0002864845300791785 0.00016727478214306757 -0.005416583269834518" pbc="T T T"
N        2.71043639       4.42545566       9.16999735      -0.00219724      -0.00350979      -0.00283238
N        1.42241443       5.87883865      10.12907129      -0.00317514      -0.00295594      -0.00226927
C        5.07460548       3.78336169       8.79957409      -0.00356564      -0.00331188      -0.00277954
C        5.71322575       4.52496734       9.96627539      -0.00486931      -0.00199500      -0.00335544
C        3.64555406       3.30411155       8.99478841      -0.00311752      -0.00387013      -0.00195923
C        7.20710740       4.71328641       9.70235156      -0.00477961      -0.00209585      -0.00081742
C        7.84656680       5.84824476      10.48265396      -0.00626373      -0.00275886       0.00104576
C        2.14761193       4.77327152      10.32620163      -0.00518546      -0.00609839      -0.00163245
C        2.33984708       5.33059079       8.20833345       0.00023946       0.00107503       0.00283849
C        9.31614366       6.03856642      10.13271566      -0.00565392      -0.00334493       0.00498579
C        1.52622561       6.24166293       8.80865221       0.00453200      -0.00378513      -0.00045693
C        0.77290097       6.67079725      11.15814597      -0.00448817      -0.00494218      -0.00238669
H        5.12183861       4.41732033       7.90843916      -0.00377454      -0.00429064      -0.00335507
H        5.68727129       2.90927713       8.57424104      -0.00305298      -0.00299057      -0.00182682
H        5.58060127       3.96980267      10.90201627      -0.00628719      -0.00076228      -0.00291687
H        5.23484546       5.50366223      10.10382945      -0.00514496      -0.00218847      -0.00519728
H        3.53718058       2.67242076       9.87582916      -0.00244204      -0.00385889      -0.00261194
H        3.29881188       2.72502414       8.13533724      -0.00342803      -0.00353576      -0.00227913
H        7.71952035       3.77271153       9.92078925      -0.00516967      -0.00191978      -0.00012258
H        7.35387797       4.88895999       8.62811472      -0.00273000      -0.00180005      -0.00035301
H        7.30540619       6.77856196      10.27852633      -0.00529182      -0.00253430       0.00008976
H        7.73876406       5.65847739      11.55261115      -0.00886933      -0.00318223       0.00034246
H        2.24619133       4.23346593      11.25123435      -0.00975029      -0.00854889      -0.00416758
H        2.71066753       5.29278988       7.19952416       0.00603084       0.00149332       0.00024567
H        1.02437879       7.10961481       8.41924628       0.00450691       0.00209747       0.00057341
H        9.46154616       6.10758350       9.05092022      -0.00328610       0.00108941       0.00565568
H        9.70281832       6.94701924      10.59360109      -0.00521206      -0.00611699       0.00964697
H        9.91425432       5.19397804      10.48424646      -0.00781484      -0.00568694       0.00235884
H       -0.24847091       6.89704176      10.86645875      -0.00102618       0.00234578      -0.00885768
H        0.74932967       6.09899885      12.07950750      -0.01442737      -0.00774710      -0.00510512
H        1.34007488       7.58959343      11.30916827      -0.00103438      -0.00833774       0.00459184
N        5.73135038       8.46694590       8.78018983       0.00371253      -0.00739648      -0.00527656
N        7.42813130       7.86329842       7.57748352       0.00061160      -0.00712556      -0.00266483
C        3.37859029       9.36333176       8.77925947       0.00636366      -0.00059462      -0.00071508
C        3.08528861       9.10672633       7.30889087       0.00259376      -0.00173613       0.00043258
C        4.40519059       8.43609788       9.40885923       0.00639474      -0.00107080      -0.00074339
C        1.89736311       9.92916813       6.82506751       0.00364700      -0.00021788       0.00241557
C        1.53787282       9.68580074       5.36211223       0.00067711      -0.00118685       0.00378591
C        6.15254088       7.59163049       7.86320733       0.00383770      -0.00359023      -0.00140184
C        6.76552943       9.32488857       9.07996055      -0.00886625       0.01166451       0.01752183
C        0.74229071      10.84309077       4.77837133      -0.00366747      -0.00398371       0.00512935
C        7.82653493       8.94761888       8.32284902       0.03119725      -0.00317240      -0.01152360
C        8.26790897       7.10002354       6.66456372       0.00415945      -0.00130343      -0.00319502
H        3.68182111      10.40134068       8.91532072       0.00904846      -0.00111425      -0.00216751
H        2.46912000       9.24482564       9.37698052       0.00766253       0.00215753       0.00164208
H        2.90537783       8.03877010       7.13808307       0.00028381      -0.00131541       0.00287132
H        3.96276078       9.37963810       6.71207726       0.00215319      -0.00452657      -0.00107458
H        4.06600658       7.40063058       9.34374795       0.00446666      -0.00200668      -0.00244915
H        4.55114694       8.67443077      10.46401067       0.00615221      -0.00341211      -0.00176036
H        1.02226454       9.72989496       7.45425679       0.00458834       0.00209719       0.00403960
H        2.14121990      10.98612996       6.95447956       0.00565369      -0.00055519       0.00062611
H        2.46504179       9.56089462       4.79523265      -0.00078595       0.00053198       0.00140579
H        0.99143553       8.73908289       5.26097841       0.00262074      -0.00244451       0.00535403
H        5.54401920       6.83408893       7.38885548       0.00544337      -0.00239598      -0.00114250
H        6.68455216      10.12405430       9.79197832       0.00740302      -0.01039612      -0.00751157
H        8.80535377       9.38219297       8.24402564      -0.00252938      -0.00748691       0.00009975
H        1.33988880      11.75020357       4.80479441      -0.00676546      -0.00170426       0.00327910
H        0.44430456      10.68462471       3.74260752      -0.00593258      -0.00601538       0.00619291
H       -0.16262187      11.04507868       5.35519797      -0.00259651      -0.00637442       0.00703800
H        8.31970708       6.05971451       6.97885351      -0.00278005      -0.00489575      -0.00965828
H        7.87703475       7.15398021       5.65108334       0.00541164       0.00609825      -0.00462455
H        9.26240313       7.53291093       6.69146390       0.00528710      -0.00768647       0.00084930
O        5.96693515       1.49054982       1.08036398      -0.00375330       0.01623654      -0.00003904
O        7.92130631       1.86356988       2.96010594      -0.00658974       0.01102994       0.00212908
O        7.64266108       3.47153774       0.76606595       0.00471795       0.00812411      -0.00026137
O        8.47327178       0.98072353       0.38635974      -0.00493711       0.00522840       0.00368899
Cr       7.48864364       1.95402201       1.25616690      -0.00227121       0.00981733       0.00109774
Cr       8.74831033       2.26752880       4.47567319      -0.00351337       0.01175630      -0.00024045
O       10.03601378       1.28403336       4.61966484      -0.00365460       0.01133978      -0.00382701
O        9.21543761       3.80322083       4.47472427      -0.00309840       0.01139081      -0.00121117
O        7.72614203       2.01413569       5.67707174       0.00011182       0.01178280       0.00232220
O        9.20591487      11.36711235      10.19888362       0.00187349      -0.00048915       0.00261099
C       10.36442965      10.71486434      10.70646602       0.00243872       0.00249910       0.00510937
C       11.36236154      10.49728031       9.58750792       0.00210658      -0.00273077       0.00638723
H       10.81523901      11.31145259      11.50442528       0.00272924       0.00674593       0.00163174
H       10.07863273       9.74226807      11.13470069       0.00311804       0.00492889       0.01029421
H       12.20300916       9.89689992       9.93942433       0.00375910       0.00275192       0.01043316
H       10.89939155       9.98276623       8.74305718       0.00313617      -0.01064309       0.01053629
H       11.76022857      11.44134451       9.21652174      -0.00123680      -0.00454250      -0.00088806
H        8.83420680      11.94733906      10.89491583       0.00087268       0.00080195      -0.00000140
O        7.16594491       7.72370205       1.51912980       0.00359631       0.00223798      -0.00048500
C        6.59940713       8.75200051       0.72145180       0.00666975       0.00519574       0.00185190
C        7.35873605      10.05515303       0.82098604       0.00589821       0.00478148       0.00993744
H        6.54372088       8.41980217      -0.32490338       0.01067193       0.00965667       0.00060880
H        5.57342401       8.87707485       1.06851589       0.00543776       0.00347480      -0.00137427
H        6.85402198      10.86387741       0.29045669       0.00847227       0.00620097       0.00994458
H        7.47813337      10.36466334       1.85986841       0.00069259       0.00167873       0.01124838
H        8.35333792       9.95086414       0.38691852       0.00772785       0.00653232       0.01463654
H        8.07985486       7.59399138       1.21213448       0.00409740       0.00235394       0.00073186
O        2.08723041       9.90940221       0.01533860      -0.01143712       0.00117800       0.00079304
C        0.89946859       9.72672780       0.80918829      -0.00496221      -0.00671035       0.00823110
C        1.11654089       8.76880066       1.95628451       0.00907449      -0.00548452       0.00618705
H        0.52998503      10.69134878       1.16675208      -0.00842573      -0.00908726       0.01074822
H        0.15361039       9.33436404       0.11946739      -0.00674391      -0.01122753       0.01303849
H        0.20093285       8.65502436       2.53594876       0.01424600      -0.01261028       0.01253313
H        1.41590434       7.78222853       1.60777322       0.01361527      -0.00295833       0.00322174
H        1.87941133       9.14217503       2.63884167       0.01122522      -0.00044873       0.00077981
H        2.78185869      10.21103185       0.61260456      -0.00898130       0.00263636      -0.00318465
O        6.92946503       0.88358470       8.72692562       0.00351036       0.00426912      -0.00092730
C        5.59366957       0.41843369       8.65391740       0.00545049      -0.00146241       0.00421143
C        5.05410232       0.35857562      10.06509529       0.01032820      -0.00104028       0.00567245
H        4.96502492       1.08305897       8.05751257       0.00082421      -0.00512141       0.00496858
H        5.54147796      -0.55671895       8.15296872       0.00836800      -0.00225830       0.00608757
H        3.97153209       0.23586558      10.06794360       0.01123242      -0.00692131       0.01020420
H        5.49950120      -0.44538979      10.65347527       0.01752728       0.00306919       0.00586158
H        5.29309962       1.28023892      10.59648565       0.00702632       0.00133954       0.00250626
H        7.35187904       0.89680021       7.85460694       0.00159782       0.00059549      -0.00160249
O        8.48535082      10.92171845       4.22028916      -0.00749646       0.01189655       0.01695651
C        9.07553409       9.89737362       5.00745938       0.00853872       0.01549000       0.00896958
C        9.86557628       8.93833237       4.14015850      -0.01434246       0.00890547      -0.00445044
H        9.68923270      10.33666518       5.80012079       0.02749094       0.01836762      -0.00902689
H        8.24621570       9.37140812       5.48171028       0.02036723       0.01935115       0.03260615
H       10.28722967       8.11490763       4.72158461       0.00780548       0.01810822      -0.00860979
H        9.20433710       8.52125830       3.37623395      -0.03455576      -0.00286812       0.02081449
H       10.68540117       9.47059144       3.66133923      -0.03322802       0.00780854      -0.03543689
H        9.05386299      11.71415178       4.27868046      -0.01119825       0.01508722       0.01124118
O       10.98616082       0.81227158       1.51237050      -0.00181975       0.00261462      -0.00514253
C       11.16284356       2.21416470       1.67554429      -0.00042771       0.00211215      -0.00488847
C       11.23853935       2.93059640       0.33865844      -0.00107929       0.00257304      -0.00446737
H       10.34785019       2.63033493       2.27539361       0.00062323       0.00239153      -0.00413609
H       12.08020038       2.34868291       2.25369286       0.00012749       0.00129659      -0.00599486
H       11.46750230       3.98922560       0.47981917       0.00013554       0.00201126      -0.00368678
H       12.00448383       2.47604237      -0.28895920      -0.00231369       0.00227046      -0.00541764
H       10.27886973       2.86396626      -0.17444519      -0.00151569       0.00396969      -0.00360528
H       10.08006016       0.70504440       1.16747558      -0.00300342       0.00363113      -0.00198966
O        3.46692719       0.75538199       5.99596753      -0.00532228       0.01233193       0.00969236
C        4.73594512       1.27346153       5.58307059      -0.00257000       0.00162312       0.00516391
C        4.79114997       1.65937598       4.13050435      -0.00461570      -0.00022557       0.00497323
H        5.01080677       2.13674922       6.20463009       0.00586972      -0.00015551       0.00331315
H        5.46372075       0.49411941       5.79985492      -0.00761059      -0.00359261       0.00352381
H        5.78921981       2.01042164       3.87830531      -0.00318281      -0.00693603       0.00172422
H        4.58228709       0.81235103       3.48583310      -0.01236945       0.00056112       0.00682016
H        4.08090820       2.45080091       3.88838561      -0.00028597       0.00385670       0.00642243
H        2.75260317       1.20112734       5.51960801      -0.00215302       0.00677280       0.00045238
O        6.01412865      10.15514911       5.16532756       0.00126228      -0.00993794       0.00843316
C        5.44229977       9.36611617       4.14126803       0.00481504      -0.00409547       0.00242871
C        4.59904991      10.17670347       3.17328462       0.00650609      -0.00012821       0.00465813
H        6.20756435       8.79789388       3.59657564       0.00672746       0.00004360       0.00110415
H        4.79691131       8.64129380       4.65287315       0.00453475      -0.00798982      -0.00404981
H        4.06754008       9.50489333       2.49303022       0.00980517       0.00297331      -0.00053173
H        3.86722582      10.76921379       3.72255087       0.00385402      -0.00446653       0.00545907
H        5.21718245      10.85243192       2.57941396       0.00686111       0.00397825       0.01027966
H        6.75694091      10.66376223       4.78329116       0.00036756      -0.00522006       0.01276283
O        0.95790990       2.01890265       5.11147871      -0.00214678       0.00809497      -0.01109549
C        1.11567112       3.18879852       5.89731608      -0.00348745       0.00269902      -0.00293236
C        0.53244067       4.40863308       5.22465225      -0.00448316       0.00687677       0.00607646
H        0.68248951       3.04929603       6.89559472      -0.00318721      -0.00500734      -0.00415951
H        2.19641858       3.29908293       6.02569579      -0.00381303       0.00297901      -0.00202644
H        0.73753612       5.32013596       5.79093453      -0.00678080       0.00219508       0.01398201
H        0.96498128       4.51809428       4.22924754      -0.00307282       0.01604806       0.00800215
H       -0.54879442       4.30399872       5.12212515      -0.00403792       0.00650032       0.00349083
H        0.01203067       1.80982635       4.99654575      -0.00185640       0.00696750      -0.00970551
O        2.07709071       1.24331909      -0.63933778      -0.00305969      -0.00884163      -0.00519329
C        2.58358966       1.77326460       0.59420611      -0.00300098      -0.00571656      -0.00690937
C        2.32299205       0.86748357       1.77318359      -0.00073732      -0.00252256      -0.00429940
H        3.65533953       1.97874462       0.50469752      -0.00346661      -0.00514763      -0.00861367
H        2.06843714       2.72535203       0.75486241      -0.00320479      -0.00576094      -0.00789469
H        2.51421796       1.39496187       2.70490606      -0.00096434       0.00104037      -0.00647162
H        1.28649923       0.53499373       1.77827035      -0.00020918      -0.00377066      -0.00237054
H        2.99177798       0.00372092       1.75270692       0.00040051      -0.00152500      -0.00174627
H        2.03644531       0.28296284      -0.55771003      -0.01337389      -0.00758211       0.00059946
O        4.10781321       4.21651831       2.13406373      -0.00653851      -0.00367865      -0.00378528
C        3.34689427       5.37003614       1.83366241       0.00096132      -0.00071919      -0.00945581
C        4.18327277       6.52532905       1.33870775       0.00793675      -0.00631636      -0.01034124
H        2.55774076       5.12090583       1.10993483       0.00174063       0.00178462      -0.01080239
H        2.82440428       5.64009283       2.75759156       0.00022449       0.00457086      -0.01165026
H        3.55555755       7.38519082       1.09507219       0.01268940      -0.00403929      -0.01341524
H        4.91822694       6.82378490       2.08623889       0.00789526      -0.00797818      -0.00985439
H        4.74130944       6.24745964       0.44091019       0.00798301      -0.01100353      -0.00853452
H        4.84011467       4.12449732       1.51225129      -0.00839942      -0.01286800      -0.00442587
O        9.53703002       0.50561331       7.71215888       0.00323397      -0.01522809      -0.00561047
C       10.54630187       1.50080335       7.69751319      -0.00222224      -0.00978887      -0.00439900
C       10.68325106       2.22478276       9.02110353      -0.01028919      -0.00635988      -0.00589931
H       11.51063174       1.05239456       7.41209675       0.00092131      -0.00518706      -0.00069155
H       10.28327966       2.20862740       6.90861278      -0.00347933      -0.01308960      -0.00658345
H       11.44907102       3.00373503       8.95820408      -0.01704625      -0.00011411      -0.00677119
H        9.73851612       2.69060920       9.30513317      -0.01443180      -0.01374664      -0.00865443
H       10.97625197       1.54384317       9.82021038      -0.00570005      -0.00184195      -0.00409995
H        9.41364130       0.19580053       8.62990949      -0.00000450      -0.01077764      -0.00465406
O        9.89460963       7.24515104       1.07137501       0.00474590       0.01029539       0.00791368
C        9.75471104       6.02543926       1.84171146       0.00449976       0.00311057      -0.00423504
C       11.00870737       5.67834810       2.59377865       0.00083208       0.00126766       0.00056341
H        8.91464095       6.12064477       2.53702874      -0.00017640      -0.00659359      -0.00894377
H        9.48300171       5.25232336       1.12387801       0.01230471       0.00899637      -0.01287928
H       10.84775830       4.74509716       3.12586354       0.00074853      -0.00253630      -0.00647461
H       11.86636396       5.56349215       1.93010737       0.00531765       0.00888485       0.00543852
H       11.25250026       6.44387514       3.33381811      -0.00651092      -0.00339769       0.00737593
H       10.20364625       7.92738011       1.67832280      -0.00867417       0.00724153       0.01737753
O        4.14978377       6.11553810       5.86885680       0.00698017      -0.00170743       0.00594658
C        4.59143660       4.90721055       5.21080138       0.00121468       0.00378838      -0.00734554
C        6.05728648       4.94573078       4.86511022      -0.00105816       0.00480875      -0.01627588
H        4.38640001       4.10531314       5.92061631       0.00432999      -0.00199753      -0.01329955
H        3.98578871       4.72186287       4.32602952      -0.00459945       0.01259010      -0.00492179
H        6.34607441       4.04169670       4.33483370      -0.00789004       0.01236849      -0.03211599
H        6.28666383       5.79593705       4.21715860      -0.00320042       0.01345982      -0.00501564
H        6.67298635       4.99575416       5.76269684       0.00535687      -0.01040974      -0.02051648
H        4.17413411       6.82757347       5.22004835       0.00291799       0.00360352       0.01187047
