188
Lattice="12.39488755167774 0.0 0.0 0.0 12.39488755167774 0.0 0.0 0.0 12.39488755167774" Properties=species:S:1:pos:R:3:forces:R:3 energy=-95773.46875 stress="-0.005513384938240051 0.0006967990775592625 -0.001998198567889631 0.0006967990775592625 -0.0027781242970377207 0.0003951547550968826 -0.001998198567889631 0.0003951547550968826 -0.0024997813161462545" pbc="T T T"
N       10.55692828       6.34281283       7.40650072      -0.00146961      -0.01292008       0.00747514
N        9.90881175       7.81377321       8.87249638      -0.00573653      -0.00693816       0.01173061
C       10.49202175       5.91081096       4.93185487      -0.00566834       0.00321913       0.00425515
C       10.39588183       7.36511684       4.49461223       0.00727239       0.00326997       0.00253773
C       11.21901533       5.72197519       6.24627542      -0.00623846      -0.00539380       0.00286564
C        9.69374859       7.54415205       3.16129664       0.01102863       0.01030606       0.00107858
C        9.48118832       9.00694124       2.81447954       0.02460915       0.01302770       0.00266609
C       10.55596940       7.64583209       7.71611090      -0.00767225      -0.00327283      -0.00423145
C        9.87087997       5.66521129       8.38298613       0.01463440       0.01794165       0.02877468
C        8.74840807       9.16355032       1.49910693       0.03240779       0.02429490      -0.00051367
C        9.46533072       6.58805082       9.30500880       0.03167263      -0.01398307      -0.01016366
C        9.72424360       9.08175547       9.56690021      -0.01505521      -0.00016296      -0.01181135
H        9.49098500       5.48244146       4.98957188      -0.00881082       0.01154801       0.00379895
H       11.03723181       5.32965737       4.18109461      -0.01145931      -0.00132546       0.00441843
H       11.39764823       7.81901883       4.44816125       0.01123103      -0.00641083       0.00372146
H        9.82606858       7.93792374       5.23441673       0.01199840       0.01001383       0.00017738
H       12.21404299       6.16101552       6.18191676      -0.00133589      -0.02074948       0.00523180
H       11.33562645       4.66680657       6.49946627      -0.01958903      -0.01066107      -0.00017380
H       10.25781847       7.04477747       2.36690192       0.00990230       0.00785512       0.00219321
H        8.72795372       7.03923318       3.21737196       0.00681159       0.01754121      -0.00352271
H        8.89643871       9.47778671       3.61308043       0.02695364       0.01793811       0.00138664
H       10.43106050       9.54675339       2.77473774       0.02954924       0.00371943       0.00737362
H       11.00314097       8.43094008       7.13728051      -0.02396455      -0.00501521      -0.00905357
H        9.73629569       4.59616536       8.33365749       0.03178153      -0.01739197       0.02651735
H        8.90226484       6.48193386      10.21370925       0.02686939      -0.00756350       0.03358050
H        7.78310356       8.65050177       1.52972877       0.02861957       0.03205305      -0.00763645
H        8.58502682      10.21119281       1.25392882       0.04176632       0.02648875       0.00219684
H        9.32550028       8.71373220       0.68588150       0.03377325       0.02420673       0.00072505
H       10.09112527       8.99919971      10.59013745      -0.01023772       0.01570724      -0.00926682
H       10.29430730       9.84932665       9.04899886      -0.03301568       0.00306123      -0.01915687
H        8.67068720       9.35610136       9.57284786      -0.02182937      -0.01845041      -0.00636465
N        0.96650109       9.23313053       8.04700091      -0.00382929       0.00997323       0.00656121
N        1.19636029       7.09594018       8.37783522      -0.00224055       0.00708103       0.01790562
C        2.08022444      11.32350583       7.24544865      -0.00013667       0.00726092       0.00383347
C        3.12648989      10.69895028       6.33367141      -0.00112130       0.01514471      -0.00155094
C        0.79678823      10.51673136       7.35429290       0.00100997       0.00499570      -0.00316468
C        4.41697184      11.50917294       6.26363425      -0.00021258       0.01341826       0.00353718
C        5.48304298      10.80778846       5.43455636      -0.00403232       0.01836848      -0.00551745
C        1.21018593       8.05860412       7.44924201      -0.00322688       0.00662535       0.00816000
C        0.81285104       9.01141188       9.39836664       0.00288688      -0.02014932      -0.00474620
C        6.80571639      11.54755692       5.35009019      -0.00019982       0.01232040       0.00254741
C        0.95919768       7.67033305       9.60010867      -0.00386272       0.04531291      -0.01465166
C        1.50130289       5.69010245       8.16583746      -0.00776528       0.00720304       0.01148497
H        2.49129353      11.48194384       8.24775308       0.00035977      -0.00148593       0.00453582
H        1.80353714      12.31340167       6.87086337      -0.00073987       0.01011679       0.01242945
H        2.71128407      10.57598483       5.32540776      -0.00223568       0.02556691      -0.00191167
H        3.36826082       9.68969633       6.68507417      -0.00187621       0.01157078      -0.01156864
H        0.38816441      10.29985833       6.36235472       0.00533692       0.00356839      -0.00200933
H        0.03911914      11.06427210       7.91473738      -0.00372702       0.00483006      -0.00612997
H        4.20620757      12.49699162       5.83774409       0.00105050       0.01781824       0.01378343
H        4.79168510      11.68373071       7.27988599       0.00243269       0.00288086       0.00398201
H        5.65598022       9.81572713       5.86423740      -0.00914074       0.01268259      -0.01758149
H        5.09027052      10.63579566       4.43178780      -0.00501817       0.03201806      -0.00748089
H        1.38580209       7.92097089       6.39515798      -0.00383424       0.00115454       0.00439033
H        0.62070301       9.79901259      10.10723515      -0.00584083       0.02624596       0.00334825
H        0.92924111       7.08683635      10.50276397      -0.00636393       0.00853412       0.01837863
H        7.22265596      11.70016878       6.34612550       0.00008198       0.00152276       0.00403786
H        7.53989125      10.99249548       4.76411812      -0.00226371       0.01434460      -0.00185260
H        6.69057496      12.52445754       4.87659833       0.00550997       0.01664813       0.01101707
H        0.64469141       5.07168245       8.43344682      -0.01687872       0.01306525       0.00188080
H        1.75419263       5.53828722       7.11975074       0.00674208       0.00346220       0.01932776
H        2.34086090       5.38616386       8.78445935      -0.01886603       0.00081329       0.02663708
P       10.59898934       1.31410488       1.60771455       0.00296825      -0.00342016      -0.00406617
O       10.98947058       0.34607163       2.88874399      -0.00361896      -0.01533198      -0.01040792
O       11.73292471       2.31254243       1.43458563       0.01019382      -0.01143622       0.00058243
O        9.29635083       2.00636691       1.97848845       0.00969720       0.00428104       0.00254476
O       10.44980278       0.35684107       0.44343959      -0.00589950       0.00551569      -0.00974059
H       11.16211273       0.91662796       3.64257107      -0.00511517      -0.02526039      -0.00469410
O        4.81621578       3.64397457       1.72768859      -0.00877380      -0.00468054       0.00002261
C        4.03188284       2.57338476       2.21780260      -0.00872988      -0.00729829      -0.00625825
C        4.05511389       4.68137537       1.14091236      -0.00740135      -0.00846225      -0.00778228
C        4.96613149       1.57448952       2.86029273      -0.00981104      -0.00560358      -0.00308575
C        5.00225797       5.76831068       0.69820334      -0.00727367      -0.00793380      -0.00480849
H        3.29559484       2.94721426       2.94727307      -0.01402292      -0.01047501      -0.01049018
H        3.46022076       2.11528436       1.39786992      -0.00277910      -0.00779361      -0.00994346
H        3.48358105       4.28860540       0.29161978      -0.00003648      -0.01214126      -0.01057863
H        3.33381596       5.07782270       1.86799145      -0.01356408      -0.00930503      -0.01369804
H        4.40882617       0.70721531       3.21803946      -0.00865690      -0.00763290      -0.00691913
H        5.72589451       1.24191440       2.15288769      -0.00643609      -0.00256563      -0.00057966
H        5.48313364       2.02874755       3.70721547      -0.01432127      -0.00577366      -0.00050890
H        4.46313861       6.56671141       0.18602865      -0.00535955      -0.01089512      -0.01112009
H        5.52396406       6.19592918       1.55270049      -0.01319912      -0.00404362      -0.00349832
H        5.74972868       5.35994558       0.02279613      -0.00319402      -0.00933947       0.00103110
O        9.82679055       1.83791434       7.98026682       0.00867307       0.00680360       0.01684929
C        8.68516244       1.39870858       7.25857271       0.01291648       0.00534862       0.01115862
C       10.58649685       0.72243064       8.40878672       0.00784498       0.00745414       0.02081555
C        7.86525092       2.59346643       6.86497301       0.00958985       0.00223622       0.00914130
C       11.78979449       1.19594607       9.17845236       0.00405231       0.00528440       0.02695525
H        9.00602531       0.83325058       6.37231300       0.01813753       0.00792003       0.01139027
H        8.09638964       0.72114753       7.89436035       0.01186517       0.00271329       0.00675115
H        9.95716113       0.07646422       9.04123391       0.00507289       0.00689152       0.01679105
H       10.87506986       0.13927813       7.51673196       0.01300853       0.00825380       0.02251258
H        6.98968295       2.27158220       6.29994566       0.01216978      -0.00109982       0.00716525
H        7.52617572       3.12470340       7.75548417       0.00577873       0.00162423       0.00774388
H        8.44379600       3.26712770       6.23029064       0.00753243       0.00510635       0.01119878
H       12.40216775       0.34750349       9.48988697       0.00363905       0.00324738       0.02237171
H       12.40644531       1.86211953       8.57113370       0.00551290       0.00862320       0.03266013
H       11.48023656       1.70757588      10.08838036       0.00215910      -0.00092159       0.02970660
O        7.01336155       2.98048817      10.72893345      -0.00675207      -0.00232264      -0.00063026
C        7.39993526       4.30773793      10.52230810      -0.00407001      -0.00179523       0.00733042
C        8.05322771       2.27230540      11.41866085      -0.01011855      -0.00855696      -0.00206381
C        6.32190160       5.03891723       9.76556236       0.00107533       0.00520954       0.00700630
C        7.61335341       0.85604826      11.62294258      -0.01378065      -0.00802064      -0.00506207
H        7.60842236       4.79907619      11.48827703      -0.00806404      -0.00739703       0.01054972
H        8.34571890       4.31349299       9.96141849      -0.00195763       0.00052177       0.01080248
H        8.97193299       2.30944760      10.81486461      -0.00966227      -0.01030331      -0.00081885
H        8.27258588       2.75022199      12.37840457      -0.00965315      -0.01218560      -0.00040764
H        6.56217782       6.09910465       9.68602550       0.00053190       0.00617170       0.02161385
H        6.20529844       4.62633660       8.76276053       0.00956739       0.01791099       0.00123090
H        5.36357754       4.94930273      10.27951768      -0.00292534      -0.00110886      -0.00216986
H        8.41307995       0.33330553      12.15204490      -0.01465976      -0.01006559      -0.00587855
H        6.69512631       0.82396197      12.21308476      -0.01315695      -0.00857547      -0.00450520
H        7.42173486       0.37656815      10.65894307      -0.01435569      -0.00765907      -0.00482175
O        7.28732829       5.78533408       4.67937951      -0.00523411       0.00435859      -0.00767896
C        6.85650307       4.63248955       3.94908390      -0.00245166      -0.00071163      -0.00057787
C        6.63572285       5.97397387       5.91639468       0.00424576       0.00254726      -0.00288883
C        7.71478394       4.48450578       2.72300005      -0.00245357      -0.00310654       0.00036353
C        7.18928192       7.24898531       6.51003923       0.00209521       0.00621828      -0.00941870
H        6.93818897       3.74585598       4.58827782       0.00094232       0.00328484       0.00437200
H        5.80040820       4.74464386       3.67696867      -0.00275290      -0.00556859      -0.00061706
H        5.54824274       6.04355670       5.77484589       0.00274974      -0.00407720       0.00617296
H        6.82023621       5.11842236       6.58092373       0.01509033       0.00463074      -0.00371870
H        7.38579803       3.62842230       2.14145653      -0.00252560      -0.00290099       0.00042503
H        7.65019648       5.37787803       2.10100018      -0.00017541      -0.00321537       0.00013078
H        8.75774964       4.30001136       2.97380172      -0.00339925      -0.00447514       0.00215045
H        6.77153821       7.45803192       7.49267808       0.01127795       0.00425224      -0.00549939
H        8.26752242       7.15761799       6.60877997       0.00367905       0.01441519      -0.02076690
H        6.99060142       8.09374113       5.84945686      -0.01096597       0.00392202      -0.00756435
O        5.51439129       8.86578035      10.00350530       0.00458719      -0.00530320      -0.00833617
C        4.73467741       8.91030135       8.83510305       0.00558773      -0.00404000      -0.00963823
C        5.99684469      10.15028733      10.37202108      -0.00268742      -0.00583396       0.00320917
C        4.26164409       7.51051697       8.54585611       0.00922941      -0.00444216      -0.01494257
C        6.74618916       9.98063269      11.65882740      -0.01028541      -0.00801705       0.00791591
H        3.88210804       9.59168909       8.98430676       0.00357771      -0.00723502      -0.00912669
H        5.32824976       9.31298364       8.00093245       0.00470430       0.00010511      -0.00820753
H        6.63894597      10.54537086       9.56694590       0.00186554       0.00267459       0.01149064
H        5.15666746      10.85231694      10.48084421      -0.00554511      -0.00953928       0.00189935
H        3.69531124       7.47382657       7.61655898       0.00816916      -0.00355156      -0.01456343
H        5.10114074       6.83175149       8.44607746       0.01134297      -0.00075263      -0.01899724
H        3.64813554       7.15108509       9.37160665       0.01117455      -0.01075355      -0.01659723
H        7.26828467      10.88846618      11.94154161      -0.01346231      -0.00747785       0.01225107
H        6.06593090       9.70265042      12.46299929      -0.01433648      -0.00846126       0.00388879
H        7.47634920       9.17907041      11.55785404      -0.00756693      -0.00565575       0.01248860
O        0.83470805       9.08169840       0.58753091       0.00455987      -0.00349351      -0.02678624
C        1.67453188      10.22310444       0.75859969       0.00477140      -0.00520080      -0.01806534
C        1.55581759       7.87248905       0.74616660      -0.00266573      -0.00638378      -0.01341638
C        0.82327730      11.46151798       0.77028830       0.00787139      -0.00405377      -0.02166345
C        0.57666432       6.72608692       0.83062195      -0.01034519       0.00087777      -0.00462582
H        2.21962298      10.12034373       1.70759668      -0.00199448      -0.00876849      -0.01513749
H        2.43216667      10.23934390      -0.04413228       0.00958258      -0.00254344      -0.01252773
H        2.25969306       7.74674601      -0.09581338      -0.00176424      -0.01960809      -0.01024756
H        2.16227296       7.91050893       1.65737043      -0.00482479      -0.00179747      -0.01228499
H        1.43783880      12.36209500       0.82321008       0.01098621      -0.00645149      -0.00778601
H        0.18624223      11.53681385      -0.11077978       0.01872122       0.00475771      -0.02745724
H        0.15542251      11.47530126       1.62980142      -0.00106028      -0.00432712      -0.02769366
H        1.09305849       5.76637583       0.86072996      -0.01880338      -0.00330825       0.00201236
H       -0.02678050       6.81618471       1.73367545      -0.00899558       0.01158269      -0.00529799
H       -0.11275158       6.71846578      -0.01671820      -0.01083076      -0.00088479      -0.00380658
O        2.69688813       3.22718583       9.38379182       0.00004487      -0.00864038      -0.00105351
C        3.75175570       2.57649972       8.69165921      -0.00054374      -0.01195532       0.00152439
C        2.40220415       2.62704429      10.64750131      -0.00371915      -0.00803939      -0.00200087
C        3.94857632       3.28252025       7.36860329      -0.00001273      -0.01681781      -0.00035796
C        1.30026590       3.41663871      11.30709099      -0.00032777      -0.00350469      -0.00276762
H        4.66962109       2.59689336       9.29460603      -0.00094324      -0.00989230       0.00135973
H        3.48762338       1.52137488       8.52640978      -0.00093387      -0.01239133       0.00585201
H        2.09819248       1.58251255      10.49239626      -0.00839637      -0.00629711      -0.00307715
H        3.31572145       2.61498461      11.25936387      -0.00445780      -0.01292911      -0.00131923
H        4.74961090       2.81373778       6.79633417       0.00026354      -0.01832756       0.00158334
H        3.03408315       3.24504610       6.77222723       0.00042175      -0.01909476      -0.00034646
H        4.21691449       4.32951708       7.52466529      -0.00080074      -0.01646520      -0.00269748
H        0.98703222       2.98035057      12.25972855      -0.00530138      -0.00507809      -0.00518173
H        1.62627796       4.44593550      11.47362240       0.00521636      -0.00628474       0.00163179
H        0.41690537       3.44152613      10.66832776       0.00227290       0.00415827      -0.00546946
O        3.32925080       7.20537450       3.52983371      -0.00489551      -0.00065632      -0.00124682
C        4.62758540       7.76291264       3.70558559      -0.00491566      -0.00065365      -0.00198677
C        3.05841143       6.16408624       4.44168453       0.00033122      -0.00622073      -0.00630238
C        4.85214523       8.81765476       2.65280306      -0.00588021       0.00056806      -0.00060853
C        1.66952551       5.63717588       4.17351926      -0.00059444      -0.00578405      -0.00053482
H        4.70091181       8.19164271       4.71498905      -0.00357746      -0.00151175      -0.00175396
H        5.38789501       6.97641318       3.63367347      -0.00541478      -0.00053242      -0.00384829
H        3.80554100       5.36332818       4.34300743       0.00030339      -0.00475937      -0.01630656
H        3.14632542       6.54721034       5.47432560       0.00572110      -0.01344176      -0.00458741
H        5.84501535       9.25473472       2.76597119      -0.00498304      -0.00133961      -0.00271993
H        4.77958033       8.38325580       1.65716447      -0.00952609       0.00256941      -0.00109293
H        4.11118419       9.61338965       2.73013324      -0.00394453       0.00164242       0.00334599
H        1.39372887       4.87991182       4.90959470       0.00460875      -0.00809016      -0.00126587
H        0.94168756       6.45070559       4.19831651      -0.00044128      -0.00644076       0.00819241
H        1.60435841       5.17257794       3.19044089      -0.00669191      -0.00205685      -0.00160900
