197
Lattice="13.687588061029407 0.0 0.0 0.0 13.687588061029407 0.0 0.0 0.0 13.687588061029407" Properties=species:S:1:pos:R:3:forces:R:3 energy=-1676962.0 stress="-4.274494858691469e-05 -0.0004294476966606453 -0.0006795965018682182 -0.0004294476966606453 0.0005543665611185133 0.0008641327440273017 -0.0006795965018682182 0.0008641327440273017 -0.0011422624811530113" pbc="T T T"
Ac       8.06808270      14.19920786       9.71092592      -0.00978265       0.00573575      -0.00781325
Ac       9.13603756      13.51515462       2.04603171      -0.00566708       0.01264719       0.01363678
O       13.10450374      12.17348938       1.99428970      -0.00245702       0.03062165       0.03437957
O       13.18372734      14.70551592       1.14522755      -0.00817204       0.01231027      -0.01440641
O       11.32046304      13.95456817       2.99174850      -0.00783151       0.04602951       0.00033021
O       10.99801520      13.16397955       0.59373336      -0.00667483      -0.00176522       0.01709104
Cr      12.26905865      13.49622392       1.67918561      -0.00703084       0.02241839       0.00888718
O        8.60918526      13.69101087       7.47117224      -0.02954124      -0.00177020      -0.00764105
O        7.60387419      11.28626724       6.70378001       0.00604087      -0.02549857       0.01982945
O        8.36523476      11.94242948       9.25644766       0.02175680       0.00576222       0.00760251
O       10.18221466      11.47730436       7.24237850       0.00891638       0.02814823      -0.00838551
Cr       8.71093395      11.99585912       7.58649264       0.00269739       0.00114441       0.00366995
O        7.53906667      12.80796849       0.32802627       0.00190139       0.01536435       0.00529814
O        7.10922385      14.79860776       1.85983810      -0.00851333       0.01008487       0.00907540
O        5.26635991      12.84096465       1.77023476      -0.00428414       0.00722432      -0.00580883
O        5.46340118      14.47664152      -0.32304736       0.00119179       0.01368213       0.00034261
Cr       6.23710465      13.73099120       0.88440415      -0.00193816       0.01143412       0.00169323
O        0.31297492       0.74858424      11.15153257       0.00976950       0.00704718      -0.02211952
N        2.00202663       2.07041309      11.93291442       0.00645241      -0.00867963      -0.01135616
C        3.04310519       1.41416726      11.17213803       0.00746057      -0.00329455      -0.01537211
C        2.37603228       3.22639255      12.71029836       0.00303042      -0.01788761       0.00092287
C        0.73171575       1.63334245      11.89277011       0.00130868      -0.01706845      -0.02799016
H        3.84106336       1.09865838      11.84790383       0.00855249      -0.00265379      -0.01576146
H        3.45540670       2.09470411      10.41932695       0.00626954       0.00220019      -0.01135540
H        2.60721458       0.54821717      10.68217890       0.01156069      -0.00171217      -0.01958342
H        3.17399953       2.97820267      13.41422288       0.00100720      -0.02545263       0.00011927
H        1.51037363       3.59227896      13.26033959       0.00068843      -0.02487926       0.00187105
H        2.72430268       4.02701734      12.04921745       0.00375886      -0.01076566       0.01040199
H        0.08617309       2.16509095      12.60680974       0.00334337      -0.01106474      -0.01711693
O        5.02747215       1.84386119       4.54770567      -0.02437329      -0.00360096       0.01751864
N        3.20211337       2.07264703       3.17634487      -0.01680654      -0.01093724       0.00764941
C        2.81803430       0.67236615       3.19809308      -0.01293262      -0.01089236       0.00444714
C        2.24025811       3.00803170       2.63176418      -0.01653341      -0.01640262       0.00100546
C        4.27178934       2.51634740       3.86077042      -0.02318829      -0.00544155       0.01280987
H        2.55122064       0.35440641       2.19029678      -0.00461542      -0.01007466       0.00215921
H        1.95178668       0.52187134       3.84969465      -0.01634985      -0.01336472      -0.00092915
H        3.66183479       0.08654777       3.54754790      -0.01303452      -0.00791250       0.00786984
H        1.78733488       2.58418066       1.73751038      -0.01133578      -0.01551434      -0.00158915
H        2.73454813       3.94827240       2.38514903      -0.01452170      -0.02221404      -0.00552997
H        1.43490000       3.20992363       3.34611112      -0.01860514      -0.00912605      -0.00309715
H        4.40396324       3.60977852       3.74006982      -0.02474743      -0.00508291       0.01456105
O        7.37889876       8.35105896       2.51189783       0.01113868      -0.00181103       0.00161211
N        7.92249609       6.13558835       2.68393543      -0.00121219      -0.00190906      -0.00350065
C        6.54870890       5.68056450       2.71242067      -0.00428918       0.00548523      -0.00926127
C        8.96496345       5.13508597       2.72660435      -0.00606284      -0.00632419      -0.00280558
C        8.19993871       7.45438904       2.58538623       0.00095230       0.00077939       0.00075725
H        6.24253332       5.41818007       3.72587842      -0.01543129       0.02153195      -0.00846985
H        6.44974633       4.79525132       2.08545825      -0.00223394      -0.00279507       0.00214922
H        5.90567360       6.48171417       2.35632500       0.00254853       0.00292060      -0.02630653
H        8.89807687       4.53806093       3.64020322      -0.01107186      -0.00792314      -0.00445178
H        9.93627187       5.62837835       2.70822967      -0.00392042      -0.01025629       0.00093703
H        8.88683663       4.46779324       1.86499179      -0.00637768      -0.00345232      -0.00471821
H        9.28851857       7.64092648       2.58034772       0.00574535      -0.00685962       0.00404326
O       10.01738711       1.95018062       9.09207851       0.00373363      -0.01797239       0.00725890
N       12.22141399       2.14215132       8.51845111      -0.00154993      -0.00243261      -0.00354366
C       12.43664893       3.42618829       9.16426541      -0.00255537      -0.00681067       0.00787193
C       13.39601334       1.47851105       7.97559890       0.00062168       0.01299673      -0.01994459
C       11.05007404       1.54004702       8.50107874       0.00840276      -0.00908062      -0.00295436
H       12.86689678       4.12353615       8.44345018      -0.01702958       0.00502560       0.01112694
H       13.13311732       3.31889673       9.99586430       0.00793590      -0.01084828      -0.00176314
H       11.50110888       3.82590536       9.53396979      -0.00138482      -0.01747575       0.02326433
H       13.90554018       2.13714974       7.27229603      -0.01195146       0.02483355      -0.01766025
H       13.09602732       0.56710312       7.46665005       0.00430046       0.01618028      -0.02837814
H       14.06027250       1.22687990       8.80555348       0.00856568       0.01132964      -0.02712584
H       11.02078441       0.61726049       7.91403267       0.00807538      -0.00521207      -0.00790387
O        8.59752396       4.12052413      12.92934994       0.00479782       0.00453830       0.02758488
N       10.53075069       2.90153181      12.69604687       0.00590879      -0.00379628       0.01896322
C       11.37754091       3.79684328      13.46359227       0.01435401      -0.00588354       0.01246588
C       11.16638236       1.74369009      12.10519647       0.00702587      -0.00559060       0.01377526
C        9.23958965       3.17013784      12.49744152       0.01888525      -0.01919019       0.01782069
H       12.15039769       4.21264813      12.81397831       0.00928855      -0.00409418       0.00833797
H       11.83399269       3.24478842      14.28729913       0.01988899      -0.00443938       0.00966236
H       10.75935577       4.60858239      13.83610866       0.01548998      -0.00429599       0.01653297
H       11.87597892       2.03690185      11.33563360      -0.00095609      -0.00470796       0.00644238
H       10.40705092       1.10915676      11.64153284       0.00449064      -0.00936196       0.02444480
H       11.67708985       1.15126906      12.86107777       0.01700310      -0.00217131       0.01042968
H        8.76172252       2.39013326      11.86950600       0.00769921      -0.00868434       0.02831708
O       12.74729384       7.92935811       6.30414535       0.00585318      -0.00349641       0.00525701
N       10.92236638       6.54587648       6.43477086       0.00705442       0.00091854       0.00156101
C        9.92202238       7.59719734       6.41212473       0.00916983       0.00301223       0.00834346
C       10.45844753       5.18667198       6.59181378       0.00613301       0.00092977      -0.00626905
C       12.24357166       6.82574972       6.40911521       0.01000136       0.00588667      -0.00064553
H        9.21776606       7.45134661       7.23078835       0.00618869      -0.00461446       0.00458622
H        9.35814675       7.56935643       5.47329960       0.01225922       0.01317051       0.00618643
H       10.41722629       8.55951755       6.51266112       0.01012793       0.00096703       0.01941417
H       10.07231361       5.01426766       7.59778604       0.00483401      -0.00366814      -0.00760511
H       11.27859049       4.49812393       6.39203181       0.00595094       0.00152709      -0.00896652
H        9.65074226       4.98011587       5.88648791       0.00697181       0.00538361      -0.00830671
H       12.85298759       5.90610613       6.48739972       0.00762010      -0.00040746      -0.00631050
O        2.82270379      11.35406655       0.14243421       0.00790644       0.00426978      -0.01177931
N        3.67119563       9.78352369       1.56996495       0.00277364       0.00884873      -0.00823181
C        4.34769005       9.03170517       0.54055730       0.00194858       0.00351617      -0.00486930
C        3.86778078       9.34686122       2.93282022       0.00430501       0.01826381      -0.00697668
C        2.98026596      10.90450882       1.26529965       0.00501260       0.00976264      -0.01458573
H        4.00610389       7.99122973       0.54795208      -0.00202195       0.00479802      -0.00267064
H        5.42790998       9.04432422       0.70342736       0.00171739      -0.00012954      -0.00233124
H        4.11304931       9.48189135      -0.41937343       0.00552863       0.00236396      -0.00580746
H        3.46980963       8.33986849       3.08798325       0.00365548       0.02269092      -0.00044919
H        3.35118378      10.02792690       3.60651450       0.00033902       0.01513872      -0.00745836
H        4.93132164       9.33801879       3.18354581       0.00361836       0.01467692      -0.00506090
H        2.53914795      11.37769698       2.15874053       0.00506845       0.01252681      -0.01387197
O        6.74969208       9.25998262      11.15271905       0.00968909       0.00448138       0.01361957
N        5.03438334      10.75736190      10.90952975      -0.00242411      -0.00482261      -0.00247063
C        5.82574425      11.91143585      11.24186977      -0.01392058      -0.00027588       0.00598557
C        3.61338654      10.97931046      10.72361050      -0.00312261      -0.01490584      -0.01728648
C        5.57944062       9.51575728      10.91172366      -0.00405443      -0.00031748       0.00021890
H        5.46620001      12.39581461      12.15112542      -0.02145606      -0.00697996       0.00646093
H        5.73806325      12.64583852      10.41597770      -0.01400010       0.00329204       0.00917031
H        6.86241051      11.59933001      11.36404244      -0.01208395       0.00596792       0.01126379
H        3.17712608      11.40786717      11.62814192      -0.01646917      -0.02019991      -0.02120835
H        3.12600211      10.03067858      10.50535657       0.00739389      -0.01823315      -0.02580622
H        3.44543228      11.65503804       9.87890785       0.00098862      -0.01403791      -0.01755765
H        4.83797439       8.74242427      10.66386904       0.01147062      -0.00469333      -0.00442974
O        6.55608900       2.24461038      10.79996036       0.00057392       0.00369612      -0.00723232
N        5.65231862       4.11310891      11.75152627       0.00494629       0.00019017       0.00184127
C        5.27110755       4.75521338      10.51138866      -0.00403281       0.00234938       0.00540119
C        5.49925260       4.90636684      12.95753005       0.00702226      -0.00745353       0.00726140
C        6.25395806       2.94141089      11.80642496       0.00645247       0.00174201      -0.00408119
H        5.95072223       5.57648384      10.27171174      -0.00570545       0.00273627       0.00223954
H        4.26637583       5.16380153      10.61347014      -0.00376588       0.00068960       0.01231451
H        5.27986187       4.02458025       9.70924764      -0.00811577       0.00328976       0.00426625
H        6.24616393       5.70237918      12.97558122       0.00548109      -0.00609848       0.01053544
H        5.63566119       4.26534133      13.82270705       0.01186663      -0.01396625       0.00171502
H        4.50234310       5.34601894      12.97956351       0.00595924      -0.01075487       0.01400289
H        6.46527789       2.58093252      12.80936879       0.01482870       0.00155669      -0.00618640
O        3.43451135       7.24642784       5.57787258       0.00401717      -0.01171064      -0.00580311
N        4.36736885       9.22479512       6.24671270       0.00549418      -0.01104321      -0.00708386
C        5.73751983       8.78096028       6.09065124       0.00442009      -0.01330741      -0.00668663
C        4.17709915      10.49689813       6.90616270       0.00722070      -0.01174383      -0.00449254
C        3.34115576       8.38917430       6.01416336       0.00400905      -0.00855136      -0.00609392
H        6.20511730       8.68548304       7.07375807       0.00194253      -0.02231824      -0.00634143
H        6.30204638       9.50598639       5.50567916       0.00786859      -0.01034528       0.00054498
H        5.72923378       7.81572349       5.59205979       0.00339203      -0.00947863      -0.01429996
H        4.60124166      10.46435692       7.91412674       0.00585136      -0.01507308      -0.00407025
H        3.11188355      10.71789573       6.97212553       0.00774300      -0.00947192      -0.00547785
H        4.68041019      11.29173381       6.35180040       0.00990391      -0.01174602      -0.00203638
H        2.36313954       8.84626602       6.24685173       0.00484538      -0.00914043      -0.00769474
O       12.19573982       5.78686446      10.89597799      -0.01897937       0.01936376       0.01850063
N       10.41332295       7.15001322      11.35121599      -0.00550005       0.00016060       0.00548174
C        9.47855325       6.45693487      10.49132173      -0.00334768      -0.00133054       0.00135268
C        9.86851948       8.23314791      12.14113568      -0.00221173      -0.00257105       0.00496602
C       11.69904749       6.76544231      11.44337008       0.00856119      -0.03602773      -0.01233262
H        8.99096840       7.16486069       9.82257750      -0.00858295       0.00341082       0.00862315
H        8.71175252       5.95776697      11.08889045      -0.00135696      -0.00570826       0.00180468
H       10.02420074       5.71862795       9.91106208      -0.00484705       0.00566122      -0.00368277
H        9.28428481       8.90749872      11.51276732       0.00268531       0.00106570       0.00580928
H       10.68166003       8.78290836      12.61192611      -0.00090207      -0.00731856       0.00898075
H        9.19575103       7.85023936      12.91524518      -0.00505465      -0.00251983       0.00226429
H       12.28832227       7.42695110      12.10059128      -0.00337046      -0.00775591       0.00828910
O        9.07150317      11.33974114       3.11709411       0.01395839       0.01412837       0.02038923
N       10.81876945       9.88953375       3.03186802       0.00926777       0.00894293       0.01025911
C       10.79218412       9.75322097       1.58465432       0.00196994       0.01312498       0.01033911
C       11.94841515       9.29171979       3.72075757       0.01013815       0.00342761       0.00394405
C        9.95594832      10.65193785       3.67724539       0.01469576       0.01152486       0.01552498
H       11.06982948       8.72821783       1.33740122       0.00541895       0.01499814       0.00616803
H       11.51361337      10.43727805       1.13052371      -0.00430632       0.01802191       0.00799765
H        9.78814907       9.95083883       1.21647307      -0.00088057       0.00952115       0.01627911
H       11.95931197       8.21186103       3.56151001       0.00645536       0.00404146      -0.00085396
H       11.88403696       9.47908061       4.78678677       0.01498423      -0.00129364       0.00504676
H       12.87002581       9.72576280       3.32933791       0.01011452       0.00207686       0.00255108
H       10.05819855      10.66146701       4.76786404       0.02112328       0.01043121       0.01488820
O        7.68573216       5.69379778       8.08777417       0.00272311      -0.00659311       0.00037841
N        6.79373562       3.75540276       7.27213004      -0.01336969       0.00556292      -0.01420693
C        6.48533521       4.30364741       5.96811384      -0.00552846       0.01634435      -0.01163223
C        6.47762484       2.35619173       7.49040457      -0.01772852       0.00428025      -0.02572706
C        7.41842506       4.50834468       8.19971848      -0.00839946      -0.00885844      -0.00901872
H        5.40732457       4.30308388       5.80198111      -0.00554162       0.03666236      -0.01134176
H        6.94037921       3.68376449       5.19382628      -0.01494361       0.01361123      -0.01480015
H        6.86172683       5.32234859       5.93372867       0.01119272       0.01049235      -0.00687853
H        5.60770352       2.08404007       6.89259297      -0.01316309       0.01010214      -0.03466009
H        6.22129239       2.21692145       8.54757920      -0.02478694      -0.00413917      -0.02824689
H        7.28981435       1.69742329       7.16008301      -0.01636878       0.00591928      -0.02428031
H        7.66606432       3.93582773       9.11305051      -0.01392557      -0.01583539      -0.01315209
O        4.19811935       7.63659053       8.76689462      -0.01234840       0.01177430       0.01139277
N        2.76282394       5.91080643       8.33823378      -0.01006836       0.00730429       0.00357261
C        1.55879497       6.67916012       8.60374409      -0.01130661       0.00252277       0.01124016
C        2.60017254       4.58976524       7.78648909      -0.00968622       0.01302252      -0.01212571
C        3.97165070       6.50842729       8.35791643      -0.01263034       0.00163090       0.00335908
H        0.89988373       6.15431353       9.29748604      -0.01209821      -0.00651595       0.00323597
H        1.02214641       6.87169013       7.67127286      -0.01042822       0.01569450       0.01370680
H        1.83889385       7.63401616       9.03540384      -0.01243442      -0.00282624       0.02487327
H        2.02896040       3.96030429       8.47658429      -0.01185046       0.00550653      -0.02076581
H        3.57834053       4.13283349       7.63236538      -0.00949064       0.01467632      -0.01522217
H        2.08111205       4.62435129       6.82324647      -0.00737622       0.02499840      -0.01293731
H        4.77490022       5.85042572       7.98423545      -0.01112294       0.01108676       0.00299020
O       12.91095231       8.75444311       9.50513711       0.01186597      -0.00387740       0.00634372
N       12.47122211      11.00061073       9.59373340       0.00766680      -0.00250879       0.00512248
C       13.46282784      11.36633844       8.60918044       0.00452119      -0.00056168       0.00226438
C       11.66861450      12.05560572      10.16705606       0.00872445      -0.00158896       0.00679624
C       12.26228738       9.70489269       9.90854936       0.00958788       0.00201595       0.00983712
H       14.13593997      12.12310779       9.01924523       0.00538529      -0.00080711       0.00107746
H       12.97024242      11.75902671       7.71453679       0.00172994       0.00072783       0.00453731
H       14.01714798      10.47158954       8.33709340       0.00405811      -0.00023156      -0.00046066
H       12.30439929      12.80971141      10.63734744       0.01059958       0.00183186      -0.00151011
H       10.99849361      11.63430682      10.91566830       0.01588482      -0.00019425       0.01392150
H       11.05501887      12.51391917       9.38408490       0.00126624      -0.00648028       0.01017827
H       11.41329907       9.59461870      10.60113027       0.01551706      -0.00082441       0.01356810
