197
Lattice="13.2378882043602 0.0 0.0 0.0 13.2378882043602 0.0 0.0 0.0 13.2378882043602" Properties=species:S:1:pos:R:3:forces:R:3 energy=-552638.3125 stress="-0.0009089240338653326 0.0002475825313013047 -0.0001836591909523122 0.0002475825313013047 -0.0011348971165716648 -0.0006016477127559483 -0.0001836591909523122 -0.0006016477127559483 -0.0009087276412174106" pbc="T T T"
N       10.07286702      12.06650177      10.68782189       0.00968897      -0.00256369       0.00865048
H       10.67686331      12.10555643       9.87614418      -0.01051182      -0.00323483      -0.00624806
H       11.11957654      11.95315281      12.13567353       0.01332971      -0.00132999       0.00396984
H        9.75078170      13.01028950      10.88478578       0.00881918      -0.00413188       0.01331124
H        9.27546492      11.49507430      10.43468559       0.00743204      -0.00828074       0.02993132
N        7.14522446      13.71352141      12.23701710       0.00398463       0.03236878       0.01460340
H        7.04548561      13.99677486      11.24919027       0.00182398       0.03549387       0.01516241
H        6.45080898      14.22221663      12.77620036       0.00775594       0.03152871       0.02064890
H        7.03315108      12.69931168      12.41851438       0.00223742       0.03222018       0.00857966
H        8.17071878      14.01890247      12.53697176       0.00819886       0.02249984       0.01202187
O       11.62118659      -0.98152939      -0.30189784       0.00024464      -0.00479621       0.01169387
O        9.56356979       1.12958269      -0.54114084       0.01278578      -0.00462073       0.00909728
O       12.11380873       1.78294779       0.68821894      -0.00367326      -0.01554751       0.01398691
O       10.27650393       0.13614070       2.07989402      -0.00259848      -0.01026216       0.01139891
W       10.90158293       0.55612239       0.51210201       0.01339297      -0.00424320      -0.00141096
O       11.49450078       8.07827364       9.11356139       0.00692556      -0.00629631       0.00246674
C       11.01918633      10.03218004       7.86678022      -0.00455910      -0.01212165      -0.00170439
C       12.53224639       9.84140163       7.94289840      -0.00355211      -0.00190896      -0.00017364
C       10.53697598       9.14117407       9.00622604       0.00070711      -0.01237965       0.00007316
C       12.61030527       8.35515324       8.25583909       0.00610569      -0.00043312       0.00343426
H       10.70123397      11.07167317       7.96278822      -0.01159422      -0.01426147      -0.00383797
H       10.63221382       9.65933705       6.91556916      -0.00154790      -0.01689900      -0.00103417
H       13.06058970      10.11978010       7.03369965      -0.00478253      -0.00098905      -0.00056961
H       12.95804786      10.42394101       8.76459828      -0.00815567       0.00288351      -0.00133109
H       10.52172021       9.67387892       9.96396099      -0.00278409      -0.01020682      -0.00124997
H        9.55345366       8.71026880       8.80773798       0.00325918      -0.01841781       0.00112708
H       12.51999415       7.76129448       7.33478006       0.01161438      -0.00315508       0.00480711
H       13.51921438       8.05384615       8.77842482       0.00725272       0.00725432       0.00532389
O        6.88175750      11.08584524       0.06900991       0.00983623       0.02194260      -0.00888556
C        6.58874202      12.03726735       2.16575293      -0.01238858      -0.01031661       0.00135827
C        7.82666595      11.14589028       2.27683941      -0.00829560      -0.00491341      -0.00151211
C        5.84601815      11.39175335       1.01843626       0.00046010       0.00343502      -0.01412074
C        8.02934881      10.63563882       0.83879058       0.00202759       0.01052126      -0.00510100
H        5.99762973      12.08844080       3.07735800      -0.02063501      -0.02798149      -0.00349191
H        6.88142095      13.05411549       1.90144101      -0.01792442      -0.00456342       0.01897564
H        8.69597626      11.69801613       2.62975301      -0.01280272      -0.00500254       0.00871783
H        7.63452073      10.31290502       2.95567989      -0.00726420      -0.01296446      -0.01141764
H        5.34012746      10.47603573       1.34083756       0.00257073      -0.00350058      -0.03177010
H        5.11548635      12.03113037       0.52009766       0.00179860       0.00739999      -0.01035602
H        8.92004170      11.04882573       0.36119174       0.00711021       0.01281334       0.00693347
H        8.07822302       9.54349482       0.79039755      -0.00094188       0.01113707      -0.01613057
O        2.40251400      10.62949425       6.96295768       0.00991687       0.00109692       0.00443280
C        3.94832851       9.01672319       6.34011185       0.00169969      -0.00154009      -0.00928378
C        4.49317123      10.36108271       5.83220735       0.00362498      -0.00090427      -0.00588492
C        2.45982512       9.30425579       6.44194248       0.00327098       0.00209174       0.00219881
C        3.42262733      11.37638201       6.29076594       0.00431436      -0.00057736      -0.00515117
H        4.18062137       8.17721569       5.68441116      -0.00598778       0.00118768      -0.01511711
H        4.33430009       8.78557261       7.33520959       0.00785802      -0.00827702      -0.01344392
H        5.48085658      10.58748690       6.23460614       0.00313792      -0.00341692      -0.00345427
H        4.56057663      10.36559588       4.74410932       0.00602333       0.00190230      -0.00561392
H        1.98000440       9.26154679       5.45384149      -0.00385343       0.00471518       0.00560927
H        1.92694707       8.64815832       7.12906284       0.00690435       0.00223084       0.00498581
H        3.79832410      12.11492790       7.00257227       0.00647104       0.00424024      -0.01168907
H        2.99178867      11.90356067       5.43261194      -0.00177625      -0.00662705      -0.00568116
O        7.26410133       1.89173399       9.77609712      -0.00281616      -0.01099897      -0.00215329
C        9.00282262       1.25724574       8.25212779       0.00202531      -0.00284022       0.00060591
C        7.74853302       0.39612959       8.08019049       0.00744009      -0.00993776      -0.00179446
C        8.65740639       2.14715005       9.46030696      -0.00292855      -0.00676253       0.00153089
C        6.67299950       1.33090498       8.59810188       0.00123841      -0.01803187      -0.00063677
H        9.89991502       0.66262886       8.41647217       0.00540526       0.00229988       0.00002033
H        9.17011140       1.86830928       7.36448213      -0.00101943      -0.00030392       0.00186092
H        7.58049489       0.05007310       7.06214405       0.00988579      -0.00694858      -0.00321603
H        7.80851712      -0.48013148       8.72994250       0.01246142      -0.01189037      -0.00518453
H        9.23317900       1.93306486      10.36170687      -0.00380035      -0.00809132       0.00183955
H        8.77547589       3.20632396       9.22341600      -0.00524035      -0.00591743       0.00478669
H        6.45690685       2.12783118       7.87425676      -0.00633549      -0.02083492      -0.00122038
H        5.73605929       0.85153162       8.88628051       0.00586297      -0.02569745       0.00106239
O       13.08812085       9.30074216       2.44326975      -0.00166351       0.00310583       0.00727470
C       11.04513779       8.14144197       2.22302186       0.00054705      -0.00142062       0.00789171
C       10.85407942       9.31631481       3.18003850      -0.00006729      -0.00428132       0.01096302
C       12.55706230       7.97855575       2.27525527       0.00127256       0.00265875       0.00261569
C       12.02315063      10.20372459       2.78540673      -0.00384992      -0.00071360       0.00903904
H       10.50761858       7.23832054       2.50946959       0.00453290      -0.00364141       0.00788352
H       10.72157794       8.41981759       1.21688374      -0.00366757      -0.00006628       0.00971690
H        9.89703237       9.81929294       3.07806423      -0.00185958      -0.00666849       0.01494921
H       10.95453332       8.97703410       4.21483003       0.00418641      -0.00618877       0.00984290
H       12.85212200       7.35643323       3.12831343       0.00562231      -0.00000697      -0.00113201
H       12.98428581       7.54526558       1.36619400      -0.00081660       0.00791714      -0.00068998
H       11.77531321      10.81473455       1.91005512      -0.00768214      -0.00073296       0.00997454
H       12.37041028      10.86482722       3.58190934      -0.00395370      -0.00110009       0.00893816
O       12.85420457       4.95507467       3.97055514       0.00027585       0.00459743      -0.00064708
C       11.04793223       3.83007303       3.03639405       0.00483686      -0.00076343      -0.00208311
C       11.46480597       3.03176286       4.27276176       0.00106081       0.00496197       0.00260545
C       12.35025847       4.52698928       2.70402314       0.00541490      -0.00107671      -0.00065762
C       12.50021498       3.95624808       4.93865173       0.00111493       0.00609392       0.00072066
H       10.69520754       3.20079024       2.22249021       0.00812585      -0.00406584      -0.00079180
H       10.28083367       4.57046142       3.28712411       0.00375484      -0.00067660      -0.00709872
H       10.63256282       2.79288172       4.93523603      -0.00075367       0.00863705       0.00151379
H       11.91627804       2.09004252       3.95592565       0.00096585       0.00354379       0.00804743
H       13.03908521       3.82461172       2.21870138       0.00787410      -0.00189739       0.00490086
H       12.23835481       5.40592163       2.07070746       0.00666355      -0.00355229      -0.00442755
H       12.09295374       4.47629285       5.81050223       0.00121118       0.00703099      -0.00006187
H       13.39712923       3.41474121       5.25503913       0.00139856       0.00691965       0.00108358
O        5.64264990       1.71630704       3.28449819      -0.00017837       0.00351357      -0.00181013
C        7.96806379       2.07283612       3.44906136       0.00005263       0.00551048      -0.00315408
C        7.39592508       2.00619069       4.86426424       0.00018147       0.00403610      -0.00324106
C        6.73169680       2.37350441       2.62687944      -0.00093973       0.00342086      -0.00268969
C        6.00309582       1.41925536       4.63945596       0.00332630      -0.00206427      -0.00399809
H        8.72403433       2.84490866       3.33945956      -0.00147787       0.00674573      -0.00340439
H        8.42151171       1.12334600       3.16115961       0.00121287       0.00603926      -0.00327866
H        8.00506789       1.38491204       5.51618595       0.00240026       0.00744754      -0.00221249
H        7.33087797       3.00693771       5.28993212      -0.00473639       0.00427517      -0.00458578
H        6.54299046       3.45008963       2.57981238      -0.00226082       0.00304496      -0.00401884
H        6.78862568       1.99512795       1.60191189      -0.00034886       0.00231250      -0.00210467
H        5.99607392       0.32965957       4.76819129       0.00990359      -0.00270110      -0.00965623
H        5.24548320       1.84587142       5.30476874       0.00191870      -0.00954461      -0.00119963
O        4.34584821       3.67979319      12.12576202       0.01113704      -0.00609591      -0.00534987
C        3.20550505       5.36684356      10.90099120       0.00776887      -0.00139540       0.00504866
C        3.43323157       4.14500459      10.01150206       0.00473933       0.00249489      -0.00065875
C        4.19641715       5.10943104      12.03224258       0.01204661      -0.00576410      -0.00016853
C        3.60827050       3.06429415      11.06441200       0.00840743      -0.00192139      -0.00611639
H        3.37600741       6.32174077      10.40473968       0.00534198       0.00073156       0.00855139
H        2.18059328       5.36160323      11.28110678       0.00928077      -0.00349621       0.00862260
H        2.61175998       3.94065222       9.32572764       0.00247975       0.00546077       0.00126644
H        4.35262469       4.25968815       9.43002024       0.00282210       0.00498554      -0.00273746
H        5.17754831       5.54336867      11.80715148       0.01129448      -0.00589451      -0.00336325
H        3.86052383       5.49788617      12.99664616       0.01656564      -0.00807653       0.00222808
H        2.63182245       2.72615790      11.43633207       0.00971359      -0.00382654      -0.00514506
H        4.17107511       2.19304235      10.72149865       0.00814575       0.00019670      -0.01171380
O        2.72738191       3.16116712       3.21084553      -0.00717122       0.00414556      -0.00110123
C        2.49578186       1.89884708       1.21611898      -0.01185530      -0.00020328       0.00278753
C        2.56350087       0.93936991       2.40553399      -0.00740719       0.00218987       0.00436851
C        3.05641679       3.18327506       1.81674662      -0.00966550       0.00064251      -0.00168335
C        2.22596175       1.86766014       3.56173887      -0.00506685       0.00452822       0.00306654
H        3.08296649       1.56807848       0.35904728      -0.01537770      -0.00213577       0.00108507
H        1.45989640       2.03181318       0.89667453      -0.01300418      -0.00097933       0.00694836
H        1.86019340       0.11247406       2.32888245      -0.00704825       0.00152922       0.00801492
H        3.57314396       0.54224828       2.52217151      -0.00687489       0.00319224       0.00236241
H        4.14497637       3.22416869       1.70813288      -0.00982636      -0.00046979      -0.00380670
H        2.62877107       4.08718251       1.37369504      -0.00973621       0.00017822      -0.00268246
H        1.13936373       1.92775038       3.70013687      -0.00461602       0.00389667       0.00565080
H        2.67878258       1.56422205       4.50980858      -0.00247017       0.00724013       0.00272441
O        6.89373720       5.19114129       4.35824690      -0.00594218       0.00420006       0.00094394
C        6.18985854       7.06247439       3.09687484       0.00051856       0.00242245      -0.00518811
C        5.10038514       5.98998531       3.06349055      -0.00055468       0.00368825      -0.00717485
C        7.40175620       6.24257075       3.51881923      -0.00194722       0.00211728       0.00088151
C        5.45932502       5.16449267       4.28448137      -0.00554612       0.00455490      -0.00521955
H        6.34710364       7.56540462       2.14309972       0.00465233       0.00002762      -0.00570828
H        5.96020491       7.81882856       3.85420997      -0.00124106       0.00436999      -0.00779864
H        4.08221369       6.36947168       3.11041772      -0.00005668       0.00536986      -0.01068962
H        5.19315826       5.38720749       2.15630738       0.00121239       0.00250196      -0.00606444
H        7.89119775       5.79766915       2.64468102       0.00060286      -0.00009233       0.00358316
H        8.14484508       6.81363172       4.08282199      -0.00363314       0.00240430       0.00257885
H        5.04306607       5.61953999       5.19479671      -0.00906469       0.00597987      -0.00781468
H        5.11818834       4.13011949       4.22765355      -0.00561154       0.00458080      -0.00538556
O        8.72671047       6.62573913      13.32370776      -0.01362185       0.00481200       0.00108770
C        8.71736573       6.35116704      11.00528461       0.00631410      -0.00574564       0.00313872
C        8.73774330       4.94904383      11.61809367      -0.00068384      -0.00325096       0.00893992
C        9.30393287       7.17286263      12.13783317      -0.00223534      -0.00146991       0.00410521
C        8.47782320       5.22421220      13.10465850      -0.00630327       0.00282359       0.00704342
H        9.28967230       6.44003630      10.08175081       0.01402625      -0.01067936       0.00763276
H        7.68813608       6.66429561      10.81255652       0.00853804      -0.00490950      -0.00676328
H        7.98614179       4.28279105      11.19526221      -0.00087914      -0.00234447       0.00785260
H        9.71695788       4.48612013      11.48125647      -0.00187778      -0.00714464       0.01529362
H       10.39876042       7.07603767      12.15347857      -0.00267714      -0.00291680       0.01433225
H        9.04989425       8.23417727      12.10152514      -0.00032359      -0.00134856      -0.00261428
H        7.43675571       5.02928502      13.38004454      -0.00583506      -0.00021124       0.00594518
H        9.12694362       4.62609738      13.75180025      -0.00492257       0.00881001       0.01102623
O        8.80594880       7.34752209       6.89126635      -0.00308774      -0.00035456      -0.01745629
C        7.73456271       5.29840770       7.46181679       0.00214434       0.00114042       0.00053129
C        9.05562454       5.00838643       6.74673848       0.00070475       0.00045556      -0.00173521
C        7.51641653       6.78086471       7.16153416      -0.00004926       0.00084054      -0.00092646
C        9.80469282       6.31674134       6.93376179      -0.00147186       0.00237805      -0.00828481
H        6.91018317       4.68811499       7.09335277       0.00187373      -0.00007701       0.00344892
H        7.83071593       5.13564192       8.53809125       0.00468570       0.00267713       0.00038025
H        9.60044123       4.16218287       7.16689108       0.00287687       0.00278574       0.00002940
H        8.86888954       4.81453018       5.69044707      -0.00123464      -0.00313913      -0.00066733
H        6.88942923       6.91549483       6.27606009      -0.00933710      -0.00001118       0.00586706
H        7.05711320       7.31648357       7.99956022       0.00967382       0.00290516       0.00299254
H       10.32505069       6.34992558       7.89859975      -0.00348389       0.00835603      -0.00735998
H       10.53132936       6.52139895       6.14399971      -0.00042823      -0.00066748      -0.00795257
O        3.05238611      10.27978873       2.69733346       0.00972858       0.01041728      -0.01760307
C        3.26265685       8.42569870       1.29328932      -0.00952390       0.00132126      -0.00760922
C        2.50581731       9.49968357       0.49887068      -0.00585744       0.00191531      -0.01026583
C        3.01511400       8.85478856       2.73202070       0.00205278       0.01109791      -0.00878507
C        2.44800666      10.69874814       1.46138581      -0.00196944       0.00475058      -0.01359850
H        2.90949129       7.41498570       1.08786997      -0.01893421       0.00324611       0.00032476
H        4.33194646       8.45818178       1.07032863      -0.01052544      -0.00898388      -0.01335016
H        3.00346165       9.73312166      -0.44174818      -0.00461940      -0.00252073      -0.01055470
H        1.49455878       9.16567768       0.27156909      -0.00650707       0.00423555      -0.01034106
H        2.03753723       8.50483859       3.08148925       0.00219047       0.01926979      -0.00086494
H        3.78486335       8.53045840       3.43182262       0.00473061       0.01058118      -0.01217875
H        3.01476737      11.56115765       1.11114522      -0.00780082       0.00564080      -0.02061456
H        1.41730756      11.00675213       1.64080012      -0.00135922       0.00179279      -0.00578043
O        4.40239126       9.20268255      10.61094032      -0.00188386      -0.00736955       0.00001714
C        6.01504975      10.27875316       9.28343454      -0.00491267      -0.00133962       0.00131702
C        6.74770485       9.44749500      10.33372364      -0.00262165       0.00181834       0.00217248
C        4.64825709      10.43733566       9.93026800      -0.00580645      -0.00638109       0.00034750
C        5.64122514       8.50573861      10.80190549       0.00067145      -0.00203958       0.00205763
H        6.49008474      11.23451791       9.06583909      -0.00818065       0.00033081       0.00163923
H        5.93968060       9.72200798       8.34760042      -0.00221089      -0.00173289       0.00146165
H        7.61000199       8.91026074       9.94046041      -0.00036584       0.00479019       0.00313401
H        7.07046457      10.07645669      11.16565402      -0.00573939       0.00391737       0.00171933
H        4.66823774      11.25988889      10.66253994      -0.00850733      -0.00660899       0.00047320
H        3.83193281      10.61018808       9.22682888      -0.00569764      -0.00867087      -0.00004187
H        5.61856421       7.59225984      10.19291702       0.00468408      -0.00271970       0.00314277
H        5.73956939       8.21996541      11.85304233       0.00083444      -0.00074472       0.00239664
