197
Lattice="14.01921017892844 0.0 0.0 0.0 14.01921017892844 0.0 0.0 0.0 14.01921017892844" Properties=species:S:1:pos:R:3:forces:R:3 energy=-2478753.5 stress="-0.0014406165573745966 0.00015679878561059013 6.052284334145952e-05 0.00015679878561059013 -0.0026456089690327644 -0.0002507766766939312 6.052284334145952e-05 -0.0002507766766939312 -0.0020932669285684824" pbc="T T T"
Bk       6.63465253      13.55263482       0.19355652       0.01587464       0.01541921       0.01276776
Bk       8.28247317      12.71629264       3.30056067       0.01276002      -0.00099069      -0.00319585
O       13.12838487      13.36318986      10.86889469      -0.00723135      -0.01065755       0.00284177
O       13.36639074      10.80258726      11.98094838      -0.01228487      -0.00534797      -0.00663854
O       10.94014233      11.60443538      10.73611436      -0.01591301       0.01704133       0.02279252
O       11.60383718      12.92091322      13.46258585       0.01501282       0.01420201       0.00496366
Mo      12.29393144      12.11563632      11.70443159      -0.00654477       0.00790429      -0.00725138
O        8.98072512      13.69640434      14.97895207       0.01685412      -0.00476341       0.01061205
O       10.89569964      11.59649862      13.61482129       0.01740039       0.00691172       0.01827788
O        9.37097904      14.16668391      12.16707281       0.00681057       0.00772992       0.02608332
O        8.07197065      11.95181244      13.17919996       0.01648076       0.00751061       0.00389576
Mo       9.48162693      12.99829790      13.40464540       0.00458002       0.01282772      -0.00290668
O        6.35646667      13.05020256       7.25335112      -0.00810999       0.00563693      -0.01921523
O        8.56996080      11.27668398       7.26492623      -0.00765300       0.00489843      -0.00447232
O        8.64654165      13.58439704       5.42223087      -0.00427181       0.01094937      -0.00744311
O        7.05480475      11.54138729       4.78501010       0.00321674       0.00307229      -0.01033318
Mo       7.63519649      12.36163883       6.29175610      -0.00351183       0.00507885      -0.00292039
S        3.07234017       7.77376715       1.30849684      -0.00402181       0.00471270      -0.01522036
O        3.12835860       9.21183847       0.87604335       0.00281696       0.00879943      -0.00844115
C        1.50545216       7.61900475       2.19523966      -0.00099659       0.00862470      -0.01036578
C        4.17783102       7.63104659       2.72081743      -0.00037229      -0.00522938      -0.02028596
H        0.71808087       7.68671276       1.44678855      -0.00427085       0.01330687      -0.00711019
H        1.42666907       8.44040411       2.90729204       0.00399898       0.00571440      -0.00719516
H        1.45645751       6.65812385       2.70743040      -0.00186784       0.00713362      -0.01375290
H        4.05985255       6.67021848       3.21913472      -0.00034748      -0.00784819      -0.02542932
H        3.96607020       8.43468695       3.42371522       0.00373410      -0.00937511      -0.01506888
H        5.19882836       7.72428220       2.35504360      -0.00125632      -0.00477669      -0.02366896
S        6.33926638      13.52748946      10.48579008       0.01338726       0.01332843       0.01078290
O        6.03113652      13.61697179      11.98418560       0.01146948       0.00864436       0.01025009
C        4.71910059      13.24672586       9.78147305       0.01520449       0.01242681       0.00499138
C        7.10018959      11.92733332      10.23679112       0.01376887       0.01538008       0.00089613
H        4.16010322      14.17285006       9.90732786       0.01423170       0.01103276       0.00469775
H        4.22836889      12.42780874      10.30710621       0.01651364       0.01225877       0.00600441
H        4.86676491      13.04884944       8.72084855       0.01441046       0.01079024       0.00500032
H        7.05383499      11.69540764       9.17387176       0.01737992       0.02392225      -0.00010367
H        6.58458065      11.18784611      10.84869411       0.00949866       0.01110394      -0.00707313
H        8.14360285      12.00151663      10.53827199       0.01246929       0.01146381       0.00671254
S        5.33906561      10.85965691       1.59601061       0.01726753       0.00216919      -0.00368688
O        6.58596412      11.73374494       1.78781532       0.01749170       0.00023413      -0.00482232
C        4.76849283      11.39913298      -0.02491350       0.00742206       0.01417050       0.00494584
C        4.07203059      11.58671570       2.63632255       0.02343225      -0.00856692       0.01031891
H        5.61431539      11.28450151      -0.70392312       0.00228190       0.01631059      -0.00151247
H        4.41909881      12.43986729       0.01136348       0.01140949       0.01504464       0.01493730
H        3.95544665      10.74563810      -0.33195093       0.00336632       0.01922774       0.00695146
H        3.15036974      11.04377428       2.43626459       0.02499637      -0.01148544       0.01360664
H        3.97212463      12.64731866       2.40745370       0.01656309      -0.00779095       0.01688144
H        4.40409915      11.45734610       3.66485699       0.03162530      -0.01275627       0.00680214
S        6.38613971       2.41010496      12.46459612       0.00070630       0.00973660       0.00843745
O        7.02410219       1.73764788      13.68338793       0.00244957       0.01277450       0.00853819
C        6.57001121       4.15633850      12.80433116      -0.00891127       0.01203060       0.00446901
C        4.62317195       2.26483775      12.73539001       0.00190437       0.00140967       0.00755158
H        7.63762268       4.36584880      12.84875639      -0.01082802       0.01948864       0.00818274
H        6.09827191       4.40244392      13.75565287      -0.01529065       0.01586790       0.00011021
H        6.10949586       4.69000970      11.97166175      -0.00763159       0.00616215       0.00015034
H        4.14076702       2.95861101      12.05063838      -0.00170275      -0.00834493       0.00058994
H        4.41756069       2.47070624      13.78401065      -0.00130644       0.00975644       0.00534919
H        4.33994584       1.24931827      12.47398322       0.01027293      -0.00260893       0.01650843
S        5.23410792       8.37515493       8.56342280      -0.00256205      -0.00650430       0.01266646
O        4.32039080       7.25523035       8.18257046      -0.00480103      -0.00305915       0.01200220
C        4.28814016       9.40482754       9.71498324      -0.00087595      -0.00027743       0.00789091
C        5.23614307       9.57994736       7.21475607       0.00843033      -0.00934091       0.01062328
H        4.13355864       8.82740878      10.62420748      -0.00962305       0.00034192       0.00646330
H        3.32764800       9.64763326       9.26162642       0.00285783       0.00684149       0.00351392
H        4.85791817      10.30440444       9.93440647       0.00414056      -0.00455665       0.01094304
H        5.90590243      10.39829695       7.48150812       0.02045906      -0.01841176       0.00602999
H        4.22648337       9.95628541       7.05269853       0.01275304       0.00314896       0.01203955
H        5.60325965       9.06307209       6.32984243      -0.00159123      -0.01692708       0.01103368
S        8.02537228       7.27938880      12.04681938      -0.00675285       0.00462376      -0.01825702
O        8.93505302       6.90051703      13.17908739      -0.00902367      -0.00147042      -0.01883280
C        8.72768772       8.71181314      11.22108545      -0.00334322       0.00596815      -0.01243825
C        6.58838033       8.10154062      12.77097148      -0.00391519       0.00657517      -0.01580638
H        9.70050502       8.40357351      10.84721664      -0.00689559       0.00400801      -0.01896172
H        8.82461859       9.54920163      11.91205152       0.00258273       0.00160266      -0.00811845
H        8.10281503       8.94579407      10.35948317      -0.00604425       0.01404927      -0.00788512
H        5.94089820       8.43752679      11.96189289      -0.00107620       0.01413315      -0.01511386
H        6.91670070       8.92450498      13.40286298      -0.00129452       0.00145862      -0.01122913
H        6.07031731       7.36233869      13.38020676      -0.00823040       0.00604151      -0.02095443
S        9.23647294       9.21524496       0.97108276      -0.00180709      -0.01162308      -0.00251532
O        7.94346345       8.73963675       1.55127423      -0.00370347      -0.00152755      -0.00980985
C       10.57166823       8.15549396       1.54285478      -0.01239333      -0.02797017      -0.00553274
C        9.66531818      10.63776065       1.99230360       0.01121667      -0.01994979       0.00355694
H       10.40588693       7.18781243       1.07853070      -0.02156015      -0.02342635      -0.00996126
H       10.55136946       8.08406529       2.63091256      -0.01352903      -0.03217990      -0.00643851
H       11.50805753       8.59107122       1.18857993      -0.00672790      -0.03669077      -0.00296422
H       10.70823013      10.91705760       1.87766425       0.01695330      -0.03424045       0.01141522
H        9.39552952      10.41700588       3.03158588       0.00296859      -0.02060114       0.00112498
H        9.04766180      11.42839607       1.57428174       0.02762901      -0.00895294       0.00382002
S        9.70843400       5.78199758       8.79473344      -0.00198293      -0.01712751       0.00498986
O        8.86572595       6.94360338       8.39234999       0.00640666      -0.01525772       0.01011139
C       10.04176134       4.77421459       7.33340095      -0.00313841      -0.01581678       0.00173503
C        8.58287506       4.60033133       9.57361591      -0.00087088      -0.02044743       0.00525561
H       10.75944947       5.32715020       6.73624172      -0.00052148      -0.01582396       0.00658268
H        9.11537933       4.60851507       6.78292039      -0.00254163      -0.01079523       0.00177782
H       10.48645508       3.83287268       7.65616749      -0.00617258      -0.01986089      -0.00240678
H        9.09471715       3.65467430       9.75072187       0.00015158      -0.02168496       0.00478481
H        7.71389631       4.47286730       8.92782250      -0.00014780      -0.02164854       0.00647023
H        8.27279121       5.04529044      10.51501034       0.00148255      -0.02237942       0.00578585
S        3.31295354       4.47417607       9.66525631      -0.00342560       0.00012946       0.00932550
O        4.50789234       3.64068255      10.06200906      -0.00868857      -0.00686473       0.00193280
C        3.23553990       5.82730461      10.83476649       0.00671968      -0.00314713       0.01416790
C        1.84308751       3.58703402      10.20070706      -0.00716615       0.00738704       0.01028705
H        4.11898892       6.42920462      10.64035912       0.00734714      -0.00475071       0.01176235
H        3.23827180       5.42716737      11.84987962       0.01193666      -0.00696801       0.01234555
H        2.31777431       6.38938599      10.65890664       0.00763357       0.00008070       0.02150605
H        0.97756624       4.22188082      10.01193071      -0.00422300       0.01286229       0.01498292
H        1.90336148       3.35511720      11.26445714      -0.00545461       0.00387078       0.01023510
H        1.79567985       2.67260433       9.61149742      -0.01413889       0.00976816       0.00884788
S       11.72759128      13.19654917       6.82643336      -0.00151062      -0.00453877       0.00186765
O       12.65100054      14.26966120       6.34056133       0.00313783      -0.00895989      -0.00241655
C       10.70703357      13.90906095       8.12611957       0.00428739       0.00490543       0.00013852
C       12.68269326      12.12358632       7.90302834      -0.00462872      -0.00544921       0.00311095
H       10.02596458      14.61040898       7.64619670       0.00807266       0.00731423      -0.00084662
H       11.36001971      14.40130103       8.84716305       0.00836326       0.00311843      -0.00215672
H       10.15405445      13.10109587       8.60653514      -0.00010982       0.00988619       0.00361850
H       12.00184044      11.42744239       8.39377554      -0.00754359      -0.00233622       0.00414022
H       13.18527188      12.73812794       8.65064403      -0.00300988      -0.00617602       0.00260276
H       13.39336650      11.57516941       7.28891569      -0.00606376      -0.00890274       0.00477108
S        7.48717571       6.81758807       5.15307876      -0.01429749      -0.00256127       0.00107706
O        5.98437924       6.88315770       5.07189830      -0.01153970       0.00162479      -0.00564775
C        8.04273322       8.51951858       4.96035378      -0.00615209      -0.00475049       0.00493138
C        8.06514461       6.22035562       3.55151963      -0.00844100      -0.00158783       0.00351489
H        8.03201559       9.00379171       5.93593013      -0.01127246      -0.00391452       0.00420780
H        7.37022494       9.01685611       4.26316007       0.00041053      -0.00244621       0.00009444
H        9.05780537       8.51827088       4.57115735      -0.00358399      -0.00877304       0.01293000
H        9.15587001       6.20885511       3.56464904      -0.00926447      -0.01607953       0.01148112
H        7.70704325       6.85727612       2.74400318       0.00529201       0.00640464       0.00354202
H        7.69441390       5.20221187       3.47547582      -0.02026455       0.00365037      -0.00494864
S        2.30472412       2.77480923       1.57858522      -0.02067757      -0.00634472       0.00146651
O        0.99487374       2.59404925       0.90597776       0.00076616      -0.01387177       0.00624138
C        2.00967068       3.26799653       3.29356468      -0.02466290      -0.00038099       0.00497341
C        2.92587580       4.39107848       1.04157900      -0.02172187      -0.00193536      -0.00029798
H        1.58679931       2.41472800       3.81885702      -0.01949356       0.00198136       0.00330117
H        1.31191673       4.10637725       3.30467663      -0.02291122      -0.00426209      -0.00220660
H        2.95908009       3.53841098       3.75575531      -0.02366364       0.00457126       0.00795123
H        3.82188770       4.67038766       1.59668142      -0.01736044       0.00046214      -0.00107524
H        2.12602399       5.11494903       1.18811961      -0.01866181      -0.00538383       0.00289499
H        3.15400682       4.31931974      -0.01924857      -0.02301669      -0.00493070       0.00341296
S        2.96109275      13.38469178       5.77402398      -0.00413689       0.01066375      -0.00771415
O        3.35020247      14.77283190       6.17388909      -0.01025966       0.00828636      -0.01827949
C        1.45485297      13.52387320       4.79032852      -0.00631928      -0.00288616      -0.00722650
C        2.17325017      12.59057040       7.18975344       0.00007275       0.01356779      -0.00333965
H        1.72279771      14.05021218       3.87522782      -0.00967512      -0.00612826      -0.01031355
H        0.68544466      14.05953801       5.35067741      -0.00677571      -0.00229366      -0.00903487
H        1.10277281      12.52098729       4.54436828      -0.00301222      -0.00463536      -0.00139005
H        1.64892539      11.69558445       6.84960107       0.00771260       0.00694597       0.00412833
H        1.47459923      13.29321070       7.64363578      -0.00556597       0.01196364      -0.00980146
H        2.95298200      12.31044709       7.89391997       0.00193155       0.02653674      -0.00027392
S       11.40816329       7.79949552       5.86582976       0.00417721      -0.01041628      -0.00944960
O       11.92512440       7.40894994       7.20726926       0.00476921      -0.02223086      -0.01012671
C       12.78247361       7.54043619       4.71507723       0.00606012       0.00422503      -0.00910750
C       11.40547095       9.59936931       5.77864422       0.00031818      -0.01050687       0.00951035
H       13.02564577       6.48014526       4.77192833       0.01029770       0.00506282      -0.01895317
H       13.61185462       8.16278340       5.05213973       0.00357451       0.00465694      -0.00389750
H       12.47610188       7.79012137       3.70071963       0.00503086       0.01236016      -0.00678839
H       11.22945017       9.90073297       4.74464953      -0.00122543      -0.00054942       0.01260319
H       12.37993907       9.94102602       6.12093861      -0.00016028      -0.01158744       0.01168296
H       10.59977516       9.96930022       6.41307729       0.00037326      -0.01770280       0.01297316
S       13.45033996       7.34248885      11.52318164      -0.00492218       0.01477849       0.00309443
O       14.21502755       6.35260642      10.68392617       0.01122165       0.02325511       0.01233053
C       12.06792815       6.41244491      12.19917984      -0.00226456       0.00267088      -0.00841296
C       12.52887030       8.36040910      10.37443244      -0.00507161       0.00494766      -0.00525838
H       12.49109942       5.67097355      12.87649062      -0.00104696       0.00671305      -0.00366591
H       11.53847243       5.91895964      11.38408421       0.01092969      -0.00302514      -0.01329602
H       11.39164576       7.07514304      12.73676243      -0.01430856      -0.00410740      -0.01634105
H       11.90420324       9.05659912      10.93111928      -0.01724077      -0.00181992      -0.01217142
H       11.96317145       7.72510285       9.69345623       0.00744366      -0.00160566      -0.00996746
H       13.26114354       8.94449766       9.82046846      -0.00596660       0.01197246       0.00127663
S        6.24217633       3.95087751       6.61032821      -0.00834015      -0.01176244       0.00490868
O        6.99209916       3.69003226       5.32220013      -0.00606847      -0.00626132       0.00554526
C        6.12276893       2.37207987       7.45227429      -0.01236174      -0.01345330       0.00027001
C        4.51777446       4.13931221       6.15636623      -0.00793487      -0.00990245       0.00363973
H        7.14388492       2.05329652       7.65838806      -0.01428147      -0.01554330       0.00476890
H        5.60810814       1.64001338       6.83081723      -0.01120958      -0.01225622      -0.00229417
H        5.58883184       2.54440587       8.38866290      -0.01640265      -0.01378512      -0.00203322
H        3.95242345       4.40260872       7.04881010      -0.00693791      -0.01324727       0.00485954
H        4.15071678       3.20796487       5.72380120      -0.00889328      -0.00826311       0.00075848
H        4.50463920       4.98096071       5.46542767      -0.00824566      -0.00767122       0.00668153
S        1.65015298       8.68500429       7.17852802       0.00898266      -0.00024468      -0.00613284
O        0.49107448       9.48530385       6.65613954       0.01147127       0.00023943      -0.01160765
C        2.56833655       8.18731468       5.71062039       0.01068816      -0.00952148      -0.00157255
C        1.09231174       7.04147144       7.63741599       0.00250855       0.00428325       0.00076132
H        2.83602356       9.11343811       5.20297975       0.01841544      -0.01273195      -0.00320598
H        1.90918575       7.59021284       5.08065100       0.00972471      -0.00748461      -0.00225658
H        3.46157806       7.63500882       5.99747032       0.00652595      -0.01336363       0.00279918
H        1.99377824       6.44804161       7.79048664      -0.00045110       0.00066608       0.00316045
H        0.46373037       6.64174283       6.84471979      -0.00014089       0.00393797       0.00319271
H        0.52404797       7.09892569       8.56314046       0.00372441       0.01083058       0.00084636
S        6.67609947       1.54431930       3.69168925       0.00993544       0.00519936      -0.02114874
O        6.56427750       0.27761116       2.79155836       0.01469204       0.01458484      -0.03440028
C        5.88057465       2.77136602       2.66400093       0.00177686       0.01722077       0.00099698
C        8.39041966       2.05154969       3.52318562       0.00573504       0.01330476      -0.01761059
H        4.85269675       2.42907233       2.53935955       0.00380136       0.01570912      -0.00839413
H        6.38885864       2.79111127       1.70123664       0.00269869       0.04405649       0.00343363
H        5.91486271       3.72317524       3.18777984      -0.00708395       0.00529425       0.02036621
H        8.45160940       3.12827986       3.62944264       0.00432383       0.00969341       0.01244074
H        8.73180186       1.72425244       2.54175527       0.00172368       0.04128671      -0.02755620
H        8.93683329       1.57889543       4.33602459       0.01300049      -0.00453460      -0.03325164
