197
Lattice="13.599201897262589 0.0 0.0 0.0 13.599201897262589 0.0 0.0 0.0 13.599201897262589" Properties=species:S:1:pos:R:3:forces:R:3 energy=-2139600.25 stress="0.0010616554645821452 -0.0008464264683425426 -0.0005630120867863297 -0.0008464264683425426 0.001394205610267818 -0.00038200618291739374 -0.0005630120867863297 -0.00038200618291739374 0.0023883646354079247" pbc="T T T"
Dy       9.05907247      11.25678271       9.20004936       0.00437319      -0.00285667      -0.00049412
Dy       9.35271887      13.74083984       2.49164170      -0.00250989      -0.00559166       0.00274828
O       10.94966624      12.17988327       5.57754090       0.00330037      -0.00563511       0.01072931
O       10.38270214       9.96470169       7.54186814       0.00865355       0.00367582       0.00083834
O       11.04081399      12.38632373       8.55810840       0.00541061      -0.00596166      -0.00575358
O       13.10130636      10.93122316       7.09013686       0.02606213      -0.00645944      -0.00259621
W       11.43578555      11.38618854       7.11157627      -0.02856261       0.01090721       0.00108331
O        7.89774932      10.61373588       4.82398165      -0.00099762       0.00659293       0.00238675
O        8.32825936      12.17731054       7.25253540      -0.00540917      -0.00085141       0.00136009
O        5.95357622      12.41284199       5.74668716      -0.01046944       0.00093681       0.00038683
O        8.25341807      13.47207389       4.38457133      -0.00049343       0.00262123       0.00471750
W        7.66095431      12.17844232       5.55924318       0.01014864      -0.00711781       0.00265094
O        6.63743743      11.55394878      -1.17433060      -0.00046706      -0.00875153      -0.00070246
O        9.14157448      12.23990721      -2.31347907       0.00023952      -0.00473738       0.00429743
O        9.01959442      10.45914484      -0.09944418       0.00111333      -0.00857574       0.00128770
O        8.43484972      13.24077384       0.50629588      -0.00506975      -0.00926462       0.00385659
W        8.30448690      11.89971240      -0.74601253      -0.00032283      -0.00654030       0.00027439
O        1.49056429       0.05502591      11.84828705      -0.01612085       0.00896853      -0.00488120
C        2.02726721       1.29620349      12.30484026      -0.00081184       0.00057554      -0.00146179
C        2.58927313       2.08859095      11.13438936       0.00290191      -0.00044358      -0.00036496
C        0.97892188       2.07969327      13.07971578       0.00940078       0.00664082       0.00543168
H        2.84216528       1.01610683      12.97954867      -0.00149590      -0.01054791      -0.00547826
H        2.98979830       3.05065670      11.46361089       0.01167824      -0.00478543       0.00133281
H        3.38790394       1.53612682      10.63873938      -0.00301117      -0.00544566      -0.00435094
H        1.79195230       2.29070907      10.41769978       0.00267932       0.00743446       0.00215971
H        1.39836123       2.99168944      13.51119314       0.01920544       0.00095725       0.00748784
H        0.57575390       1.47215595      13.89151299       0.00672909       0.00705482       0.00453404
H        0.16337380       2.36586171      12.41421283       0.00969344       0.01584990       0.00907518
H        0.76535262       0.26966667      11.24832057      -0.01430729       0.02040784      -0.00280419
O        4.14946111       3.34083400       5.08986191      -0.01211739       0.01178193       0.00529653
C        3.33925060       2.16333487       5.36221964      -0.00584190       0.00803870      -0.00003040
C        1.88008734       2.45483107       5.08683774      -0.00734162       0.00000769      -0.00170875
C        3.89104390       1.01794794       4.54701752       0.00295022       0.01498222      -0.00405025
H        3.45939498       1.93737172       6.42758655      -0.00598436       0.00307962      -0.00095296
H        1.27032590       1.59119875       5.35079286      -0.00299508      -0.00452015      -0.00603692
H        1.53868726       3.30253208       5.68609864      -0.01300252      -0.00441438       0.00152755
H        1.72264552       2.67047565       4.02788184      -0.00651681       0.00432898      -0.00082298
H        3.37991340       0.09293388       4.81730696       0.00887997       0.01084243      -0.00754074
H        4.94873796       0.85435390       4.74984944       0.00386086       0.02123348      -0.00351615
H        3.75202863       1.20452066       3.48019858       0.00258226       0.01691937      -0.00352976
H        3.55390690       4.09104047       4.99245880      -0.01567152       0.01483139       0.04297959
O        8.46189073       2.49265218       2.57989242      -0.00627971      -0.00686008      -0.00749308
C        8.71812207       3.54211989       3.59881433      -0.00372675      -0.00992246      -0.00517017
C       10.05275511       4.14931151       3.25539954       0.00020641      -0.01605938      -0.00151290
C        7.56903801       4.52212763       3.58308056       0.00186574      -0.00319391      -0.00648082
H        8.76552840       3.02821953       4.56466297      -0.00874595      -0.01173201      -0.00599623
H       10.32282980       4.89773191       4.00079869       0.00191305      -0.01718730      -0.00101824
H       10.85100979       3.40235773       3.23728658      -0.00277941      -0.01951295       0.00093547
H       10.01596592       4.63894089       2.28297453       0.00499415      -0.01648640      -0.00187881
H        7.70763432       5.29633548       4.33869218       0.00458427      -0.00497480      -0.00507641
H        6.61830861       4.02645616       3.79783506      -0.00175481       0.00230476      -0.00943036
H        7.49864564       5.01697088       2.61295116       0.00704793      -0.00160931      -0.00606358
H        7.50390062       2.35939224       2.56981655      -0.00645745      -0.00495383      -0.00820995
O       12.94505298       2.17899483      10.05025674       0.00383944      -0.00308945       0.00709528
C       12.67501312       2.12293273       8.64652910       0.00279346       0.00105184       0.00699973
C       13.43521226       0.93028535       8.10223884       0.00422654       0.00263500       0.00290935
C       11.17739087       2.04507527       8.38672564       0.00323093       0.00114021       0.00698909
H       13.06866461       3.03140860       8.16680767       0.00299066       0.00262719       0.00944561
H       13.22620165       0.79337781       7.03969169       0.00297910       0.00626130       0.00252379
H       14.50992170       1.07205765       8.22741026       0.00367557       0.00281299       0.00277887
H       13.13168354       0.02324103       8.62325645       0.00420922       0.00099687       0.00047570
H       10.97460395       2.04759915       7.31320392       0.00278009       0.00538736       0.00704840
H       10.66847442       2.90511031       8.82938011       0.00291790      -0.00076140       0.01075377
H       10.77225354       1.12647584       8.81011117       0.00382610      -0.00084049       0.00354200
H       12.45483060       2.92647890      10.43730203       0.00398336      -0.00274689       0.00846486
O       11.54815932       4.21604056      11.48224718       0.00215459       0.00052631       0.00170395
C       10.36806481       3.76451977      12.15583222       0.00196308       0.00108929       0.00227773
C       10.75768914       2.60298340      13.05850195       0.00204721       0.00173074       0.00304222
C        9.73580821       4.90846827      12.92844399       0.00222141       0.00187087       0.00170135
H        9.65049152       3.39524215      11.40845742       0.00172675       0.00071776       0.00256693
H        9.86147851       2.20470836      13.54720925       0.00201866       0.00329774       0.00450477
H       11.21769366       1.79944683      12.48145703       0.00096706       0.00079624       0.00342236
H       11.46657278       2.94248071      13.81775245       0.00299202       0.00201375       0.00221401
H        8.85709972       4.56592751      13.47796637       0.00243978       0.00218493       0.00242402
H        9.43030849       5.70826537      12.25202693       0.00157620       0.00120725       0.00103873
H       10.45532101       5.31672070      13.64144204       0.00254317       0.00267901       0.00105344
H       11.38386672       5.10774457      11.11822571       0.00165339      -0.00032461       0.00002428
O       11.62155811       7.60172045       7.85957425       0.00327009      -0.00482771      -0.00019103
C       11.13653878       6.80143061       6.77682195       0.00352764      -0.00086844      -0.00245634
C       11.78328815       5.43985913       6.90967311       0.00139955      -0.00220609      -0.00190498
C        9.61914969       6.74238160       6.80993278       0.00330091       0.00147522      -0.00691749
H       11.45722899       7.26576773       5.83433850       0.00706659      -0.00066635      -0.00139314
H       11.45551545       4.77283780       6.11115716       0.00253097      -0.00129477      -0.00358059
H       12.86992387       5.52018181       6.87225424       0.00156769      -0.00391670       0.00090099
H       11.50330250       4.98640426       7.86249665      -0.00204387      -0.00280873      -0.00316676
H        9.22695364       6.12190157       6.00183926       0.00452897       0.00255013      -0.00838616
H        9.19295085       7.73980046       6.70065720       0.00505017       0.00213149      -0.00708697
H        9.28967498       6.31788891       7.76082889       0.00016504       0.00104869      -0.00797752
H       11.22892522       8.50011507       7.74372212       0.00183289      -0.00033040      -0.00035349
O       -0.13431153       5.47583611       2.03815852       0.00016251      -0.00627260      -0.00160015
C        0.98747212       5.99642226       2.76946249      -0.00071979      -0.00360668      -0.00248283
C        2.27566630       5.31946103       2.33271328       0.00169480       0.00366738      -0.00644124
C        1.07622510       7.50626861       2.64164319      -0.00870483      -0.00256687       0.00196318
H        0.76886170       5.73133038       3.80812822       0.00260690      -0.00796182      -0.00266927
H        3.12042309       5.64895360       2.94147764       0.00115356       0.00456530      -0.00628434
H        2.19632731       4.23506595       2.40228511       0.00667889       0.00301760      -0.00944395
H        2.51147121       5.57887032       1.29756594      -0.00146620       0.00821887      -0.00613509
H        1.89106033       7.89458149       3.25536533      -0.00901917      -0.00066455       0.00138770
H        0.14737204       7.97846218       2.95960192      -0.01026180      -0.00889013       0.00701711
H        1.28322484       7.80319063       1.61035554      -0.01456767       0.00197351       0.00204900
H       -0.00766925       5.71639780       1.11435361       0.00033785      -0.00762229      -0.00227468
O        6.69029270      10.98010062       9.82415138       0.00120427       0.00426292      -0.00253427
C        5.75657028      11.94398695       9.23596748      -0.00330503      -0.00097603      -0.00183457
C        4.36998408      11.72036322       9.79722117      -0.00315297      -0.01127735      -0.00433314
C        6.25979949      13.34924089       9.49886848      -0.01312652       0.00206321       0.00100075
H        5.77904874      11.74317701       8.16390064      -0.00109205       0.00121413      -0.00235182
H        3.66020138      12.39892930       9.32202515      -0.00654855      -0.01412317      -0.00390697
H        4.03761458      10.69693983       9.62392347       0.00453783      -0.01340400      -0.00776575
H        4.35857680      11.91745030      10.87044090      -0.00560049      -0.01327665      -0.00378811
H        5.58664225      14.07761693       9.04701730      -0.01781042      -0.00107333       0.00220991
H        7.24582924      13.50275079       9.05318230      -0.01349743       0.00779846       0.00308926
H        6.31402073      13.53798779      10.57228369      -0.01571304       0.00000964       0.00184529
H        6.59123178      11.08662275      10.80955208       0.00042246       0.00100347      -0.00235088
O        2.57041290      10.16861182       0.98392258       0.00118584      -0.00293794       0.00042707
C        2.90596420      10.99600762       2.10403033       0.00024843      -0.00131124      -0.00067171
C        4.40564929      11.22105655       2.19671900       0.00011247      -0.00037396       0.00006972
C        2.12378035      12.29758961       2.05378746      -0.00082362      -0.00190020      -0.00215101
H        2.57692667      10.41708280       2.97168930       0.00010005      -0.00096479       0.00006199
H        4.65687675      11.78629498       3.09727178      -0.00063219       0.00024332       0.00012095
H        4.93651414      10.27038472       2.23509559       0.00087550       0.00016477       0.00045876
H        4.76364522      11.77768771       1.32581724       0.00001105      -0.00001101       0.00001001
H        2.35402316      12.92192686       2.91573855      -0.00263977      -0.00112325      -0.00194691
H        1.05257171      12.10358377       2.04568402      -0.00069815      -0.00290006      -0.00392066
H        2.37779851      12.85755487       1.14985115       0.00008251      -0.00196832      -0.00212106
H        2.83171713      10.64578951       0.18949816       0.00353917      -0.00442413      -0.00039858
O        4.67421913       3.85068546      13.82633519       0.00602239      -0.00916521       0.00476830
C        5.85319431       4.29357120      13.15022586       0.00351371      -0.00354326       0.00408792
C        6.12586561       3.45759073      11.91202037       0.00555191      -0.00102669       0.00260967
C        5.77991920       5.77837066      12.83427569      -0.00263297      -0.00334287       0.00622034
H        6.64944251       4.12322867      13.88105521       0.00499332      -0.00151914       0.00301945
H        7.08191705       3.73068128      11.46031951       0.00424527       0.00310427       0.00217744
H        6.14287976       2.39577429      12.15931319       0.00957391      -0.00141145       0.00122195
H        5.34794276       3.62466135      11.16248681       0.00421250      -0.00290465       0.00337452
H        6.71506935       6.12898279      12.39361857      -0.00418523       0.00071421       0.00588454
H        5.58274922       6.35502184      13.73686318      -0.00420743      -0.00507072       0.00697595
H        4.97938931       5.97495457      12.11566166      -0.00378184      -0.00547232       0.00668182
H        3.94107249       3.90435826      13.20397642       0.00380701      -0.00660771       0.00778586
O        6.45391126       8.13303981       5.04451362       0.00787741      -0.00329664       0.00633657
C        5.53644936       8.32996976       6.11339781       0.00858027      -0.00203896       0.00326687
C        6.27386008       8.70888869       7.39510222       0.00196728       0.00636277       0.00414366
C        4.46169048       9.34932757       5.74684642       0.00327742      -0.00842965      -0.00171307
H        5.06176672       7.35217692       6.25696990       0.01095957      -0.00317246       0.00723024
H        5.58525747       8.90169905       8.21928957       0.00032917       0.00241790       0.00385047
H        6.95964889       7.91381527       7.69141108       0.00790163       0.01203881       0.00617217
H        6.85721975       9.61896928       7.22404965      -0.00450867       0.00975439       0.00362752
H        3.67982694       9.40180704       6.51143830      -0.00878987      -0.00575678       0.00350837
H        3.99562315       9.07073017       4.80050659       0.00259624      -0.01584572       0.00042965
H        4.89576834      10.34589078       5.63926572      -0.00275248      -0.00586611      -0.00486066
H        6.93864940       8.96813226       4.90578348       0.00733703       0.00189537       0.00449225
O       11.07109083       6.86461244      10.42312441      -0.00280225      -0.00237590      -0.00130790
C       10.84782630       8.12739870      11.05540004      -0.01275614      -0.00389111      -0.00168356
C       12.02454028       9.06921918      10.85111991      -0.01745749       0.00404361       0.00303753
C        9.53532474       8.74739554      10.56464415      -0.01392692      -0.01048071      -0.00596114
H       10.73958410       7.91402376      12.12194690      -0.01485908      -0.00490889      -0.00183624
H       11.85646809      10.01596178      11.37017905      -0.02760292       0.00158426       0.00443293
H       12.93976294       8.62161753      11.24233841      -0.01581784       0.01033065       0.00450277
H       12.18069288       9.28469478       9.79129995      -0.01174662       0.00369269       0.00336745
H        9.36923993       9.68278866      11.11613294      -0.02167554      -0.01308551      -0.00383400
H        8.68488510       8.09490391      10.76718212      -0.01162785      -0.01560993      -0.01214623
H        9.60011455       8.89124171       9.47637008      -0.01003792      -0.00645350      -0.00495642
H       11.28943193       7.05033044       9.47751974      -0.00138127      -0.00125749      -0.00045133
O       11.38175714      12.73652702       3.24651987       0.00118536       0.00333765      -0.00081196
C       11.12183413      11.57699827       2.41597634       0.00466033       0.00462344       0.00072166
C       11.65775981      11.89944570       1.03552234      -0.00521755       0.01286341      -0.00146908
C       11.67214907      10.31100693       3.02887268       0.01762873       0.00630236      -0.00739509
H       10.01863229      11.40901222       2.33060317       0.00570637      -0.00394243       0.00645059
H       11.37189886      11.12450781       0.32711931      -0.00190759       0.01300041      -0.00294584
H       11.25375792      12.85285842       0.66033085      -0.01490414       0.01066443       0.00376016
H       12.74148698      11.99977235       1.06604759      -0.00626205       0.02240455      -0.00587665
H       11.51624439       9.47869167       2.34163765       0.01552784       0.00591899      -0.00625725
H       11.15153567      10.09068546       3.96055346       0.02756280       0.00358476      -0.00290343
H       12.73802697      10.41772218       3.23087164       0.01915208       0.01200024      -0.01755317
H       11.26190259      12.47012908       4.27801636       0.00063175       0.00019848       0.00401346
O        4.86579881       3.67699368       7.73497171      -0.00017667      -0.00358100       0.00272650
C        6.18759055       3.23584272       8.05801049       0.00241762       0.00263126       0.00202315
C        6.70332480       2.25890275       7.01478536       0.00445962       0.00415516       0.00152564
C        7.11308151       4.42859897       8.22494970      -0.00277606       0.00715417      -0.00051782
H        6.10124884       2.72145689       9.02018594       0.00589427       0.00310913       0.00245196
H        7.69120806       1.88316675       7.28962095       0.00577274       0.00696156       0.00007216
H        6.03633646       1.40373626       6.89884644       0.00618540       0.00229418       0.00257772
H        6.78415243       2.75700380       6.04548769       0.00143849       0.00442274       0.00125812
H        8.10843118       4.10525347       8.53953966      -0.00116819       0.01172302      -0.00089770
H        6.71683177       5.11958814       8.97042332      -0.00519528       0.00629748      -0.00084588
H        7.20949212       4.96657674       7.27997945      -0.00580034       0.00661147      -0.00124478
H        4.76187592       3.66247865       6.76314422       0.00089560      -0.00338831       0.00280424
O        2.33422151       5.00381407       7.68422665       0.00025842      -0.00326872      -0.00213426
C        1.88750288       5.99980821       8.60980614       0.00434567       0.00004017      -0.00367022
C        0.92201063       5.41228742       9.62815041       0.00525844       0.00471622      -0.00024736
C        3.06507595       6.68199507       9.28530478       0.00729918      -0.00025940      -0.00918075
H        1.34489915       6.73336917       8.00565955       0.00391278      -0.00064099      -0.00513363
H        0.48289504       6.19900566      10.24469787       0.00830784       0.00711739      -0.00103611
H        0.11050996       4.88834458       9.12696315       0.00269231       0.00549323       0.00298940
H        1.42954637       4.69833801      10.27890433       0.00516918       0.00493056       0.00033797
H        2.71959644       7.46752561       9.95985713       0.00778986       0.00258373      -0.01120025
H        3.74107744       7.12078995       8.55154133       0.00580083      -0.00502847      -0.01306850
H        3.62808592       5.95424593       9.87751694       0.00886747      -0.00128101      -0.01200020
H        3.15063910       4.60052621       8.01790300      -0.00034567      -0.00525756      -0.00053997
