197
Lattice="13.449218832000422 0.0 0.0 0.0 13.449218832000422 0.0 0.0 0.0 13.449218832000422" Properties=species:S:1:pos:R:3:forces:R:3 energy=-1019673.875 stress="-0.0008160417200997472 0.000288336887024343 0.0007597184448968619 0.000288336887024343 -0.000227568278205581 -0.00038645576569251716 0.0007597184448968619 -0.00038645576569251716 -0.0019068095134571195" pbc="T T T"
Er      10.03579347      11.57702719      -0.85509951      -0.00831823       0.00430533       0.00576989
Er       5.36421185      11.63076766       3.65907765      -0.00578241      -0.01420055       0.00354074
O        7.59081116       8.66156015      11.26992006       0.00435793       0.01801530      -0.01767030
O        4.86780166       9.34746801      11.05071361      -0.00468293      -0.00991280       0.00887078
O        5.81146974       7.48520484      12.84660688       0.03430608       0.00786382       0.00706065
O        5.79160881       6.93608121      10.29884338       0.01138240      -0.00441909       0.01027119
Cr       6.06065614       8.05970936      11.38813370       0.01107776       0.00407588       0.00103706
Cr       4.65387637      10.85222210      11.88749218      -0.00245893      -0.00309908      -0.00384404
O        3.31396052      11.54165955      11.42353436       0.00137544      -0.00198078      -0.01238418
O        4.60707651      10.56228274      13.49638390      -0.00762898       0.00894767      -0.00108492
O        5.93421687      11.81512075      11.59087302       0.00033522      -0.00906229      -0.00970611
O        9.48026838      11.91889787       6.07296244       0.02108777       0.02408414      -0.01078121
O        6.97681339      11.37440054       7.02808809       0.02484702      -0.01202593       0.00270315
O        7.42451649      11.68607768       4.35906633      -0.00305190       0.00038868       0.01147360
O        7.62446646      13.78663558       5.91949432      -0.02562391      -0.00625718       0.00180707
Cr       7.95019661      12.21065646       5.83484401      -0.02928919       0.00548053      -0.00591683
Cr       5.27506579      10.88103695       7.08392885       0.01692927       0.00593254       0.01452857
O        4.46159196      11.95260253       7.90172985       0.02927893       0.02269590       0.01266932
O        4.72067200      10.83506753       5.49414978       0.00288120       0.00314485       0.01381725
O        5.19845320       9.46682949       7.78511520      -0.00158280       0.00751984       0.02019399
O       13.56944979       7.77857010       1.99894943      -0.00840938      -0.00358698       0.01498473
O       11.73598415       9.80634445       2.50074589      -0.00622474       0.00286588      -0.00138310
O       12.15184340       7.67007650       4.21424971      -0.02573301       0.00325465       0.00331450
O       11.01952394       7.17995898       1.88013715      -0.00979733       0.00365746      -0.00361085
Cr      12.13575680       8.02933143       2.65248443      -0.01293316       0.00026202       0.00409129
Cr      11.59869611      11.48396307       2.31893219      -0.01590993      -0.00302240      -0.00818896
O       10.18413962      11.98726950       2.93187397      -0.03465897      -0.00756463      -0.02881724
O       12.80003289      12.25572362       2.99219082      -0.03548944       0.01239997       0.01105428
O       11.54322183      11.81667749       0.66485442       0.01270266      -0.00564197      -0.00406444
O        8.71130525      11.84608427       0.88683113      -0.00351020      -0.00062602      -0.00002760
C        7.29620695      11.55335898       0.93972615      -0.00018355       0.00084816      -0.00244240
C        7.08262747      10.28274973       1.74782721      -0.00417823       0.00318342      -0.00611565
C        6.60586872      12.82006402       1.41328751      -0.00273831      -0.00529253       0.00627382
H        6.98701476      11.36955129      -0.08664025      -0.02025409       0.00598313       0.00426781
H        6.01604726      10.03087484       1.80990634      -0.00544706       0.00906169       0.00333192
H        7.51999656       9.43011118       1.22517966      -0.01292789      -0.00304347      -0.00592768
H        7.56081490      10.33644567       2.72542486      -0.00322679      -0.00867791      -0.00678901
H        5.51541503      12.72845642       1.38574578      -0.00496405      -0.00486425       0.01822404
H        6.84141101      13.63335709       0.72358879      -0.01146088       0.00785327       0.01447958
H        6.97581066      13.14051537       2.39298770      -0.00394199      -0.00417362       0.00724059
H        9.14838129      11.90164255       1.80882966       0.02068853      -0.00032236       0.01404679
O        5.44593855       0.37272372       4.37786788      -0.02200699      -0.01297646      -0.00087592
C        4.46209685       1.42525092       4.62474995      -0.01499617      -0.00846464       0.00434318
C        3.33268172       0.85585723       5.45692234      -0.01392120       0.00025281       0.01160073
C        5.13656941       2.61784672       5.27004344      -0.00205281      -0.01369530      -0.00049108
H        4.09466491       1.70742491       3.63289393      -0.02009150      -0.00565854       0.00611949
H        2.56401439       1.61093481       5.62578872      -0.00307336       0.00921899       0.02352938
H        2.86375412       0.00764551       4.95250185      -0.02860076       0.00904950       0.01172982
H        3.70468216       0.51416759       6.42385461      -0.00795016      -0.00824587       0.00625184
H        4.40835153       3.42142479       5.38848666       0.00493155      -0.00884102       0.00812676
H        5.96014887       2.99251164       4.66102726      -0.00415201      -0.01895612      -0.00694385
H        5.52528961       2.36270018       6.25731543       0.00606016      -0.01887228      -0.00449961
H        6.23563543       0.51339656       4.96962249      -0.02216390      -0.01690806      -0.00103502
O        8.64252518       4.36152588       2.46757954      -0.00127822       0.00038064      -0.00235245
C        7.53983681       3.68613642       1.86596726      -0.00178027       0.00547481      -0.00723457
C        6.33276886       4.59248760       1.68367193       0.00109363       0.00894213      -0.00634836
C        7.95270975       3.03468227       0.55546246      -0.00068027       0.01136228      -0.00948745
H        7.29070445       2.89875735       2.58592014      -0.00470448       0.00284851      -0.01099810
H        5.48263054       4.01426022       1.31396469       0.00065337       0.01318384      -0.01154717
H        6.05281383       5.05311546       2.63000093      -0.00019253       0.00610630      -0.00537167
H        6.52967880       5.38531098       0.95722235       0.00590920       0.01125196      -0.00241044
H        7.12079493       2.48232360       0.11386879       0.00047067       0.01143250      -0.01154936
H        8.78625334       2.35043994       0.71853352       0.00025687       0.01179160      -0.01226867
H        8.25788349       3.80095853      -0.16113980      -0.00308878       0.01564230      -0.00596023
H        8.89779406       5.10875515       1.91367679       0.00017484       0.00291637       0.00112654
O       13.78347012       2.73406239       7.09593349       0.01016284      -0.00728846      -0.00882816
C       12.87136423       1.62023244       7.01515651       0.01238722      -0.00869007      -0.00881261
C       13.02685094       0.73835264       8.24006206       0.01255192      -0.00701255      -0.00776899
C       11.44053144       2.08068740       6.82088160       0.01145184      -0.01238632      -0.01155475
H       13.20285595       1.07530671       6.12876309       0.01481047      -0.00951022      -0.00762987
H       12.34788475      -0.11283669       8.17881325       0.01456466      -0.00854106      -0.00758113
H       14.04671665       0.37014021       8.34395842       0.01317784      -0.00490403      -0.00610194
H       12.77502183       1.30819455       9.14086997       0.01021065      -0.00695603      -0.00839571
H       10.79295318       1.24074782       6.56338043       0.01408430      -0.01560457      -0.00743902
H       11.37413552       2.82692718       6.02966233       0.00981082      -0.01538450      -0.01446483
H       11.04184586       2.52946924       7.73333993       0.01048962      -0.00947190      -0.01340558
H       13.52819628       3.27731953       7.85043349       0.01021492      -0.00810968      -0.00865400
O       10.93623101       0.14554287      11.79140259       0.01271741      -0.00494298      -0.00024670
C       11.27393121       1.41282905      12.46119254       0.00913063      -0.00330116       0.00091177
C       12.76595479       1.48556218      12.63668297       0.00828701       0.00340844       0.00385404
C       10.68301798       2.54719700      11.65378139       0.00699814      -0.00186267       0.00534320
H       10.78696925       1.34900946      13.43671445       0.00920995      -0.00511071       0.00097665
H       13.04093710       2.39303156      13.17434201      -0.00207970       0.00143780       0.01189407
H       13.11253039       0.62241734      13.20232186       0.01290983       0.00287859      -0.00028877
H       13.28287318       1.50409830      11.67727417       0.01240750       0.01442100       0.00656384
H       10.88285814       3.50211443      12.13974102       0.00182302      -0.00571509       0.01466210
H        9.60339272       2.43718158      11.54485894       0.00766665      -0.00440465       0.00125901
H       11.13562571       2.58414194      10.65787994       0.01034132       0.00776199       0.00752737
H       10.86151640       0.32762202      10.84624547       0.00374535      -0.00499028      -0.00003362
O        8.78980607       3.97957317       7.36758607       0.00528571      -0.00529817      -0.00837290
C        9.24921041       4.82703241       8.42805606       0.00605641      -0.00957292      -0.00529841
C       10.57901669       5.46654765       8.07433886       0.00493109      -0.00668752      -0.00480092
C        8.19157281       5.84898536       8.80728798       0.00543761      -0.01262116       0.00077623
H        9.38260724       4.13853163       9.27121649       0.00834438      -0.01331353      -0.00887752
H       10.97767248       6.03534619       8.91110794       0.00878302      -0.01583890      -0.00033495
H       11.31332688       4.72033421       7.77584763       0.00277220      -0.00431253      -0.01565640
H       10.47021248       6.16725779       7.24457530       0.00226220       0.00166251       0.00268167
H        8.42827978       6.35153618       9.74459255       0.00876821      -0.01267717      -0.00011291
H        7.21737449       5.37866467       8.92621227       0.00706588      -0.01492004       0.00508963
H        8.11210370       6.62374191       8.04058394      -0.00038099      -0.01235570       0.00183873
H        8.81189867       4.49632167       6.55587480      -0.00428996       0.00063787      -0.00449343
O       -0.11084237       4.86574644       5.26631264      -0.00748366      -0.00913905      -0.00276613
C        0.45287949       4.88682246       3.95931126      -0.00740170      -0.00448512      -0.00252682
C        1.68408591       5.77897444       3.91059560      -0.00811255      -0.00357020       0.00001189
C        0.75815392       3.47516680       3.47886176      -0.00684771      -0.00271535      -0.00741658
H       -0.30864487       5.33377370       3.31376293      -0.00788224      -0.00299492      -0.00086752
H        2.04588788       5.88236005       2.88606793      -0.00813658      -0.00075654       0.00042030
H        1.43585398       6.77406222       4.27539058      -0.00888297      -0.00478886       0.00264544
H        2.48192384       5.36130825       4.53055509      -0.00797798      -0.00460774      -0.00103813
H        1.14251980       3.48837798       2.45691366      -0.00842265       0.00135447      -0.00781772
H       -0.13179584       2.84474031       3.50901260      -0.00640011      -0.00332078      -0.00822873
H        1.52116395       3.01660067       4.11572834      -0.00562097      -0.00448814      -0.01025873
H        0.20717589       4.08600667       5.74491409      -0.00134498      -0.00688763      -0.00332811
O        8.39143110      12.11444453      11.07605907      -0.00184403       0.01735727       0.00475243
C        8.31175065      12.38650292       9.63306779       0.00272450       0.01441762       0.00217940
C        7.23733016      13.41978421       9.36535639       0.00762928       0.01931781       0.00369434
C        9.66632727      12.84249905       9.14507367       0.00474882       0.00640452      -0.00038375
H        8.05244677      11.43877992       9.15597845      -0.00131752       0.01393223       0.00614765
H        7.29783010      13.75592937       8.33076701      -0.00295018       0.01129619       0.00080667
H        6.24255388      13.01759328       9.54226176       0.00813285       0.02650896       0.01956386
H        7.38713007      14.28327801      10.01716031       0.02258926       0.02217144      -0.00373091
H        9.70716361      12.79925470       8.05905459       0.00094369      -0.00154271       0.00022921
H       10.47457115      12.19653205       9.50659069       0.00428494       0.00638942      -0.00030022
H        9.84344250      13.88785604       9.42055745       0.00994746       0.00798218      -0.00996611
H        7.42061538      11.94670621      11.33586014      -0.00464927       0.01330439      -0.00266975
O        3.69264722      11.42029986       2.19393803      -0.01016581      -0.01227800       0.00431868
C        2.32424907      11.88292903       1.90673628      -0.00868691      -0.00816882       0.00607702
C        2.39864299      13.14998259       1.07714882      -0.00644159      -0.00205332       0.01562902
C        1.57192432      10.76789565       1.21608904      -0.00915363      -0.00142938      -0.00390077
H        1.87632131      12.09499125       2.87830852      -0.00963461      -0.01422928       0.00732827
H        1.39743740      13.56718181       0.97122552      -0.00570716      -0.00000617       0.01787835
H        3.02809364      13.90292713       1.55990412      -0.00562449      -0.00630420       0.02095386
H        2.78801019      12.94299361       0.07832341      -0.00592633       0.00436568       0.01468340
H        0.58236279      11.12285265       0.93312442      -0.00905041       0.00104830      -0.00017596
H        1.45782185       9.89536714       1.85838774      -0.00797686      -0.00796139      -0.01290143
H        2.08972700      10.47196693       0.30299849      -0.00950158       0.00866436      -0.00709756
H        4.02506502      11.03521904       1.28752581      -0.00839334      -0.00367032       0.00085053
O        2.20505442       2.73497744      12.00587549       0.00963294       0.00537097       0.01278466
C        2.34206518       4.02905789      11.39980922       0.00789968       0.00402838       0.00947201
C        1.10015279       4.87523646      11.64065499       0.00748366       0.00359315       0.00827219
C        3.60646685       4.71904051      11.87100071       0.00752538       0.00591481       0.00719637
H        2.41996985       3.81045032      10.33282571       0.00741442       0.00150046       0.00998425
H        1.18766615       5.83787033      11.13518889       0.00700656       0.00288899       0.00693502
H        0.20867807       4.36597153      11.26911454       0.00753945       0.00259645       0.00968522
H        0.96662746       5.07028611      12.70758766       0.00777483       0.00490760       0.00796205
H        3.77454903       5.66003463      11.34783277       0.00682956       0.00440741       0.00443864
H        4.47663470       4.08381212      11.70475774       0.00787142       0.00600991       0.00869234
H        3.53986975       4.94899408      12.93845856       0.00764580       0.00843075       0.00654885
H        2.36612536       2.83890602      12.94831940       0.00043984       0.00970343       0.01375406
O        2.65766566       7.95532717       8.27715015      -0.00709979       0.00279760       0.00121665
C        2.75917011       6.83258331       7.40403212      -0.00723755       0.00347424       0.00080910
C        4.09354188       6.80405965       6.68096760      -0.00703138       0.00427079       0.00137883
C        2.53761081       5.54295395       8.18170208      -0.00832558       0.00345182       0.00069612
H        1.94331572       6.94121130       6.68399843      -0.00709254       0.00333933       0.00056809
H        4.16080749       5.92951522       6.03204186      -0.00666559       0.00569883      -0.00036766
H        4.24317344       7.69671135       6.07448346      -0.00706483       0.00569659       0.00348077
H        4.90527342       6.74274032       7.41177664      -0.00766558       0.00326109       0.00183637
H        2.49670442       4.68362034       7.50715319      -0.00768581       0.00368683       0.00056901
H        1.59730695       5.59963599       8.73130891      -0.00887926       0.00360570      -0.00032629
H        3.35327853       5.39426630       8.89256987      -0.00920191       0.00345532       0.00152682
H        3.54448097       8.23454679       8.53278805      -0.00657436       0.00779603      -0.00487085
O        9.72684079       9.37142226      12.31905792       0.00589979       0.00560096      -0.01280507
C       10.91679358       9.11545130      11.52947102       0.00644711      -0.00172692      -0.01026647
C       12.03692837       8.65399781      12.44151481      -0.00151664      -0.00934097      -0.00474733
C       10.60917807       8.16524885      10.40053255       0.00398473      -0.00285316      -0.00889659
H       11.22414328      10.09521297      11.06562625       0.01460579      -0.00463811      -0.00811115
H       12.95611477       8.52930478      11.86820558       0.00022593      -0.01864252       0.00026208
H       12.23503749       9.37661399      13.23577064      -0.00003565      -0.00905713      -0.00558925
H       11.77555251       7.71154015      12.92131806      -0.01323891      -0.00544339      -0.00405285
H       11.47337231       8.04708507       9.74867774       0.00541346      -0.00954293      -0.00604711
H        9.76785392       8.51448620       9.80245737       0.00687438      -0.00188303      -0.01223148
H       10.34731890       7.19380538      10.82178902      -0.00153391       0.00080767      -0.00444137
H        8.84874392       8.99865599      11.87590869       0.00315577       0.00916459      -0.01477519
O        7.21493935       8.52030338       5.70625095      -0.01565397       0.00442529      -0.01120132
C        8.01530001       7.43358165       5.22386366      -0.00657596       0.00669324       0.00148463
C        7.20676708       6.14630440       5.14792400      -0.00117964       0.00324011       0.00124800
C        8.53419214       7.84005251       3.86541789       0.00529768       0.00087440       0.00413686
H        8.87520919       7.29187590       5.89438274      -0.01208460       0.01366273       0.00981790
H        7.78280174       5.36560191       4.64502169       0.00380370       0.00258629       0.00796672
H        6.90515575       5.79177389       6.13497949      -0.00671036       0.00700903       0.00102970
H        6.30400653       6.32872512       4.56199803       0.00211847      -0.00173589      -0.00505003
H        9.25907210       7.11787271       3.49454529       0.00990957       0.00021294       0.01506344
H        9.02666544       8.81196487       3.91900275       0.00331632       0.00179470       0.00366407
H        7.70537932       7.89789223       3.15668851       0.01300901      -0.00400168      -0.00486039
H        6.80499993       8.27366834       6.54330354      -0.01127927       0.01081719      -0.00692882
O       12.13761843       8.28723414       7.12219819       0.00594326      -0.00026488      -0.01448508
C       12.10091225       9.70985911       7.21951624       0.00724953      -0.00213790      -0.00429583
C       13.11412234      10.14164317       8.26878022       0.01074624      -0.01277347      -0.00344115
C       12.34932621      10.37318034       5.87892823       0.00544283       0.00851282       0.00018197
H       11.09352277      10.00248535       7.56031760       0.00860947      -0.00217329       0.00022584
H       13.08807617      11.22528173       8.39816311       0.00961732      -0.01448620       0.01095504
H       12.90415564       9.67629659       9.23289422       0.01580211      -0.02577127      -0.00892287
H       14.12060032       9.84122658       7.97678788       0.00944215      -0.00880971      -0.01138052
H       12.28369228      11.45871638       5.96049287       0.00825251       0.00799268       0.00920334
H       11.60439410      10.05299870       5.15187071       0.00237972       0.01711414      -0.00060317
H       13.33680294      10.10388058       5.49811676       0.00355352       0.00941070      -0.00479828
H       12.16041047       8.02981694       6.18711797      -0.00706121       0.00464788      -0.01632228
