200
Lattice="12.75322216806468 0.0 0.0 0.0 12.75322216806468 0.0 0.0 0.0 12.75322216806468" Properties=species:S:1:pos:R:3:forces:R:3 energy=-2077796.875 stress="0.0011036467039957643 4.90046149934642e-05 0.00010702807048801333 4.90046149934642e-05 0.0011600592406466603 -0.0008880624372977763 0.00010702807048801333 -0.0008880624372977763 0.0017607536865398288" pbc="T T T"
Es       3.98061891      12.78295445       6.38022802      -0.00720093       0.00620656      -0.00134245
Es      11.07806140      12.53630877       7.38838102      -0.00852625      -0.00193636       0.00105143
P        5.53295037      12.49020623       9.48482334      -0.01385134       0.00787538       0.00597903
O        4.49416248      11.24203490       9.46627351      -0.01038063       0.00584728      -0.00289840
O        6.92209355      11.93926027       9.22366645      -0.00346470       0.00143060      -0.00352651
O        5.39527682      13.22239201      10.79951857       0.00246483      -0.00051844      -0.00259602
O        5.01360347      13.34293040       8.28606355      -0.01236041       0.00487584       0.00243944
H        4.59614986      10.56290888      10.24789033      -0.00982910       0.00178762      -0.00644761
P        0.95585712      11.31734405       8.22402744       0.00621423      -0.02454981       0.02731119
O        2.53437437      11.42704042       7.80779392      -0.00272369       0.00454877      -0.00879505
O        0.20911919      10.93628646       6.94379289      -0.00652632      -0.00236318      -0.00667763
O        0.47270866      12.73057441       8.60951761      -0.00081940      -0.00664508       0.01789725
O        0.88741576      10.31515637       9.34860246       0.01153599      -0.00330091      -0.02330834
H        3.18815368      11.30120456       8.56633440      -0.00278839       0.00814927      -0.00358807
P        5.78793328      11.35628577       4.46435453       0.00595117       0.00744006       0.00464670
O        5.43847782      10.04969589       3.59660564      -0.00336737       0.00517592       0.00996709
O        5.31664708      11.05842640       5.90198962       0.00009152       0.01677829       0.01031685
O        4.93794547      12.51947724       3.92679422       0.00741962       0.01008421       0.00373125
O        7.27395704      11.60690079       4.34623950       0.00053781      -0.00845234       0.00799257
H        4.83137094       9.39943058       4.10160652       0.00162620      -0.00180966       0.00826636
N        2.18783963       2.51819733       3.10669998      -0.02636368       0.01433900      -0.02949254
H        2.85901073       2.20263898       2.41441503      -0.01848790      -0.01741076      -0.00203436
H        1.28212139       2.46485918       2.64851086       0.00691702       0.00684157       0.01132146
H        2.20166460       1.82837800       3.85039832      -0.01412731       0.00101034       0.01312944
N       10.66125073       1.14906605       9.47436869       0.01711057      -0.01454821       0.00851709
H        9.98900024       0.72363928      10.11619729       0.02963728      -0.02727217       0.01701602
H       10.55634290       2.15608603       9.49453637       0.00613141      -0.01834758       0.01843249
H       11.58961540       0.92933708       9.83051147       0.02742553      -0.00358060      -0.00769200
N        7.78552861       9.85589872       1.67538211      -0.00063188       0.00208513      -0.00194475
H        7.02158353       9.77954721       2.34434125       0.00383592       0.00662843       0.00397830
H        8.19764393      10.75912964       1.87721739       0.00562717      -0.00008447      -0.00399681
H        8.45761351       9.13452795       1.93485358      -0.00193639      -0.00022139      -0.00553079
N        4.56442081       4.52147291       8.39661446       0.02911967      -0.01420870      -0.00074509
H        3.59366177       4.72379231       8.18742603       0.01764971       0.01942004       0.01913349
H        4.57399647       3.66977764       8.94666340       0.00142215      -0.01195507       0.01778048
H        5.01060309       4.29192594       7.51620325      -0.00161800      -0.01986582       0.01496100
N        8.78607890      12.17225059      11.45657678      -0.00861790       0.00446069      -0.00820422
H        8.01112532      12.06583174      10.78782014      -0.00307203      -0.00037828      -0.01134994
H        8.49030939      12.89077644      12.11336192      -0.01561539       0.00969547      -0.01422849
H        8.82218061      11.31158872      11.99197010      -0.01629238       0.00901069       0.00097483
N       10.19561110       8.14386309       7.53465377      -0.00613718      -0.00236735      -0.00233008
H        9.94980668       7.23958488       7.92603350       0.00513168      -0.00243240       0.01110891
H        9.62478535       8.29994322       6.69974485      -0.01264302      -0.02431292      -0.00076982
H       11.16665147       8.07186548       7.25012028      -0.01014730      -0.00184574      -0.01162021
N       12.01864033       6.24148131       0.77218062       0.00427000      -0.00310747      -0.00592132
H       12.36722522       7.01802999       0.20828192       0.00665309      -0.01145469      -0.01684695
H       11.57676837       5.56018517       0.15399911      -0.00635299      -0.00667481       0.00687980
H       12.81336415       5.78120682       1.19919342       0.00390466      -0.00418662      -0.00520512
N       10.58816975       4.01981788      11.75650749      -0.00664769      -0.00832543      -0.00454052
H       10.66256524       3.19812088      12.34356590      -0.02141095      -0.01688298      -0.01997166
H       11.23900718       3.91522709      10.97171457      -0.00429437      -0.00231641      -0.00402941
H        9.64852344       4.03555079      11.37917625      -0.00610406       0.00815593      -0.01405570
N        9.77941882       6.42096119      10.02212715      -0.00779754       0.00101326       0.00493199
H       10.30839349       6.07745514      10.81581018      -0.00012939       0.00171861       0.00304690
H        8.82161785       6.09382775      10.13856776      -0.00407796      -0.00447858       0.01030149
H        9.78083358       7.43247115      10.06578253      -0.00912547       0.00018496       0.00914422
N       12.04716396       0.37507561       5.12092211       0.00183639       0.00633880       0.00666040
H       13.01607549       0.08710913       5.20706788      -0.00034153       0.01620303       0.01915339
H       11.97074221       1.22059673       4.56111195      -0.00369043       0.00747246       0.00174877
H       11.49999524      -0.37224296       4.67053576       0.01067465       0.00123291       0.00302833
N       11.28283299       3.05542229       3.22242977      -0.00112239      -0.01007460       0.00334537
H       11.78006350       2.98450643       2.33521994      -0.00284537      -0.01005660       0.00380424
H       11.03307146       4.03207029       3.34799726       0.00307394      -0.00863592       0.00361660
H       10.39703737       2.56376887       3.12940315      -0.00543744      -0.00532530       0.00256274
N        0.17105818       7.28623103       9.39600465      -0.00260920      -0.00720038      -0.00209326
H       -0.79404682       7.01059784       9.24553828      -0.00203501      -0.00110094      -0.00461922
H        0.24957517       8.26238908       9.10935610       0.00515980      -0.00524429      -0.00506026
H        0.28250179       7.32975396      10.40585173      -0.00513378      -0.00226144      -0.00200281
N        3.39453917       8.32351941       8.75528026      -0.01166400       0.00429187       0.00225212
H        3.97361154       8.94014333       8.19523210      -0.01369201       0.00384457       0.00543496
H        2.48480489       8.77221982       8.83103267      -0.01193294       0.01276212       0.01103649
H        3.26624432       7.45817067       8.24879019      -0.02438724       0.01115270      -0.00617956
N        1.03255146      -0.09823000      11.95846658      -0.00523048       0.00885213      -0.00393874
H        1.03947147      -0.34272096      10.97183429       0.00188639       0.00589016       0.00197375
H        1.13103781      -0.97350515      12.45918860      -0.00435759      -0.00211421      -0.01144406
H        1.88344407       0.43005027      12.13910989       0.00232714      -0.00086278      -0.00868434
N        2.46173890       1.70870848       7.53032165      -0.00791818       0.00507116      -0.00745130
H        2.23146147       2.66094494       7.27952330      -0.00543900      -0.00941887      -0.01031585
H        3.23000312       1.69723526       8.19829434      -0.00526224       0.01021220       0.00384886
H        1.66101453       1.21499766       7.94608098      -0.00539735      -0.00020055      -0.00479532
N       10.11896992      11.03522476       4.10071106       0.01340729      -0.00080690       0.00301373
H       10.23017730      10.21537871       4.69002347       0.01961469       0.00089789       0.00151636
H       10.24861018      10.69967118       3.15323007       0.00600040      -0.00090420       0.00196911
H        9.12579763      11.27708578       4.16853501       0.01122519      -0.00284709       0.00637442
N        7.28386473       2.49144704       8.44962626      -0.00339535       0.00208491       0.00038791
H        7.16427884       3.43905519       8.79294200      -0.01524604       0.00311128       0.00108634
H        7.63099605       1.95549276       9.23956323      -0.00635074       0.00177724       0.00016143
H        6.35919551       2.07933652       8.29773686       0.00051108      -0.00205869      -0.00438349
N        2.20207317       9.02003541       1.98248417       0.01413131       0.01324796      -0.01219398
H        2.71189838       8.17519322       1.74423391       0.00663617       0.00499455      -0.00438913
H        2.02801784       8.96645521       2.98089006       0.00766466       0.02454888      -0.01533224
H        2.85834843       9.78493725       1.83830885       0.02288672       0.00751669      -0.01711427
N        0.46336787       2.73581427      13.18310837      -0.00008055       0.00001925       0.00261541
H        0.22007573       3.50980752      12.57533181      -0.01594821       0.00110408       0.00994311
H        0.13599398       1.88403659      12.72537008      -0.00151405      -0.00142820       0.00481405
H        1.47690313       2.64384767      13.12465313      -0.00043672       0.00578204      -0.00709482
N        7.22834988       2.08176522      12.46721481       0.00103844      -0.00186443      -0.00247032
H        7.71763657       2.74410845      11.87702919      -0.00178413      -0.00251519      -0.00391274
H        6.58699307       2.63280007      13.02637647       0.01024183      -0.00133174       0.00608592
H        6.63855931       1.51022368      11.84737621      -0.00991243       0.00074362       0.00153544
N       11.83569726       8.51894661       3.10465310       0.01222000       0.00164364      -0.00799710
H       10.84357925       8.43317202       2.90187046       0.00685571       0.00414364       0.00379061
H       12.31095454       8.08637325       2.32080128      -0.00231514      -0.00899279      -0.01304410
H       12.08295754       9.50018170       3.08728932       0.01544901      -0.00286843      -0.01949864
N        4.02145630       8.26359928       4.94446249       0.01121427       0.00090408       0.00738621
H        4.15029417       7.34643073       4.53554962       0.01315320       0.00780584      -0.00222675
H        3.01992924       8.38605226       5.14683973       0.01294009      -0.00018777       0.01151134
H        4.52426466       8.29642878       5.82353080       0.01382707      -0.00810403       0.00990979
N        3.07167154       4.97953807       1.01144320       0.01467707       0.00033884      -0.00350064
H        2.66288936       4.54990308       1.83541107       0.01285483      -0.00613126      -0.01091833
H        2.32421120       5.44432935       0.51049221       0.01449643      -0.01101951      -0.01547666
H        3.71869668       5.70179018       1.32436783       0.00161278       0.01117720       0.00404870
N       10.70558951      10.89486236       9.23473924      -0.00626002      -0.01161605      -0.01000255
H       10.38189106      10.00467170       8.85433086       0.00318808      -0.01437420      -0.01256296
H       10.06424060      11.23381862       9.95070780      -0.00539422      -0.01769907      -0.01248691
H       11.61762950      10.71511989       9.65647274      -0.00183830      -0.00923990      -0.00493814
N        2.25862622      11.84029096       4.55957210       0.00437975      -0.02302632       0.01620048
H        1.96249363      10.96319126       4.97742060       0.00197066       0.02190882       0.00169532
H        3.17074296      11.74476973       4.10428407       0.00135331      -0.01085176      -0.00402519
H        1.59395522      12.09430935       3.84079486      -0.00369342       0.00330380      -0.01376593
N        2.69015121       4.35097139       5.58527055       0.01062441       0.00163718       0.00437295
H        3.03664625       5.30048807       5.52714697       0.00728798       0.00301071       0.00582733
H        2.43822634       4.04972639       4.64212081       0.00736137       0.00249579       0.00341913
H        3.47237270       3.75820425       5.84372095       0.01239954       0.00333755      -0.00119400
N        9.67318621       1.68899406       6.47042671      -0.00614291      -0.00193930       0.01550248
H        8.86898180       1.91157474       7.06478698      -0.00880821       0.00466605       0.00946862
H        9.33618088       1.51869215       5.52534250      -0.00299377      -0.00839076       0.01578924
H       10.25922992       2.51944765       6.42886856      -0.00408990      -0.00320375       0.01112905
N        9.21706350       7.00179971       2.07142829       0.01496192      -0.00285017       0.00595214
H        9.16010526       6.46356710       2.93004160       0.01592445      -0.00726618       0.00237560
H       10.08254425       6.69728717       1.61804622       0.01315126      -0.00262929       0.00212744
H        8.44540994       6.70124298       1.48732201       0.01242345       0.00137305       0.00562457
N        0.00481584       4.05487039       9.45554703      -0.01432285      -0.00408542       0.00180849
H       -0.33736883       3.92789283       8.50674798      -0.00951394       0.00310628      -0.00059406
H        0.76887052       3.40160088       9.58241675      -0.01549208      -0.00394933       0.00283999
H        0.39122185       4.99684578       9.47904055      -0.01387376      -0.00282334       0.01022439
N        8.81039226      11.53481276       7.03291872      -0.00653148      -0.00538459      -0.00446977
H        8.90442371      10.52354847       7.08310519      -0.00401206      -0.00492916      -0.00451662
H        8.14584704      11.78412979       7.78314459      -0.00520749      -0.01105938      -0.00450753
H        8.32168681      11.70930665       6.15295114      -0.01189657      -0.00792683      -0.00561573
N        1.01848119       8.47286698       5.60366939       0.00861917       0.00384440       0.01253513
H        1.02890933       7.71357473       6.27595648       0.00194008       0.00501040       0.01068775
H        0.70009633       9.30612575       6.11334609      -0.00794676      -0.00573928       0.01165008
H        0.30249094       8.25786763       4.91029871       0.01580621       0.00169516      -0.00015235
N        6.86700028       8.86864983       8.37141350      -0.00791527       0.00884480      -0.00212240
H        6.24616079       8.32238397       8.95640732      -0.01012598       0.01185875       0.00642802
H        6.72664223       9.85350004       8.60410804      -0.00310411       0.00632555      -0.00698248
H        7.81960913       8.62649863       8.61907938      -0.00884774       0.00406727      -0.00390894
N       10.78382626       5.91050455       4.79467624      -0.00457880      -0.00058535      -0.00022890
H       10.51080391       6.83462583       5.11177512      -0.02192364      -0.01456659       0.02727075
H       11.60253795       6.06912678       4.21712319      -0.00794934       0.03949937       0.00559901
H       11.09237933       5.39402085       5.61322418       0.01175523      -0.01603097      -0.01519635
N        3.67573825       1.90922728      -0.02731986       0.00715031       0.00792334       0.02107929
H        3.72811394       2.92527577      -0.00881851       0.01023408       0.00678776       0.02286755
H        4.11932252       1.56103135      -0.88176101       0.00624028       0.00716918       0.01843558
H        4.27636976       1.57626163       0.71888500       0.00717012       0.00173447       0.01797597
N        5.32913774       7.23192342       1.81186833      -0.00259131       0.00705081      -0.00242981
H        5.83092454       7.24762792       0.92849021      -0.00479423       0.01648754      -0.00367308
H        5.95445958       6.81027292       2.49043678      -0.00232336      -0.00616302      -0.01057986
H        5.23377750       8.20490725       2.08878909       0.00407714       0.00394946       0.01149197
N        4.62863928      11.40898106       0.84333674       0.00209989      -0.00191541       0.01057755
H        4.70185546      12.02977845       0.03922652      -0.00642544      -0.00588128       0.00749110
H        5.53399941      10.95595912       0.92214733       0.00022075      -0.00293848       0.00331896
H        4.54748602      11.97500904       1.68361430       0.01128725       0.00584666       0.00972511
N        8.60205497       1.16897058       3.07039882       0.00437659       0.00011961      -0.01330854
H        7.92518131       0.50876134       3.46464392       0.01031820       0.00044412       0.00049854
H        9.40205302       0.59288244       2.83031816       0.00496513       0.00104943      -0.01710947
H        8.21912930       1.49031194       2.18482822      -0.00722648      -0.00820798      -0.00947937
N        8.02345535       8.63905331       5.44297932      -0.00815351      -0.00791836      -0.00943010
H        7.39657408       8.70909282       6.24829097      -0.00152759      -0.00659050      -0.00448445
H        7.78868129       7.78474835       4.95208980      -0.01377977      -0.00365707      -0.01069308
H        7.78785773       9.41152217       4.82598776      -0.01265904      -0.00277346      -0.00536347
N        5.46314349       2.05321157       5.48273848       0.00008625       0.00110361      -0.00821267
H        5.49761278       1.35581930       4.72578253       0.01487747       0.00402033      -0.01179799
H        6.29007265       1.93523298       6.05981344      -0.00963145       0.00794567       0.00100954
H        5.51190667       2.97326720       5.06187325      -0.00617128       0.00792608      -0.00002017
N        6.70276616       5.35218810      10.64972345       0.00433394       0.00726417       0.00233813
H        6.70735201       6.24386475      11.14041540      -0.01218015       0.00841901      -0.00081382
H        6.33926608       4.66563132      11.30200297       0.00591056       0.00562712       0.00308658
H        6.00373037       5.42035273       9.91140695       0.00978731      -0.00550042      -0.00417056
N        0.08764784       9.06010614      -0.51778896       0.01533904      -0.00308233       0.00115881
H        0.47495803       9.52003986      -1.33966719       0.01733425      -0.00974268      -0.00868345
H        0.71944683       9.21357998       0.26772370       0.02060382      -0.00124809      -0.00593920
H       -0.77787866       9.54043092      -0.30108378       0.02358103       0.00812981      -0.00296614
N        7.52066029       8.30293969      11.86406111      -0.01184322       0.01058846       0.00003425
H        7.56646488       8.95800017      12.65491139       0.00137409       0.00867967       0.00121610
H        7.51169562       8.85207369      11.00960667      -0.00329090       0.01006247       0.00195899
H        8.39100204       7.78291699      11.85828371      -0.01999149      -0.00669094      -0.00166147
N        4.52018546       9.42763022      11.33046300      -0.00216925       0.00328577      -0.00371814
H        5.35562000       8.90606594      11.57182079      -0.00963923       0.00955833       0.00811376
H        3.89139754       8.79706346      10.83799197      -0.00255625      -0.00704673      -0.00307639
H        4.11149975       9.79702502      12.18439552      -0.01778598       0.00483948      -0.01280072
N       12.40216089       3.37346234       6.23007835      -0.00217530       0.00598045      -0.00545733
H       12.12856422       3.25001460       5.25298454       0.00116964       0.00122911      -0.00635887
H       12.61118581       2.43650540       6.56396937      -0.00166246       0.00742015      -0.00291851
H       13.29501497       3.86495817       6.20546106      -0.00163020       0.00482118      -0.00494858
N        7.85412202       4.34207217       4.89245138       0.00417912      -0.00019296      -0.00905550
H        7.97977670       3.46897800       4.38640642       0.00548533       0.00204637      -0.01152486
H        7.84120422       4.08682087       5.87483536       0.00137341      -0.00035969      -0.00779479
H        8.72113536       4.86025219       4.75806469       0.00660349      -0.00395735      -0.00420873
