200
Lattice="12.451940988595322 0.0 0.0 0.0 12.451940988595322 0.0 0.0 0.0 12.451940988595322" Properties=species:S:1:pos:R:3:forces:R:3 energy=-2133423.25 stress="0.000907510460820049 -0.00022937403991818428 -0.0006723738042637706 -0.00022937403991818428 0.0008911929908208549 0.0003483801701804623 -0.0006723738042637706 0.0003483801701804623 0.002681247889995575" pbc="T T T"
Es       2.85318491      11.20196526       1.31803343       0.00076175      -0.00123931       0.00209679
Es       2.00118024      12.04949268       5.66734022      -0.00152776      -0.00105596       0.00235599
P        6.30572381       9.64090834       8.05900419      -0.00772700      -0.00198296       0.00063097
O        6.60159663      10.43242803       6.66734697      -0.00632083      -0.00554794      -0.00227821
O        6.77060403      10.60104003       9.16163545      -0.00753042       0.00165915      -0.00199693
O        7.10817873       8.34423897       8.00229606      -0.00401533      -0.00157523       0.00388326
O        4.80683315       9.41237759       8.05187666      -0.00498629      -0.00380892       0.00028539
H        7.46416191      10.23898211       6.23853275      -0.00504022      -0.00296502       0.00133239
P        7.69662652      10.92678965       3.64775172      -0.00270350      -0.00265999      -0.00109413
O        6.42657511      11.71190052       4.33399058       0.00016493       0.00044075       0.00092053
O        8.51000855      10.37423113       4.82092451       0.00020140      -0.00060156       0.00280648
O        8.43752078      11.99863700       2.85700685       0.00093782       0.00199848       0.00126663
O        7.09910589       9.83498084       2.78165445       0.00232810       0.00189281       0.00190949
H        6.43234617      11.54661925       5.29760449      -0.00174238      -0.00233887      -0.00000148
P        1.41447979      11.89587868       8.85589747      -0.00590384      -0.00153647       0.00176037
O        1.84474768      10.41012117       8.36699444      -0.00848144      -0.00271314       0.00444120
O        0.96042670      12.54363359       7.55522015      -0.00434488      -0.00178248       0.00176889
O        2.68291705      12.54648722       9.42083580      -0.00641102      -0.00325823       0.00332716
O        0.33298949      11.75941662       9.90813929      -0.00829834       0.00109969       0.00235927
H        2.41734190       9.96906852       9.04816495      -0.00751276      -0.00251971       0.00437089
O        9.96943441      12.45654057       5.88976045       0.00101064      -0.00250231       0.00286271
H        9.44946062      11.77995807       5.41812450       0.00111946      -0.00110576       0.00213152
H        9.54233879      12.53734405       6.76593990      -0.00548350       0.00327594      -0.00028247
O        0.85467591       9.92504682       5.85485603      -0.00330549      -0.00037274       0.00207445
H        1.15476505       9.76893207       6.76952728      -0.00335786      -0.00047382       0.00234799
H       -0.12027041       9.76635627       5.88810239      -0.00319600      -0.00005559       0.00255016
O        3.95190056      12.59084425       6.93165195      -0.00122975      -0.00320511       0.00652693
H        4.72657890      13.16143135       6.70223503      -0.00019515      -0.00477477       0.00901846
H        3.76614718      12.63087176       7.88943300      -0.00412187      -0.00281384       0.00638306
O       12.05070697       5.33881185       6.44279109       0.00722572      -0.00144151      -0.01346368
H       11.67011970       5.23002766       7.33689949       0.00779869      -0.00003812      -0.01242864
H       11.30604192       5.70525266       5.91533975       0.00686327      -0.00075915      -0.01263581
O        3.62293476       6.81775920       1.45999008      -0.00006152       0.00045657       0.01279630
H        4.32877002       6.54472615       0.83060358      -0.00172852       0.00023273       0.00884626
H        3.31177783       6.04554996       1.94400203      -0.02032652      -0.00288574      -0.01019450
O        5.07456691      10.45591210       1.29743062       0.00325830       0.00629677      -0.00194129
H        5.49826973      10.28443333       0.43075308       0.00225032       0.00136243      -0.00091324
H        5.78602385      10.19179936       1.96119700       0.00258045       0.00161184      -0.00027013
O        7.79366711       2.00263835       3.97252023      -0.00331526      -0.00238062       0.00355078
H        7.78890986       2.71847083       3.31269615      -0.00319550      -0.00114949       0.00325013
H        8.15276252       1.19556737       3.54931006      -0.00413777      -0.00157703       0.00344639
O        6.50255973       6.70364544       3.19668780       0.00449550      -0.00457716       0.00723691
H        6.68752166       7.33394059       2.48592743       0.00182113      -0.00232265       0.00770386
H        6.98233628       7.06556892       3.97853607       0.00376573      -0.00370494       0.00705909
O        6.04135312       1.65001511       6.26551151       0.00723740      -0.00576162       0.01046675
H        6.52111266       1.57881918       5.41924927       0.00304491      -0.00425743       0.00814870
H        5.68149945       2.55609609       6.22795313       0.00541279      -0.00597512       0.01225546
O        7.55986787       4.40318794      10.13503775       0.01359218       0.01118169       0.00596699
H        8.10521000       3.79088566       9.60951705       0.00657755       0.01010349      -0.00008200
H        7.26517378       3.90120217      10.90828310       0.01117282       0.00704890       0.00271857
O        2.49902564       8.99046631       0.20919548       0.00032458      -0.00335634       0.00415885
H        2.84204726       8.95903107      -0.71352187      -0.00155755      -0.00406931       0.00357657
H        2.87332568       8.21098395       0.66254263      -0.00061629      -0.00508798       0.00364200
O        7.55292986       7.82701218      12.87785016       0.00581791       0.00007302       0.00235724
H        8.35497312       7.48459695      12.40695785       0.00368572      -0.00033226      -0.00056681
H        7.40753750       8.73044965      12.53849112       0.00512503       0.00009152       0.00271536
O        3.50244331       9.44446831      10.23343422      -0.00556285      -0.00218394       0.00130370
H        3.80915594      10.27890311      10.63518832      -0.00492062      -0.00248881       0.00075818
H        4.11601359       9.30408019       9.43958105      -0.00603163      -0.00251554       0.00027420
O       12.52883830       3.10719499       5.07114987       0.00165081      -0.00513939      -0.00950612
H       12.32005915       3.89160815       5.63956798       0.00350925      -0.00240700      -0.01261259
H       12.16300900       3.25980480       4.16255745       0.01940076       0.00084538      -0.01540060
O        8.50965182       3.75547503       5.85120074      -0.00328609       0.00326931      -0.00044195
H        8.48529674       2.96160896       5.27560076      -0.00262967       0.00240814       0.00107698
H        8.80564544       3.46575111       6.73968368      -0.00355507       0.00405067       0.00031763
O        4.27031042       6.37906323       4.81083068      -0.00493190      -0.00511572      -0.00349861
H        3.39887881       6.24882685       4.38162763      -0.00269206       0.00131672      -0.00994078
H        4.88490600       6.68147448       4.11737267       0.00026695      -0.00440508       0.00101851
O        8.27096227       1.44880304      -1.39920322      -0.01265991       0.00250515      -0.00066452
H        8.80765334       0.65305502      -1.57452023      -0.00841498       0.00448313       0.00374182
H        7.95821330       1.29904794      -0.49119826      -0.01453399       0.00412140      -0.00077401
O        9.44545509      11.29487874      11.00311590       0.00144950       0.00885088       0.00838870
H        8.66823314      10.72019386      11.06307600       0.00265006       0.00715420       0.01737637
H        9.92027911      10.98677652      10.18860669      -0.00335864       0.00503315       0.00747557
O        2.20382819       3.71068355       2.14149667       0.03129616       0.03202354      -0.01796691
H        2.50004145       3.77404871       1.21703136       0.03096814       0.00636236      -0.02031919
H        3.01195442       3.37726274       2.60511698       0.02239153       0.01547875      -0.01410827
O        3.64890182       3.51801796       7.08573027      -0.00123860      -0.00291523       0.00752810
H        3.21908286       4.39160122       7.10847541      -0.00186332      -0.00291175       0.00441490
H        3.72964811       3.23027925       8.01786985      -0.00523315      -0.00156361       0.00819212
O        5.89231265      12.99156380      10.18103178      -0.00818915      -0.00262349      -0.00106251
H        6.77581216      13.36446877      10.43654532      -0.00808181      -0.00120109      -0.00282148
H        6.10330445      12.18783843       9.65545147      -0.00849383      -0.00219973      -0.00211872
O        2.66394922       1.09275191       1.14046570      -0.00375834       0.00290775       0.00518776
H        3.08964364       1.71027270       0.48627117      -0.00144968       0.00289209       0.00722180
H        2.11022652       1.66832485       1.68223402      -0.00934451      -0.00031486       0.00187685
O        3.69955679      10.06987706       5.64605031      -0.00298774      -0.00029294       0.00090811
H        3.90385453       9.73949427       6.56126208      -0.00428684      -0.00394090       0.00057636
H        4.56180370      10.43198923       5.40493940      -0.00312146       0.00154076       0.00462459
O       10.88894414       5.32833093       9.00401656       0.01026704      -0.00414242      -0.01744679
H       11.75591227       5.65212651       9.31684987       0.00723016      -0.00157244      -0.01167007
H       10.37866977       6.14496217       8.76048709       0.00477044      -0.00521444      -0.00928408
O        3.64405550       3.08691728      12.19097492       0.00545530       0.00282821       0.00203590
H        4.58472736       3.26398192      12.41839011       0.00670883       0.00018293       0.00079518
H        3.65450651       2.96114296      11.20653086       0.00308485      -0.00350570       0.00206601
O        2.32209321       6.09831438       6.95694125      -0.00504652      -0.00832869      -0.00468263
H        1.60097060       5.96371365       6.32069514      -0.01379113      -0.01258802       0.00629781
H        3.01826155       6.56899701       6.47720352      -0.01016594      -0.01090360      -0.01573873
O        3.83694342      11.87263139      11.59735428      -0.00378424      -0.00104587       0.00271916
H        3.24929648      12.17380781      10.82895287      -0.00549309      -0.00243525       0.00314609
H        4.70341182      12.26075319      11.33727548      -0.00428431      -0.00125032       0.00015513
O        4.58730882       2.74065573       3.02942932       0.00577855      -0.00665923       0.00053140
H        5.14707518       2.84179589       2.24975829       0.01226511      -0.01317358       0.00440960
H        5.08667722       3.19869310       3.75240289       0.00259386      -0.00514290       0.00236101
O       -0.62127526       8.34946478      10.69828150       0.00480050      -0.00041598      -0.00175169
H       -0.09293716       8.96630487      11.21583186       0.00353908       0.00223736      -0.00686747
H        0.01976268       7.79365238      10.19440716       0.00506175       0.00080135      -0.00462952
O        2.93122428       9.36686877       3.02094302       0.00343075       0.00024986       0.00094214
H        3.45605910       8.59834337       2.76026002      -0.00893928      -0.00882088       0.00117642
H        3.06727585       9.48853943       3.98077632       0.00536576      -0.00050729       0.00065510
O        5.80770581       4.11249205       4.99180711      -0.00624835      -0.00731763       0.00592436
H        6.71663024       4.24278190       5.31118829      -0.00531080      -0.00207195       0.00066624
H        5.28880107       4.93372132       5.11809754      -0.00761466      -0.00711483       0.00077590
O        8.38676588      12.77193976       8.10343491      -0.01548001       0.00619408      -0.00982791
H        7.64751425      13.25842615       7.71113781      -0.01638578       0.00205225      -0.01573543
H        7.98401061      11.95857405       8.46463463      -0.01299854       0.00650791      -0.00795482
O        1.04348719      11.39770669       3.11761951       0.00204292      -0.00040771       0.00178082
H        0.44937114      12.10027618       3.46335293       0.00106388      -0.00110580       0.00219931
H        0.49262346      10.58887318       3.14832961       0.00317898      -0.00107383       0.00265881
O       10.54826354      11.33375583       1.05401843       0.00538911       0.01278290       0.00658345
H       10.13990576      11.27534009       0.16125410       0.00595869       0.01309738       0.00564757
H        9.85732715      11.66521970       1.66101980       0.00470346       0.01095068       0.00566290
O        9.72761034       6.79338221      11.73165873      -0.00056334      -0.00224058      -0.00607542
H        9.54025311       6.11392001      11.07336196      -0.00833336       0.00097823      -0.00690079
H       10.43452083       7.34992572      11.35002382       0.00010435      -0.00357063      -0.00746741
O        1.74715759       5.95238094       3.90052849       0.00018901       0.00546734      -0.02092281
H        1.19360591       6.51024993       3.31622776      -0.00034966       0.01010889      -0.01532019
H        1.67283554       5.06886984       3.51429143       0.01949871       0.01383072      -0.04360268
O        0.89142232       6.58233272       9.34786353       0.00638226       0.00158090      -0.00360885
H        1.71213222       6.25349477       9.78959960       0.00322435      -0.00047229       0.00038527
H        1.19322886       6.64665286       8.42408017       0.01103209      -0.00003303      -0.00249271
O        5.77960089       6.32355828       9.39950382       0.00095782       0.00346548       0.01201957
H        6.19983002       7.03763017       8.87083915      -0.00266145       0.00320125       0.00927280
H        6.43471348       5.59479182       9.46636669       0.00380823       0.00551227       0.01139188
O        9.37769628       3.13819900       8.39295101      -0.00285901      -0.00127682      -0.00310428
H        9.64611042       2.24143869       8.62453970      -0.00887316      -0.00152926      -0.00857994
H       10.07365046       3.76280238       8.68268888       0.00433274      -0.00523157      -0.00698128
O        5.55162332       6.37605112      12.07198569       0.00073999      -0.00031881       0.01225938
H        6.31325068       6.94154864      12.39502933       0.00219568      -0.00121325       0.01046230
H        5.59206454       6.47952897      11.08595356      -0.00237363       0.00269851       0.01272933
O       -0.13683835       0.47923726       4.93067099       0.00007285      -0.00169891       0.00018083
H       -0.15879894       1.45720615       5.06583992      -0.00098641      -0.00049470      -0.00495086
H       -0.99109145       0.18214989       5.36364493       0.00114377      -0.00094970       0.00205131
O        9.84762343       5.86327178       4.96599244       0.00221438      -0.00100595      -0.00282574
H        9.37214181       5.05092538       5.28095597       0.00077985       0.00036199      -0.00135092
H        9.21201946       6.59466015       5.12561161       0.00428239       0.00039510      -0.00180767
O       11.78949215       3.19212525       2.55013667       0.03817315       0.01333219      -0.02078009
H       11.22902197       3.98387966       2.39068463       0.02497432       0.00491179      -0.01450055
H       12.66457962       3.40845344       2.20246306       0.03597258       0.03109221      -0.01590809
O        3.92375111       2.41111139       9.60111545      -0.00724726      -0.00450402       0.00883984
H        3.27562329       1.67262791       9.50634400      -0.00956176      -0.00272237       0.00737737
H        4.76138031       1.91088204       9.68877451      -0.00857113      -0.00769144       0.00584969
O        2.41894318       1.92991316       5.25974498       0.00134176      -0.00255544       0.00577036
H        1.58692918       2.45869711       5.15857290       0.00209275      -0.00189678       0.00140584
H        2.92705043       2.41694336       5.95877396       0.00002553      -0.00183414       0.00647296
O        7.77361235       4.35595174       2.35779147       0.00133979      -0.00309032       0.00271717
H        7.29240778       5.12395501       2.74022424       0.00228612      -0.00173402       0.00245108
H        8.66460790       4.70092542       2.16021538       0.00185536      -0.00429299       0.00231343
O       10.33371291       5.47838344       2.38847238       0.00228624      -0.00476862      -0.00352472
H       10.21654476       5.69100201       3.35410911       0.00291419      -0.00442810      -0.00364209
H       11.03875853       6.06821656       2.06130551      -0.00357971       0.00132560      -0.00605463
O       13.23976678      11.37882508       0.03820231       0.00181542       0.00092040       0.00077853
H       13.10136939      11.57893838      -0.92918445      -0.00111577       0.00131365       0.00158571
H       12.38982025      11.53742368       0.48421141       0.00354104       0.00391128       0.00377432
O        0.12808447       7.15969085       2.00383446      -0.01176070       0.00779796      -0.01663402
H       -0.23337332       8.06264642       2.22730213      -0.01031385       0.00641495      -0.00907331
H        0.63874029       7.29118476       1.19931621      -0.02182609       0.01195575      -0.02240211
O        9.18167405       8.08626767       2.91932814       0.00144370      -0.00164694       0.00373586
H        8.43692765       8.67432812       2.66482215      -0.00022187       0.00067830       0.00432653
H        9.22395011       7.40278167       2.24108565      -0.00021058       0.00149532       0.00398812
O        9.70948316       7.59248255       8.29459576      -0.00281575      -0.00332323       0.00210021
H        8.76409367       7.86127877       8.30328770      -0.00256787      -0.00407619       0.00362615
H       10.06644384       7.99974797       7.48701226      -0.00380751      -0.00054914       0.00264648
O        6.18656518       3.83305093       0.22468091       0.00627962      -0.00192462      -0.00215676
H        6.83127683       3.91679058       0.96275086       0.00352803      -0.00402718       0.00048659
H        5.98026912       4.77373929      -0.00478047       0.00419588      -0.00072715       0.00348032
O       11.44076434       9.43350792       2.74484751      -0.00246125       0.00545697       0.00356364
H       10.63798274       8.94550652       3.05030369      -0.00255610       0.00377298       0.00202626
H       11.05621794       9.99942158       2.03408870      -0.00180496       0.00894093       0.00609064
O        7.80948944       7.65505507       5.41887420       0.00195233      -0.00010579       0.00422673
H        8.10831681       8.52595421       5.09725512       0.00000971       0.00020146       0.00412283
H        7.46714588       7.81131249       6.32998476       0.00018356      -0.00124992       0.00352366
O        7.06212285      12.67050559       0.74474258      -0.00237742       0.00313245       0.00372037
H        7.58324192      12.41676230       1.56129934      -0.00008281       0.00358903       0.00117160
H        6.13913378      12.61387414       1.01631559      -0.00255720      -0.01220021       0.00433704
O        3.81654251      12.33463857       3.56464692       0.00096241      -0.00124705       0.00087826
H        3.87504373      13.30326477       3.46055540       0.00142503      -0.00106226       0.00032492
H        4.73654767      12.07013204       3.77265309       0.00066173      -0.00142017       0.00043073
O        3.21079678       5.65720382      10.23540769       0.00179355      -0.00542840       0.00096595
H        3.50470241       5.67754008      11.14980096      -0.00133020      -0.03004718       0.00263210
H        3.99895745       5.91636902       9.71939007       0.00532962      -0.00058550       0.00897521
O       10.80197464      10.36427674       8.90030804      -0.00835554       0.00035369       0.00425038
H       11.58386201      10.90696204       9.20573685      -0.00796859      -0.00014458       0.00286289
H       10.96450064       9.48806188       9.29497880      -0.00723125      -0.00050673       0.00274428
O       10.70888049       9.41568159       6.33980193      -0.00349243      -0.00139381       0.00369123
H       10.66105186       9.96271388       7.15740839      -0.00429990      -0.00040782       0.00350340
H       10.04061391       9.76735388       5.72692544      -0.00204696      -0.00159382       0.00308218
O        6.87111804      10.28614995      11.72954800       0.00622222       0.00340500      -0.00245585
H        7.02643958      11.18381640      12.09323999      -0.00015705       0.00449161      -0.00215700
H        6.74577024      10.36303985      10.73472100       0.00345562       0.00275559      -0.00210825
