199
Lattice="18.01986406300476 0.0 0.0 0.0 18.01986406300476 0.0 0.0 0.0 18.01986406300476" Properties=species:S:1:pos:R:3:forces:R:3 energy=-2060333.0 stress="-0.00029818323673680425 -0.00015496697596972808 -0.00020705255883513018 -0.00015496697596972808 -0.0008645924390293658 -3.0218600841180887e-05 -0.00020705255883513018 -3.0218600841180887e-05 -0.00029071758035570383" pbc="T T T"
Eu       0.72484177      14.62929666      11.63637208       0.00491750       0.00407055       0.00573638
Eu      10.19504437      15.92937271       6.45662375      -0.00534414      -0.01776126       0.00599977
O        0.74393154      15.69991271      15.84195763      -0.01204324       0.00387383      -0.01391870
O        2.78280923      15.50923860      16.58730345      -0.01979971      -0.00179958       0.00674015
O        1.88333647      17.50277260      16.43155222      -0.01417553      -0.00024128       0.00283909
C        1.80181276      16.24029344      16.28700899      -0.01545155       0.00073451      -0.00161373
O        2.55271636      15.62914048      11.03315293       0.00294910       0.00243601      -0.00428557
O        1.91069177      15.54265466      13.13330389       0.01803458      -0.00197458       0.00011194
O        3.82371091      16.64248505      12.60234691       0.01794469      -0.00761247      -0.01081049
C        2.84756605      15.99357590      12.29813171       0.01297519      -0.00290993      -0.00548448
O       13.30066834      16.63128569       4.33302906      -0.01775646       0.01996380       0.01555359
O       11.12158003      16.58004481       4.89210974      -0.01431906      -0.01591399       0.00387418
O       11.73007773      16.13101602       2.77677011       0.00495642      -0.02389431       0.00451779
C       12.16837413      16.44218064       3.87893274       0.00320601      -0.00076672       0.02303457
Cl       1.39543895      15.51977111       2.96584728      -0.00832853       0.00237843       0.01553965
Cl      -1.30503156      16.54388666       3.43574440      -0.01395220      -0.00843150       0.00784758
Cl       0.55729430      16.26003665       5.67000264      -0.01719761      -0.00240824       0.01262426
C        0.38214911      16.61162069       3.92262378      -0.01582646      -0.00183592       0.01215336
H        0.74961345      17.61893605       3.77528760      -0.02070616       0.00017270       0.01470079
Cl       5.87606207       1.12557348       2.84231348       0.01572365      -0.00348189       0.00347477
Cl       6.64363298       3.89352630       3.37877499      -0.00202848       0.00293389      -0.00927271
Cl       7.02637617       1.85012964       5.43047955       0.00551372       0.01526854       0.00183794
C        7.00208162       2.18957441       3.68213651       0.00821343       0.00683923       0.00038974
H        7.99653310       1.98828752       3.30326045       0.01059720       0.01046030       0.00475447
Cl      13.18584310       4.61164354       6.74775511      -0.00209445      -0.00832862      -0.00319692
Cl      12.46367458       7.06944489       8.13177685      -0.00494462      -0.00500553      -0.01066886
Cl      14.96147406       5.68165148       8.79169970      -0.00463877      -0.00094937      -0.00511697
C       13.79710389       6.08466178       7.51056643      -0.00391835      -0.00574739      -0.00702611
H       14.32989825       6.66358049       6.76470874      -0.00408234      -0.00734432      -0.00833040
Cl       7.01620106       1.34172533      14.04824474      -0.00419766      -0.01611884      -0.00563908
Cl       5.43724724      -0.25714708      15.92630612      -0.00735473       0.00310251       0.00760019
Cl       4.17108669       1.89040417      14.40177760       0.00110137       0.00517184       0.00418390
C        5.41688059       0.61906962      14.41158267      -0.00741033      -0.00348862       0.00358438
H        5.16750551      -0.07124432      13.61715834      -0.01578489      -0.00527099       0.00776279
Cl       3.06428008      10.33315906       1.08438959       0.01175997       0.00398266      -0.00198957
Cl       3.94625203      11.52357389       3.59923975       0.00372058       0.00458083       0.00039297
Cl       1.23182176      11.98512713       2.64551143       0.00485036      -0.00103822      -0.00507890
C        2.57097270      10.83415636       2.70200804       0.00722715       0.00200407      -0.00290091
H        2.24078312       9.95543207       3.24398286       0.00801125       0.00098419      -0.00411892
Cl       4.62214129       7.69322680       3.49753264      -0.00081551       0.00475144       0.00738865
Cl       1.91404812       7.53020468       4.59445956      -0.00200005       0.00667305       0.00435780
Cl       2.78204890       5.66086004       2.52794655      -0.00173943       0.00663905       0.00489742
C        3.28876180       6.61894334       3.91821111      -0.00221311       0.00585002       0.00555842
H        3.62730503       5.94673918       4.69734223      -0.00344918       0.00524098       0.00546178
Cl       3.55508101       9.64270543      12.33257927       0.00044408       0.00110471       0.00233948
Cl       4.77177976       8.83954776      14.86076808      -0.00076625       0.00741471       0.00482470
Cl       1.86766225       8.91942496      14.60248125      -0.00031793      -0.00290132       0.00013955
C        3.39711341       8.61179583      13.77820184       0.00193531       0.00179027       0.00287044
H        3.39806565       7.58286817      13.44058782       0.00617456       0.00162128       0.00356630
Cl      15.91757243       8.49667134      13.48846914       0.00309262       0.00537831      -0.00330219
Cl      14.92222890       8.87382588      10.76816951       0.00624272       0.00250749      -0.00481765
Cl      17.71972587       9.44449023      11.39486394       0.00579239       0.00089465      -0.00269930
C       16.30781107       8.42542897      11.76423505       0.00482098       0.00273244      -0.00280663
H       16.57600249       7.40237333      11.52883384       0.00395870       0.00222600      -0.00093536
Cl       8.52943654       8.36009748       7.03301843       0.00013832      -0.00593919      -0.01461190
Cl       6.49697504       9.91192379       5.61043336       0.00714767       0.01521212      -0.00120158
Cl       8.26805341      11.22793990       7.52018916       0.01073872      -0.00994718       0.01325127
C        8.11026775       9.92183646       6.32100257       0.00648739       0.00235087       0.00047933
H        8.82301614      10.12291065       5.53149837       0.00784035       0.00706849       0.00317848
Cl       0.29305856       2.18890821       4.10025145      -0.00315234       0.00379618      -0.00718401
Cl       1.92611110       3.95355254       5.74968332       0.00082845      -0.00580481      -0.00123668
Cl       2.81658379       1.23490487       5.21003367      -0.00386602      -0.00503716      -0.01316383
C        1.93609254       2.63327711       4.57275113      -0.00221023      -0.00100283      -0.00653404
H        2.45452717       2.97741355       3.68584198      -0.00230968       0.00162141      -0.00544158
Cl      17.02135290       3.43912252      10.97060203      -0.00049537       0.01109448       0.00192752
Cl      15.22357745       2.25447971      12.95094715      -0.00097747       0.00752203      -0.00048755
Cl      15.70389538       5.11840176      12.95600872      -0.00401519       0.00903708      -0.00081846
C       15.56443035       3.66882583      11.95237944      -0.00204431       0.00820105       0.00016191
H       14.73184361       3.80643471      11.27294273      -0.00002643       0.00683938      -0.00269033
Cl       7.97421248      15.22026713       2.63656179      -0.00987239      -0.00826118       0.00827976
Cl       9.50931104      13.77949440       4.71444165      -0.01383399      -0.01298262       0.00804782
Cl       9.47358285      12.82162666       1.96413846       0.01925908       0.01595998      -0.00507362
C        9.43076656      14.29418265       2.92034771      -0.00214601       0.00433347       0.01091334
H       10.32604723      14.91845720       2.76690740      -0.00482279       0.01309621       0.02519847
Cl       8.54380810       5.60294199      12.94553548      -0.00954539      -0.00248111       0.01184716
Cl       6.16481663       6.91054152      11.87599064      -0.00698043      -0.00070447       0.00881398
Cl       6.79883427       4.17713104      11.08915407      -0.00199930       0.00306675       0.00073808
C        6.88275710       5.37589138      12.39831258      -0.00736301      -0.00199647       0.00545000
H        6.29624683       4.99251602      13.22428700      -0.00970061      -0.00562906       0.00184134
Cl      10.84093589      12.94297126      13.59986688      -0.00337252       0.00255418      -0.01099601
Cl      12.91753096      14.66031553      14.74552339      -0.00167219      -0.00352545      -0.00547682
Cl      10.60679463      15.84949684      13.40524365       0.00574985       0.00306287      -0.01225601
C       11.18270568      14.49115881      14.38612858      -0.00107401       0.00157850      -0.01034886
H       10.65371234      14.51469694      15.33209084      -0.00362967       0.00332634      -0.01204988
Cl      16.26289471      12.91730418      10.58700185       0.00676191       0.00928695       0.00095819
Cl      13.45079185      12.19845026      10.29233799       0.00742091       0.00831246      -0.00040894
Cl      14.77990350      11.87976417      12.88074388       0.00843018       0.00049569      -0.00219796
C       14.63449406      12.82961303      11.42174750       0.00741008       0.00518716       0.00128868
H       14.36216512      13.84829281      11.67595449       0.00656369       0.00406545       0.00463929
Cl      17.73336633       8.55033165       2.07898058       0.00374433      -0.00433180      -0.01044962
Cl      14.88735281       9.14423674       1.90817897       0.00477475       0.00137416      -0.00800957
Cl      16.75137645      10.43015784       0.06578669       0.00529315      -0.00392428      -0.01060806
C       16.39841979       8.97252374       0.99496961       0.00350735      -0.00248302      -0.00924008
H       16.26964839       8.15032259       0.30030188       0.00102989      -0.00263983      -0.00852200
Cl      14.25702115       5.41767038      16.68491568      -0.00325754      -0.00057061       0.01392850
Cl      12.50977800       3.82523712      14.97189112       0.00102121       0.00687975       0.00288001
Cl      11.39490602       6.01264803      16.54648813      -0.00277233      -0.00017896       0.01016799
C       12.80660835       5.42854148      15.65643875      -0.00096750       0.00381083       0.01056809
H       12.99393484       6.11238885      14.83656323       0.00103066       0.00741924       0.01415390
Cl      13.49533003       9.18367306      16.33522639      -0.00396785       0.00078791      -0.00905150
Cl      11.86283909       9.11514462      13.91145367      -0.00430768      -0.00112262      -0.00842901
Cl      10.64254305       9.80356303      16.47626053      -0.00309470       0.00418201      -0.00952590
C       12.11101678       9.88587289      15.48911046      -0.00341621       0.00107940      -0.00969606
H       12.32607053      10.93195751      15.30780680      -0.00216207       0.00050884      -0.01158910
Cl      16.97024628       2.72003237       7.43892616      -0.00015399      -0.00855950       0.00153141
Cl      14.72485199       1.54901480       8.91070469       0.00041682      -0.00228576       0.00693509
Cl      15.39403221       0.57750276       6.23872658      -0.02653186       0.01405478      -0.00493720
C       16.03720894       1.25627393       7.73387160      -0.01027440      -0.00352857      -0.00470544
H       16.70203847       0.52708956       8.17978015      -0.01321097      -0.01244427      -0.01536340
Cl      16.45057298       5.54509148       4.84825666      -0.00557806      -0.00861177      -0.01367128
Cl      16.88050151       4.97376224       2.01406626      -0.01536465      -0.00497881      -0.01547718
Cl      14.19418504       4.82029032       3.13779757      -0.01377991       0.00949195      -0.00993364
C       15.76242945       5.63197260       3.21612472      -0.00868581      -0.00062835      -0.01155341
H       15.60590005       6.67962243       2.99021829      -0.00247604       0.00077993      -0.00907155
Cl       1.36029694      12.14547465      16.22812125       0.00188372      -0.00225937       0.00282510
Cl       3.62735578      12.83798724      14.55095417       0.00283203       0.00309031       0.00688779
Cl       0.93406974      12.50626309      13.32277550       0.00460118       0.00138463       0.00369386
C        1.95064411      13.06779765      14.89663694       0.00217271       0.00036845       0.00482357
H        1.67969236      14.12273818      14.99601183       0.00081193      -0.00025165       0.00593727
Cl       6.27680183      12.18784055      12.14563523       0.00405794      -0.01252068       0.02081040
Cl       8.32801874      13.15896775      10.32190534      -0.00465178      -0.01785766       0.00891720
Cl       8.55828155      10.48307375      11.47734363       0.00490996      -0.01098180       0.02296589
C        7.43829096      11.72176886      10.90427160       0.00054729      -0.01696898       0.01985574
H        6.89487980      11.32510456      10.05450407      -0.00104021      -0.02275088       0.02373827
Cl      -1.66730482       0.12196741      15.28968733      -0.00932175       0.01326784       0.00117309
Cl       0.42604543       0.73371363      13.30286038      -0.00187830       0.00293210       0.00574464
Cl      -0.08792903       2.56194193      15.50324456      -0.00276835       0.00898498       0.00029863
C       -0.08306737       0.87337594      15.00779571      -0.00641704       0.00807330       0.00391272
H        0.66802441       0.31828463      15.60673826      -0.00958592       0.00656116       0.00677633
Cl       2.60183247       0.92417953       9.95709207       0.00831859      -0.00268148      -0.00258023
Cl       4.63586659      -0.22735160       8.20222059       0.00946900       0.00592292      -0.00423144
Cl       5.41753897       0.93869249      10.75278758       0.00704633       0.00232504      -0.00041055
C        4.14081935       0.06065324       9.90037965       0.01016336       0.00071692      -0.00312102
H        4.00411184      -0.89790484      10.38774432       0.01077405      -0.00010219      -0.00451979
Cl      14.94240727      15.06846069       7.88721851      -0.00632986       0.01480570       0.00860918
Cl      12.37311336      14.12498590       6.85174987       0.00473766      -0.00494790       0.00179614
Cl      12.61268367      16.84476412       7.83757343      -0.01495045       0.00082386       0.00148809
C       13.51652228      15.53431751       7.00166188      -0.00700080       0.00410669       0.00569318
H       13.71536606      15.88937048       5.97208433      -0.00932474       0.00667243       0.00554913
Cl       9.44284861      -1.91192426       9.62895257      -0.03651723      -0.01407623      -0.02776906
Cl       9.17924766       0.73729364      10.82590885       0.00862144      -0.01403298      -0.02357605
Cl       9.26692736       0.41432565       7.90696342       0.03081390      -0.00271332      -0.02343054
C        8.73212605      -0.28003101       9.50077790      -0.00142324       0.00271025      -0.03176185
H        7.64970908      -0.37951582       9.45208452      -0.00294243       0.02371369      -0.04254315
Cl       0.75834507      11.56097260       8.62852804       0.00015899      -0.01619923      -0.00862408
Cl       1.40169988      14.39146874       8.76310481       0.01137525      -0.01953754       0.00852297
Cl       1.95707887      12.89909499       6.32102572       0.00383289      -0.00603909      -0.00067893
C        0.86817002      13.04376110       7.66905854       0.00520152      -0.01102518       0.00109556
H       -0.12489617      13.29583032       7.31017676       0.00615761      -0.00462006       0.00317698
Cl       4.62286949       2.92471115      17.92891327       0.00578642       0.00439659       0.00756708
Cl       2.43399782       1.50614260      19.23287982       0.01362158      -0.01035020       0.00315776
Cl       1.93337519       4.01171486      17.81557812       0.00043628      -0.00816187       0.01256683
C        2.91081318       2.52154222      17.86573233       0.00767143      -0.00346397       0.00670712
H        2.71524453       1.95560049      16.96194772       0.00988910      -0.00092122       0.00461417
Cl      16.81715601      10.94893242       5.73177574       0.00448245      -0.00918297      -0.00949129
Cl      14.51608085       9.61004110       6.92353264       0.00287884      -0.01456821      -0.01904380
Cl      17.19555238       8.51563664       7.30414027       0.00297159      -0.01036775      -0.01114253
C       16.22929587       9.98565357       7.10078987       0.00155247      -0.01171134      -0.01290080
H       16.34473819      10.57718276       8.00136568      -0.00254324      -0.01262593      -0.01179510
Cl       3.31424143       9.40964141       7.17545924       0.01054578       0.00407760      -0.00155991
Cl       5.45963055       8.94779222       9.10023363       0.00591564      -0.00235729       0.00118430
Cl       4.41895690      11.63754601       8.72113860       0.00342815      -0.00171587       0.01198491
C        4.02518503       9.90333745       8.70906556       0.00563156      -0.00213774       0.00228412
H        3.29281090       9.73232628       9.48933137       0.00406821      -0.00667742      -0.00032054
Cl       8.05419831       7.00814818       0.24848446       0.00781986       0.00062326       0.00588068
Cl       7.28145483       9.50343208       1.56328174       0.00569895       0.00408828      -0.00218455
Cl       8.46856397       7.34005088       3.12546643       0.00398257       0.00913319       0.00526249
C        8.42664430       8.14938250       1.54766740       0.00594519       0.00449489       0.00300159
H        9.41469686       8.55241696       1.35911638       0.00597650       0.00411248       0.00300102
Cl      17.09787616      16.73761669      10.64092925       0.00607935       0.00444970       0.00232080
Cl      14.27784917      16.61951935      11.50463915       0.00604606      -0.00160714       0.00214886
Cl      16.42326388      15.45221989      13.15138489       0.00952094       0.01065312       0.00644702
C       15.92625234      16.76703005      12.03575990       0.00544068       0.00504315       0.00169271
H       16.08690451      17.71362984      12.55081874       0.00238527       0.00711042      -0.00130497
Cl       7.26288288      16.20266295       6.31241369      -0.00309584       0.00340956       0.00202507
Cl       4.84549658      15.98652503       4.67227928      -0.00247169      -0.01444826       0.00553006
Cl       6.04076817      13.56499750       5.77526077       0.00807714      -0.00580651       0.01037241
C        5.70339393      15.25797768       5.99964482       0.00085142      -0.00710957       0.00676756
H        5.15124811      15.41030266       6.92040446       0.00099380      -0.00779415       0.00685012
Cl       3.13287238       5.90125920       8.36530537      -0.00430313       0.00255287      -0.00469051
Cl       4.80393339       3.51587769       8.14057222      -0.00411716       0.00199735       0.00547133
Cl       5.54962708       5.95285947       6.72243085       0.00045402      -0.00171067       0.00240490
C        4.78131052       5.28025478       8.17214639      -0.00383325       0.00186970       0.00155089
H        5.35478227       5.60843033       9.03127465      -0.00642863       0.00371661       0.00251329
Cl      12.07913339       5.57755978      11.49208081      -0.00697895       0.00686331      -0.00254813
Cl      12.18450804       2.69335921      11.10171120      -0.00176761       0.00633563       0.00483188
Cl      10.17209346       4.27574370       9.69886163      -0.00585517      -0.00140196       0.00263313
C       11.81043040       4.26016550      10.34340434      -0.00534526       0.00355417       0.00107522
H       12.49980084       4.38954025       9.51659728      -0.00631173       0.00298064       0.00017954
Cl      11.39299532      10.94481158       6.13422181       0.00421698       0.00126880      -0.00778404
Cl      13.28604011      11.85804834       4.09960261       0.00869903       0.00811377      -0.00058728
Cl      12.11716964       9.17209561       3.94505705      -0.00011306       0.01292862      -0.01735841
C       11.87100992      10.86097649       4.42012495       0.00568533       0.01086815      -0.00788748
H       11.04573246      11.25305613       3.83690070       0.00791565       0.01730050      -0.00634421
Cl       1.32009542       6.34212656      11.84368840       0.00302616      -0.00102329       0.00718668
Cl       3.28389981       4.19455075      11.71924564      -0.00216511      -0.00452874      -0.00417379
Cl       2.31579975       5.13153813      14.30556345       0.01420267      -0.00278722       0.00137195
C        1.91075198       4.84754013      12.60579758       0.00423291      -0.00210333       0.00355189
H        1.10588090       4.12250713      12.57527188       0.00287494      -0.00066924       0.00812190
