197
Lattice="17.76456513417551 0.0 0.0 0.0 17.76456513417551 0.0 0.0 0.0 17.76456513417551" Properties=species:S:1:pos:R:3:forces:R:3 energy=-2110654.75 stress="-0.0004097953496966511 0.00032603266299702227 0.00015451713261427358 0.00032603266299702227 -0.0004953326424583793 -0.00028022345213685185 0.00015451713261427358 -0.00028022345213685185 -0.0008541661663912237" pbc="T T T"
Eu       9.45258647      14.52321236       8.91076256       0.01027521       0.00321123      -0.00060749
Eu       3.17384577      16.65587182      -3.53116801       0.00240097       0.00710309      -0.00395891
O        0.72502497      16.85178424      17.33966063       0.00100803      -0.00478482      -0.00264847
O        0.74634748      14.30331435      16.65399422      -0.00022817      -0.00053787      -0.01651645
O        3.02707970      15.84676798      16.23164324       0.00104451      -0.00006580      -0.00526226
O        1.05034394      16.23950506      14.71292648       0.00410104       0.00795573      -0.00626504
Cr       1.30379129      15.76279459      16.34150762       0.00148904       0.00034484      -0.00772023
O        8.55270081      15.54349321      12.86843418      -0.00504488       0.00669229       0.01168227
O        9.93615987      16.15957082      10.47677028      -0.01131535       0.00402343      -0.00242952
O        7.65022500      15.07021851      10.23413968       0.00893235      -0.00728209       0.00296885
O        9.61895347      13.70499956      11.06808581       0.00884306       0.01556218      -0.00151226
Cr       8.88675292      15.18051361      11.36817749       0.01004729      -0.00660292      -0.04232478
O        5.56847078      17.90110591      11.12271496      -0.00800490       0.01115143      -0.00639534
O        3.60895760      16.32703559      10.31102518       0.00310600       0.00139225      -0.00872993
O        3.16973816      17.89597377      12.47629902      -0.00806940       0.00152957      -0.00860576
O        4.66316689      15.89928176      12.82972341       0.00188136       0.00744975      -0.00607389
Cr       4.33234849      17.00066192      11.55814595      -0.00448471       0.00502442      -0.00791073
Cl       5.46294503       8.09902618       4.50375722       0.03058657       0.00729787      -0.00383040
Cl       6.40845586      10.46600265       5.91054120      -0.00971922       0.01898906       0.00439306
Cl       4.61580169      10.74731616       3.61316254       0.00992773      -0.00264373      -0.01282492
C        5.07022855       9.74180120       5.00588516       0.00757447       0.00304144      -0.00814461
H        4.21437444       9.70256285       5.66774910       0.00161803      -0.00608500      -0.01650901
Cl       3.27067369       6.01774921      15.22148885      -0.00025478      -0.01073179       0.00354981
Cl       0.89797808       4.84528599      16.45869699      -0.01202171       0.01807037       0.00773218
Cl       1.95289682       7.35684660      17.46046328       0.02583838       0.00057651       0.01178688
C        1.73135031       6.34849446      16.02452955       0.00716380       0.00769817       0.00936349
H        1.10218970       6.88851638      15.32654572       0.01219401       0.01844293       0.01348792
Cl      14.16567035      17.36839851       1.55508092      -0.01270185      -0.00523001       0.00504449
Cl      13.16543457      14.63299856       1.66640001       0.00647494      -0.01272443      -0.01178011
Cl      15.94205869      15.15461074       0.87279780       0.00227845       0.01137632      -0.00903448
C       14.60126135      15.67115996       1.87339273      -0.00042610      -0.00417373      -0.00533715
H       14.89416198      15.60084193       2.91460521       0.00075880      -0.00879145      -0.00600857
Cl       4.28824000      15.29760315       2.99757071       0.02674511      -0.03755543       0.00010568
Cl       6.18610265      15.55551619       0.79114859       0.01206224       0.00996375      -0.00651672
Cl       4.18397745      17.63303464       1.25602619      -0.01076686      -0.02056783       0.02852598
C        5.22637113      16.43375242       1.99162282       0.00868411      -0.01494576       0.00867537
H        5.91337998      16.94711826       2.65364448       0.00519717      -0.01363586       0.01118557
Cl      12.93799110       4.53708131       7.97356933      -0.00570443       0.00189082      -0.00235055
Cl      15.20545955       3.71009719       9.63612202      -0.00900478      -0.00032786       0.00011660
Cl      13.56764032       1.70238870       8.31385923      -0.00383057       0.00188725      -0.00956633
C       14.21386679       3.35569795       8.20577114      -0.00493846       0.00274393      -0.00316413
H       14.87211233       3.39299276       7.34330973      -0.00305843       0.00541777      -0.00150852
Cl       5.41398224       0.24811187      15.78404881      -0.03179973       0.00386251       0.02204924
Cl       7.51299837       0.54267352      13.73645141      -0.04588012      -0.01721393       0.00515580
Cl       6.98329343       2.72911117      15.60551600      -0.02300517      -0.00388372      -0.00421176
C        7.03741916       0.98610388      15.33763166      -0.03247035      -0.00464407       0.00654778
H        7.71928992       0.55538375      16.06141854      -0.02929081      -0.00296915       0.00377885
Cl       0.41535704       8.02652796       3.63506161      -0.00533020       0.00380409      -0.01433367
Cl      -0.13817091       5.33639172       2.65820200       0.00187010      -0.00517237       0.00886226
Cl       2.61909062       6.18682928       3.15334244      -0.00262240      -0.00526214       0.03326976
C        0.93365506       6.33745066       3.65689316      -0.00831803       0.00357831       0.01107548
H        0.85700748       5.97921973       4.67598712      -0.02169759       0.01557057       0.01422229
Cl       3.98301817       6.13376918       9.94580160       0.01156101       0.01172607      -0.00015399
Cl       3.53298162       7.69126301       7.54470129       0.00885554      -0.00938198      -0.01374254
Cl       5.97382052       6.11295514       7.81581662       0.01070461      -0.00312784       0.00007403
C        4.25795594       6.20875088       8.20791405       0.01076707      -0.00242923      -0.00078081
H        3.75556928       5.36178377       7.75518289       0.01215568      -0.00714326       0.00670598
Cl       4.13935231      10.67762767       9.32727413       0.00116146      -0.00511917      -0.00132458
Cl       5.05084724      12.08012364      11.73124484       0.01047426      -0.00570792      -0.00485280
Cl       4.50475248      13.56462181       9.28250090       0.01157635      -0.00664234      -0.00550318
C        4.04864045      12.19196650      10.26345066       0.00811399      -0.00368924      -0.00317060
H        3.02188115      12.31321494      10.58730582       0.00931358       0.00048708      -0.00147517
Cl      14.53263179       7.42027491      14.77743611       0.00270629       0.00689653      -0.00278623
Cl      16.50917684       9.20267641      13.58759450      -0.01150420       0.00560342      -0.02442208
Cl      14.00727635       8.68420190      12.20454771      -0.02278429      -0.00199654      -0.00242633
C       14.79284688       8.85949384      13.78700032      -0.00914928       0.00403742      -0.00970823
H       14.32861903       9.70071980      14.28819096      -0.00682260       0.00499043      -0.00869910
Cl      -0.33754629      12.68091265      13.92191096      -0.00254452      -0.00761282      -0.01208013
Cl       2.25724635      13.85390122      13.16767964       0.00466958      -0.01035868       0.01024513
Cl       0.04723298      13.82720166      11.28291327       0.00917479       0.02277435       0.00312310
C        0.47039163      13.93737271      12.99598405       0.00561453      -0.00040282       0.00525360
H        0.18858400      14.90727601      13.39851399       0.00845505      -0.00430673       0.01678570
Cl      10.34123058       7.51672502       6.63865757       0.01111116      -0.01218931      -0.00217091
Cl      10.01056025      10.39999348       6.94062239       0.01574522      -0.01033871      -0.01514566
Cl      12.66102933       9.20055260       7.18611048       0.01243033      -0.01471264      -0.00260375
C       11.08336071       9.10371558       6.38883744       0.01480411      -0.01470696      -0.00664859
H       11.23599168       9.23506963       5.32459077       0.01799589      -0.01962607      -0.00670624
Cl       0.88028514       0.36553739       2.34932056      -0.01520002       0.01070964       0.00040582
Cl       2.63969498       1.40563772       4.44493518      -0.00255802       0.01597610      -0.01460665
Cl       2.43709967       2.77783492       1.86675448      -0.00253266      -0.00307652      -0.02439633
C        1.57710988       1.80168546       3.07427625      -0.00512890       0.01333302      -0.01284540
H        0.77416636       2.41346864       3.46791108       0.00107932       0.02194040      -0.01350246
Cl      15.37703074       2.97224089      16.34908872      -0.00201282      -0.00862113      -0.00170958
Cl      13.04849959       4.20866585      15.09584901      -0.00339845      -0.00142223       0.00824397
Cl      15.51728065       3.90201011      13.58543084      -0.00885688      -0.00170568       0.00052945
C       14.47449858       3.20870559      14.84238111      -0.00603533      -0.00337315       0.00132403
H       14.15144072       2.23346107      14.50087593      -0.00874105      -0.00192752       0.00026870
Cl       7.51567129      12.97720046       3.35403069       0.00924855       0.01475404       0.00047851
Cl      10.29407593      12.10556169       3.55447473       0.00481373       0.00340965      -0.00974901
Cl       9.49224598      13.95012185       1.43604391      -0.00273179      -0.01911739      -0.02349892
C        9.20172041      13.42904565       3.09795931       0.00905129       0.00400326      -0.01713137
H        9.42231698      14.26903270       3.74551400       0.01893830       0.00974621      -0.02846438
Cl       6.39366825       5.65768775      13.06233385       0.01577619      -0.01039553       0.00741971
Cl       7.76302915       3.52273616      11.59515649      -0.00877255      -0.02186431       0.00178596
Cl       5.00210464       3.16059476      12.46764437      -0.01526362       0.01048064      -0.00524423
C        6.20976287       4.31011988      11.91665155       0.00096233      -0.00328951       0.00151332
H        5.86936900       4.72599281      10.97865318       0.00784111       0.00495252       0.00291234
Cl      13.57763776      13.57292957      15.10678037       0.00675732       0.00341292       0.00641246
Cl      11.88977240      15.96295814      15.18235304       0.00980292       0.00369322       0.04033215
Cl      10.72446738      13.38754284      14.48304552       0.00645179       0.01433593       0.00353009
C       11.94909547      14.21285765      15.44484341       0.00918659      -0.00039997       0.01376468
H       11.74827539      14.02365625      16.49154170       0.00805507      -0.01532765       0.01130667
Cl      12.63374008      12.87566032      11.61455059       0.00610461      -0.01735479       0.01259688
Cl      11.97104041      13.01539341       8.73176263       0.01430219      -0.00093297       0.01073617
Cl      14.72022194      12.64050992       9.58932205       0.00970397      -0.01761717       0.01762700
C       13.05775047      12.29896708      10.04173687       0.00710444      -0.01199885       0.01062655
H       12.87506932      11.23398262       9.95845384       0.00126266      -0.01058181       0.00660332
Cl      16.18482901       9.39850644      -0.55833480       0.01425639       0.02136457      -0.01484780
Cl      15.23354745      11.38596786       1.33621183      -0.00104436       0.01520534      -0.01640916
Cl      18.07793899      10.71928100       1.23259954       0.00047046       0.01962925       0.00071141
C       16.58509904      10.89764525       0.30477453       0.00651563       0.01985542      -0.00855901
H       16.74784102      11.67709503      -0.42910703       0.01028550       0.02209070      -0.00519556
Cl      12.43455761       4.82502074      11.57172979      -0.00817516       0.01083791       0.00529044
Cl      10.85259128       6.67017592      13.19031320      -0.01937663      -0.00315505       0.00992608
Cl      10.48965987       6.57771725      10.28970934      -0.00935128       0.01128760       0.00840905
C       10.87623155       5.64538012      11.74530549      -0.01132864       0.00474886       0.00459674
H       10.11009436       4.89080214      11.86530755      -0.00923017       0.00156417      -0.00229274
Cl      11.42925202      11.16638460      17.89751234      -0.00129244      -0.00695515       0.00244045
Cl      12.03085134       8.30794631      17.87410347      -0.00063929      -0.00644428      -0.00284998
Cl      11.65212309       9.74522481      15.35916818       0.00312728      -0.00065289      -0.00002560
C       12.23691573       9.84697132      17.03182895       0.00061221      -0.00477423       0.00099862
H       13.29703610      10.07113600      17.00392270       0.00052720      -0.00432400       0.00334128
Cl      17.40295386      -0.16603444       6.43454756       0.00272164      -0.00765646      -0.00468709
Cl      17.10141864       2.71333467       6.08833479      -0.00044386      -0.00782879      -0.00050651
Cl      15.63351238       0.88316733       4.35098824      -0.00752428      -0.00654951       0.00462013
C       16.30094839       1.12396949       5.96752373      -0.00011523      -0.00775124       0.00150692
H       15.47746281       1.12356172       6.67350146       0.00320223      -0.00887241       0.00503646
Cl      18.09565855       6.88795010       7.43132178       0.00347066       0.01191042       0.01036327
Cl      15.53138054       7.57483728       8.63364806       0.00162847       0.00193647       0.01124194
Cl      15.62568404       6.41894830       5.94549881       0.00515316       0.00539208       0.00993341
C       16.37597593       6.46905417       7.54870655       0.00491241       0.00607017       0.01013502
H       16.31751942       5.47527309       7.97819239       0.00782224       0.00507843       0.00827265
Cl       4.86969052       9.88203161      15.80130726      -0.00098622      -0.00264730      -0.00084758
Cl       3.67347759      12.43555890      16.56683950       0.01113562       0.00148344       0.00362127
Cl       2.02999856      10.37696363      15.33176667       0.00033829       0.00895238       0.00496557
C        3.40897803      10.70768369      16.39371233       0.00351040       0.00264385       0.00227015
H        3.17515031      10.29270614      17.36588698       0.00347248       0.00266668       0.00225049
Cl       9.61964448      10.49077951      10.76245808       0.01634103      -0.00073275      -0.01206955
Cl       7.91379406      12.02845787       8.85397474       0.01909816      -0.00050628      -0.01398314
Cl       7.46089270       9.18032528       9.33409906       0.01096882       0.00258867      -0.00709189
C        8.01692931      10.65381592      10.09012723       0.01617087       0.00236195      -0.01116663
H        7.31516898      10.96359243      10.85708439       0.01867138       0.00678954      -0.01078461
Cl       1.53699299       3.34261038      12.84971072      -0.01621430       0.00994672       0.00259593
Cl      -0.05507935       0.93004805      13.20444920      -0.01060870       0.00958031       0.02247933
Cl       2.11127381       1.57575112      15.12137565       0.00716218       0.01368047      -0.00104412
C        0.83734728       2.21349365      13.99633943      -0.00475171       0.01151474       0.01126371
H        0.15670931       2.75416508      14.64147929       0.00119907       0.01222014       0.01675135
Cl       2.97169341       0.65030127       7.91359784      -0.00524294       0.01143199      -0.00193891
Cl       4.88135877       2.71743214       8.64882764       0.00433549       0.00221363      -0.00056158
Cl       2.02617655       3.11208110       9.13652985       0.00718299       0.01151738       0.00689578
C        3.35081637       1.92280163       9.06016161       0.00243767       0.00686523       0.00054639
H        3.46199646       1.48252988      10.04621637       0.00321148       0.00432995      -0.00079992
Cl      11.09719884      14.38555085       6.01238751      -0.01821376      -0.01113363       0.01429181
Cl      12.68577759      16.77090658       5.38829876      -0.02808805      -0.01506560      -0.02570103
Cl      11.19573079      16.58336121       7.90265798       0.01443288      -0.00202328       0.00029641
C       12.12474954      15.70282810       6.64537251      -0.00630450      -0.00716189      -0.01012689
H       12.97221817      15.23780215       7.14456756       0.00196180      -0.00554286      -0.02267830
Cl      10.25007335       2.37385382       9.45080559       0.00122659      -0.00286325       0.00736955
Cl       8.18043097       1.44679676       7.62114459       0.00661308      -0.00541081       0.00301882
Cl       9.26183779       4.13316085       7.32780886      -0.00791186       0.00150907       0.01526660
C        9.61562804       2.46315538       7.80408353       0.00093305       0.00141307       0.00785755
H       10.38417431       2.08988721       7.13682318       0.00337249       0.00906074       0.00656077
Cl       2.53830736      13.96295727       5.93155337      -0.00275001      -0.01468255      -0.00785063
Cl       0.69704094      12.56766607       7.72309412      -0.00349774       0.00011683       0.00219958
Cl       1.46808220      15.32442411       8.26959283       0.01492584      -0.00334907      -0.00701463
C        1.15070597      14.14349644       7.01720050       0.00260015      -0.00398420      -0.00274602
H        0.31303014      14.47131306       6.41279415       0.00220412      -0.00072464      -0.00027296
Cl       9.11893665       3.47787168      18.78163314      -0.00975576      -0.00421872      -0.00144514
Cl      11.95869014       4.11578588      18.59867130      -0.01039606       0.00385227       0.01338664
Cl      10.89869450       1.76737479      17.21533126       0.00651439      -0.00265092       0.01458659
C       10.55984679       3.42209510      17.76332893      -0.00352482      -0.00250944       0.00748251
H       10.36900463       4.02111542      16.88114694      -0.00051885      -0.00515197       0.00497296
Cl      14.19529382      12.68596043       4.82205841      -0.01109855       0.00175302       0.01293299
Cl      15.97394826      10.38357544       5.12058949      -0.00734896       0.00259724      -0.00519753
Cl      17.04301851      12.95986010       4.25459299      -0.01434934       0.00734977       0.00136769
C       15.83518480      12.13560345       5.24741022      -0.00853816       0.00156894       0.00330141
H       16.01316759      12.40779441       6.28117829      -0.00421792      -0.00273024       0.00362709
Cl       3.76990178       8.63318277      12.47510304      -0.00515845      -0.00514991       0.00682041
Cl       1.27118365       7.21231638      12.01713136      -0.00574310       0.00136814      -0.00507294
Cl       1.38486470      10.11371403      11.67545870       0.00126566       0.00204769       0.00337850
C        2.28041379       8.59032936      11.53945199      -0.00184038       0.00052354       0.00155041
H        2.53919371       8.45918510      10.49627265       0.00126778       0.00298037       0.00204131
Cl       7.29603158       6.56894471      -1.17119904      -0.01308930      -0.01645715      -0.00993942
Cl       5.60352579       5.43315629       0.92350086      -0.00868826      -0.00257495       0.00069928
Cl       6.37791870       8.24411473       1.03628535       0.00890748      -0.00736716      -0.00814518
C        5.98608565       6.88546060      -0.01642338      -0.00496863      -0.00658983      -0.00361441
H        5.10678189       7.14750223      -0.59193609      -0.00638860      -0.00224549       0.00072299
Cl      15.71143036      16.60743607       9.84718582      -0.02545959      -0.00446913      -0.01300010
Cl      12.98119736      16.70930370      10.90984437      -0.01474896       0.00255555       0.01525715
Cl      15.21957532      16.23121681      12.71141300       0.00221176       0.00496382      -0.00654086
C       14.68877541      17.04668071      11.23253909      -0.01112595       0.00122073      -0.00356072
H       14.80059339      18.11342505      11.38499263      -0.00786182       0.00148928      -0.00861092
Cl       8.32777084      16.46850009       5.02295831      -0.00820684      -0.00598288      -0.00041449
Cl       7.05480299      15.48897507       7.49702432       0.00374427       0.00590343       0.00873043
Cl       5.66127024      17.34988606       5.77171833      -0.00891604      -0.01086460       0.00227597
C        6.79478660      16.02699575       5.78531464      -0.00444829      -0.00760061       0.00744379
H        6.38215273      15.18033109       5.24631584      -0.00454871      -0.01126023       0.01313676
