197
Lattice="14.310475417220538 0.0 0.0 0.0 14.310475417220538 0.0 0.0 0.0 14.310475417220538" Properties=species:S:1:pos:R:3:forces:R:3 energy=-3470449.5 stress="0.00014739358448423445 0.00019074726878898218 -2.5536644898238592e-05 0.00019074726878898218 0.0003715940110851079 -0.00027385544672142714 -2.5536644898238592e-05 -0.00027385544672142714 0.0009157980093732476" pbc="T T T"
Fm      11.62508600      11.97193967       9.92634104      -0.00849307      -0.00845647       0.00044224
Fm       6.32947982      12.91160735      12.52983362      -0.00409549       0.00421338      -0.01826787
O       12.97680238       9.00559298      12.89831873       0.00724936      -0.01089716      -0.00022262
O       10.25020619       9.80931999      13.23615240       0.00727880      -0.01408520       0.00948191
O       11.34221793       9.78934970      10.49652762      -0.01187506      -0.01420689       0.00609756
O       12.15775295      11.77804748      12.12305029      -0.00772625      -0.01139486      -0.00020754
W       11.69420318      10.01852083      12.27248071      -0.01331729      -0.00761604       0.00235027
O       10.17024013      11.92906357       8.21046810      -0.04149620       0.00417042       0.02358210
O        9.79456704      14.64268239       6.97454505      -0.01071439       0.00621116      -0.00379765
O       10.82808788      14.06258858       9.69210647       0.00542539      -0.00561810      -0.00141585
O        7.96967174      13.77416084       9.03832804       0.00434494       0.03722079       0.02841687
W        9.60723548      13.65596842       8.40243829      -0.02071297      -0.00888938       0.04460037
O        5.41629777      11.82110129      -0.09973654      -0.02181244       0.02073514      -0.02065841
O        6.37239604      14.34266983      -0.05698902       0.00874758       0.00144589      -0.01506069
O        6.52181991      12.83490920       2.50993412      -0.02414143      -0.00171411      -0.00459719
O        3.98680972      13.78539037       1.63549296      -0.00323296       0.03305638      -0.03584713
W        5.54818319      13.19982378       1.11003267      -0.01827598       0.01787002      -0.02415717
O        6.71249751      11.56104146       5.98070783       0.00619340       0.00393623       0.00122517
C        6.91292479      10.51957125       5.03768904       0.00534183       0.00221509       0.00288253
C        5.46780176      12.20429053       5.80310862       0.00635973       0.00428456       0.00195849
C        8.34756504      10.06364439       5.12003305       0.00573844       0.00358012       0.00243990
C        5.35798350      13.32778182       6.80573069       0.00949801       0.00593185       0.00041544
H        6.22831996       9.68526955       5.26332098       0.00623775       0.00211883       0.00494966
H        6.67352062      10.88080022       4.03092801       0.00355569       0.00027469       0.00242871
H        5.39296765      12.57849397       4.77283638       0.00494400       0.00249630       0.00134158
H        4.64847028      11.47871957       5.94914774       0.00594300       0.00532901       0.00462715
H        8.48966510       9.18297348       4.49330647       0.00674737       0.00333183       0.00312687
H        9.01667965      10.84645827       4.76529220       0.00468062       0.00382859       0.00123094
H        8.62413438       9.80678391       6.14195427       0.00624254       0.00521921       0.00273824
H        4.40029857      13.83813816       6.68580646       0.00976124       0.00663515       0.00254318
H        5.43922470      12.95290421       7.82650687       0.01225320       0.00761051       0.00072840
H        6.16514122      14.04673453       6.66685819       0.00982574       0.00542326      -0.00325926
O       13.04617020       2.79045504       5.43126688      -0.00408280       0.00204431       0.00103426
C       12.40333527       1.90499901       6.34739776      -0.00459176       0.00244492      -0.00091930
C       12.31853916       3.99141120       5.29406638      -0.00243688       0.00429493       0.00198579
C       13.20751329       0.63713871       6.46526308      -0.00758550       0.00049990      -0.00327355
C       12.95738577       4.83982710       4.22242768      -0.00164589       0.00415200       0.00253525
H       12.31310582       2.39447321       7.32737200      -0.00414614       0.00056040       0.00007069
H       11.38719779       1.67820281       6.01030198      -0.00576615       0.00461619      -0.00157642
H       11.27346337       3.76319366       5.03570220      -0.00252205       0.00507595       0.00168382
H       12.29561995       4.53069076       6.25287965      -0.00171827       0.00281593       0.00251770
H       12.67859777      -0.04644303       7.13012251      -0.00886433       0.00095965      -0.00358178
H       13.31565352       0.15540142       5.49326934      -0.00866902       0.00173931      -0.00392573
H       14.20082139       0.83268954       6.87005290      -0.00690807      -0.00206243      -0.00323866
H       12.41947524       5.78277072       4.11944048      -0.00115097       0.00449230       0.00292002
H       13.99525254       5.05961734       4.47349082      -0.00144528       0.00355200       0.00273871
H       12.93706477       4.32713484       3.25929272      -0.00181229       0.00465697       0.00232805
O       11.14126831       2.38902291       1.37246791       0.00064760      -0.00427125       0.00038600
C        9.92069631       2.75091017       1.98833071      -0.00008994      -0.00338924      -0.00145921
C       11.92319076       1.52870942       2.18445546       0.00089973      -0.00042123       0.00464964
C        9.15913193       3.65220565       1.04711169       0.00057861      -0.00627220      -0.00439391
C       13.13352672       1.10488690       1.38942460       0.00320324      -0.00068519       0.00846174
H        9.33825551       1.84917191       2.22247932       0.00025824      -0.00358862      -0.00021147
H       10.12052714       3.26338596       2.94190723      -0.00230078      -0.00118327      -0.00171357
H       12.22171275       2.04134950       3.10891841      -0.00130667       0.00186512       0.00461400
H       11.32523557       0.65591371       2.47988295       0.00175118      -0.00085962       0.00610913
H        8.21513152       3.95763376       1.49999603      -0.00040904      -0.00603271      -0.00687392
H        9.74336958       4.54311384       0.81613274       0.00036126      -0.00629902      -0.00550927
H        8.94421969       3.13588259       0.11174591       0.00285995      -0.00882232      -0.00350849
H       13.77064328       0.44762470       1.98142002       0.00311791       0.00143735       0.01088719
H       12.83253606       0.57289427       0.48636753       0.00548661      -0.00288424       0.00898106
H       13.71970271       1.97501427       1.09269662       0.00255682      -0.00045191       0.00771495
O       10.73864792      11.00954647       1.85350189      -0.00452948      -0.00256565       0.00208133
C       11.10235642      12.23684455       1.26234888      -0.00794357      -0.00096285       0.00324935
C       11.81130132      10.09215170       1.91706045      -0.00248379       0.00008452       0.00015058
C        9.84825604      13.04407790       1.03080808      -0.00969142      -0.00253952       0.00710474
C       11.23764963       8.73154339       2.22644404       0.00110161      -0.00275767      -0.00581862
H       11.80667037      12.77606361       1.91750295      -0.00796282      -0.00032064       0.00293899
H       11.62110496      12.05834645       0.30844816      -0.00968984       0.00145125       0.00193018
H       12.34121063      10.06080402       0.95506485      -0.00097218       0.00510598       0.00065660
H       12.54074405      10.40477958       2.67957862      -0.00413877      -0.00061944       0.00218058
H       10.08938726      13.99813812       0.55867200      -0.01227468      -0.00119294       0.00882139
H        9.17803475      12.48720618       0.37545790      -0.00981192      -0.00140315       0.00680262
H        9.31119558      13.22808385       1.96180089      -0.00899586      -0.00535132       0.00819874
H       12.03483932       7.99292663       2.31149727       0.00337245      -0.00041139      -0.00643887
H       10.67533420       8.75585115       3.16085655      -0.00083478      -0.00765093      -0.00680628
H       10.57116132       8.43407607       1.41803438       0.00384448      -0.00171776      -0.00846463
O        2.77886595       2.63828096      12.99105477      -0.00357489       0.00153106       0.00624698
C        1.95209169       1.48988875      12.94462235      -0.00563699       0.00304716       0.00492269
C        4.07259260       2.33985369      13.49198555      -0.00375432      -0.00188428       0.00504792
C        0.59584792       1.88857326      12.41811317      -0.00427735       0.00600900       0.00313564
C        4.88508600       3.60932320      13.51919445      -0.00099617      -0.00359863       0.00791487
H        2.40140016       0.73427931      12.28390834      -0.00582418       0.00243127       0.00552475
H        1.88205241       1.03967969      13.94544615      -0.00749705       0.00334893       0.00479865
H        4.00281796       1.89437451      14.49236172      -0.00454058      -0.00489894       0.00331843
H        4.55635799       1.58676527      12.85025004      -0.00520921      -0.00098661       0.00281870
H       -0.06225669       1.02042839      12.38142901      -0.00589696       0.00725143       0.00100336
H        0.13670613       2.64110428      13.05844579      -0.00402488       0.00618336       0.00326219
H        0.68538999       2.30158378      11.41289794      -0.00223406       0.00694302       0.00362770
H        5.87706215       3.39879619      13.91902609      -0.00127828      -0.00784098       0.00665107
H        4.98765683       4.02608605      12.51569448      -0.00047102      -0.00059427       0.00923830
H        4.40928157       4.35426058      14.15716369       0.00162268      -0.00419573       0.01071396
O        4.38048317       2.71687365       2.88642805       0.00081867       0.00293046       0.00186151
C        5.07767645       1.80533213       3.72598803       0.00195223       0.00055319      -0.00248825
C        2.98692408       2.66833449       3.12353194       0.00033158      -0.00293979       0.00017983
C        6.54669673       1.86612019       3.39404599       0.00147915       0.00105244      -0.00534090
C        2.29266228       3.64594806       2.20582686      -0.00151569       0.00069249       0.00552744
H        4.90387670       2.07744095       4.77841013       0.00431470      -0.00241318      -0.00133121
H        4.68675875       0.79236969       3.56530158       0.00189820       0.00088489      -0.00449944
H        2.62268115       1.64541440       2.95462556       0.00430755      -0.00286484      -0.00717476
H        2.78538614       2.92405239       4.17481000      -0.00127345      -0.00995176       0.00162882
H        7.10003891       1.15108508       4.00301305       0.00240645      -0.00022937      -0.00703855
H        6.70764833       1.61045827       2.34496490      -0.00048614       0.00258179      -0.00597054
H        6.93994439       2.86823519       3.57504466       0.00213263       0.00046954      -0.00440188
H        1.22553086       3.66847847       2.43209046      -0.00166288      -0.00268961       0.00549378
H        2.69413032       4.65116358       2.34475457      -0.00337382       0.00062791       0.01108701
H        2.41599253       3.36747597       1.15877104      -0.00071768       0.00623187       0.00413108
O        4.24336047       4.96612006       7.33439223       0.00413394      -0.00436813      -0.00036001
C        4.68640181       4.41085747       8.55957601       0.00076813      -0.00438815       0.00092162
C        3.63886401       6.23221371       7.50305387       0.00322115      -0.00496414      -0.00040472
C        5.33249065       3.07560269       8.28419774       0.00070341      -0.00457418       0.00105466
C        3.16412074       6.72548720       6.15755595       0.00592338      -0.00291142      -0.00049001
H        5.39925969       5.09908089       9.04001041       0.00005093      -0.00501028       0.00304076
H        3.83545834       4.29733278       9.24757066      -0.00146139      -0.00140847      -0.00134531
H        2.79789665       6.15428462       8.20897172       0.00163937      -0.00594728      -0.00229883
H        4.36481593       6.93650215       7.93921444       0.00224242      -0.00572339       0.00229463
H        5.67802946       2.61860200       9.21175204       0.00034533      -0.00702171      -0.00005360
H        4.62098164       2.39757372       7.81393724       0.00185211      -0.00312721      -0.00288548
H        6.18853206       3.18651761       7.61906700       0.00149022      -0.00266876       0.00223477
H        2.69262421       7.70394958       6.25483924       0.00555362      -0.00321376       0.00109547
H        4.00223037       6.81407461       5.46679782       0.00709547      -0.00111622       0.00112152
H        2.43908214       6.03122581       5.73242300       0.00695150      -0.00235476      -0.00318920
O       10.11420002       7.75389506       7.19789754       0.00049931      -0.00435059      -0.00257897
C        9.44781156       7.23157273       8.32910002       0.00128776      -0.00140497      -0.00036618
C       11.42296297       8.20792770       7.50895109       0.00058150      -0.00366378      -0.00453290
C        8.04440672       6.85502065       7.91646102      -0.00057817       0.00156438       0.00291634
C       11.97604437       8.93206156       6.30607222      -0.00088005      -0.00443596      -0.00571954
H        9.98631503       6.35461196       8.71931567      -0.00004917      -0.00242698      -0.00061141
H        9.43924380       7.98324217       9.13100213       0.00472392      -0.00055850      -0.00144812
H       11.38695926       8.86555557       8.38559363       0.00110952      -0.00293362      -0.00484931
H       12.05539381       7.34747638       7.77780612       0.00145704      -0.00306177      -0.00418180
H        7.50349993       6.42854414       8.76246439       0.00045339       0.00366398       0.00465788
H        7.50270877       7.73080668       7.55669241       0.00082265       0.00272112       0.00357651
H        8.06266853       6.11634693       7.11518593      -0.00459428       0.00075723       0.00358774
H       12.98852252       9.28129923       6.51427893      -0.00086431      -0.00346656      -0.00714473
H       12.01016459       8.27484246       5.43597063      -0.00115185      -0.00511801      -0.00530504
H       11.35475978       9.79355572       6.06204667      -0.00180298      -0.00516912      -0.00615645
O        0.85018805       9.55747556       1.55759748       0.00275630       0.00175554      -0.00267833
C        1.05200802      10.40820693       0.43257451       0.00373937       0.00191617      -0.00233988
C        0.70496717       8.20062189       1.17982529       0.00226582       0.00194508      -0.00305322
C        1.02729016      11.84350805       0.89684503       0.00102373       0.00200450      -0.00272924
C        0.62195751       7.36642777       2.43648446       0.00097547       0.00135660      -0.00343430
H        2.02159181      10.16852184      -0.03048761       0.00477266       0.00314857      -0.00075051
H        0.27363396      10.20954607      -0.31286051       0.00517595       0.00095798      -0.00385278
H       -0.18464644       8.08429696       0.54841598       0.00233817       0.00269243      -0.00363326
H        1.56795835       7.88785089       0.57150564       0.00227672       0.00152890      -0.00281870
H        1.10662966      12.50991580       0.03728840       0.00366442       0.00219680      -0.00221984
H        0.08482437      12.05491166       1.40401648      -0.00073010       0.00132689      -0.00562262
H        1.85376568      12.07226340       1.57033266      -0.00135815       0.00255902       0.00015603
H        0.44633167       6.31983823       2.18695422      -0.00095482       0.00186086      -0.00399455
H        1.54575140       7.43207594       3.01349665       0.00129880      -0.00067192      -0.00349478
H       -0.19457654       7.71139226       3.07128615       0.00171903       0.00258397      -0.00315435
O        6.51708144      11.00228515      11.01716884       0.00665094      -0.00283045      -0.00163751
C        5.64792321       9.94000703      10.64667504       0.00764424      -0.00217566      -0.00268682
C        7.92461040      10.77281722      10.83420260       0.00787674      -0.00070572      -0.00151712
C        4.23017702      10.39448700      10.89145264       0.00866836      -0.00321862       0.00485826
C        8.62429197      11.92855405      11.50743323       0.00419532      -0.00387177       0.00846839
H        5.82140345       9.69408973       9.59281608       0.00382184       0.00212517      -0.00434983
H        5.89201905       9.05498539      11.24707685       0.00974201      -0.00537047      -0.00777370
H        8.20964771       9.82320844      11.29720934       0.00186459      -0.00586444      -0.00852320
H        8.14885630      10.73616603       9.76438204       0.01071071       0.00977201      -0.00111479
H        3.53126123       9.58405711      10.68679765       0.00803965      -0.00296763       0.00722211
H        4.10682755      10.70040580      11.93280461       0.01406190      -0.00422267       0.00579545
H        3.97894299      11.23413519      10.24315895       0.00517749      -0.00235736       0.00731269
H        9.70451511      11.88340371      11.36921954       0.00647931      -0.00412950       0.02644777
H        8.28835198      12.87884186      11.07492390       0.01199190      -0.00147538       0.00714716
H        8.49437463      11.89192238      12.59537954      -0.01196907      -0.00392161       0.00613551
O        5.76698408       8.44161133       2.40374637       0.00116616       0.00077581      -0.00188643
C        4.35365580       8.45218892       2.36818132       0.00168639       0.00467658      -0.00418253
C        6.31792454       7.34059794       1.71529728      -0.00220418       0.00072077      -0.00436969
C        3.85338592       9.72460695       3.00145721       0.00441653       0.00270337       0.00144306
C        7.81735350       7.49807883       1.68680340      -0.00304168      -0.00347874      -0.00008752
H        4.01255564       8.38385988       1.32483272       0.00358565       0.01046991      -0.00520968
H        3.96391522       7.56492196       2.89330783      -0.00063242       0.00294322      -0.00898358
H        6.02466696       6.39969331       2.20752435      -0.00506613       0.00019318      -0.00772089
H        5.91352150       7.30609590       0.69151000       0.00138317       0.00572652      -0.00584263
H        2.76543198       9.76153176       2.94955881       0.00466534       0.00529317      -0.00036522
H        4.17286257       9.79103613       4.04054232       0.00223817      -0.00405586       0.00254123
H        4.25230084      10.58798611       2.46758263       0.00875096       0.00444946       0.00748040
H        8.27535145       6.67946100       1.13115852      -0.00034437       0.00280921      -0.00506777
H        8.09431149       8.43910618       1.21200210       0.00337802      -0.00509062       0.00431424
H        8.22318213       7.49588618       2.69817811      -0.00248352      -0.00270512      -0.00118688
O        9.05505938       4.72506555      11.53039022       0.00132680      -0.00206596      -0.00546893
C        8.23824059       3.67185091      11.05201817       0.00016974      -0.00110614      -0.00493377
C        8.30200138       5.81150067      12.02615373       0.00344983      -0.00307959      -0.00069198
C        9.11054124       2.52723593      10.60523192      -0.00112239       0.00111344      -0.01212613
C        9.24115564       6.91746850      12.43285662       0.00510156      -0.00389418      -0.00314336
H        7.54628508       3.35002872      11.84569420       0.00388682      -0.00443867      -0.00286031
H        7.62103578       4.04141698      10.21734495      -0.00440928       0.00088507      -0.00095117
H        7.60156261       6.16243536      11.24931127       0.00038645      -0.00233085       0.00226027
H        7.68697748       5.47979913      12.87862567       0.00662783      -0.00416642       0.00142854
H        8.50197923       1.72350168      10.18786859      -0.00376931       0.00478728      -0.01539799
H        9.81200089       2.85145014       9.83723409      -0.00366272       0.00583217      -0.01331143
H        9.68669932       2.12536873      11.43789726       0.00145113      -0.00287532      -0.01500125
H        8.69939096       7.76522226      12.84994352       0.00688067      -0.00465295       0.00062288
H        9.94677959       6.57251087      13.18824244       0.00860327      -0.00511871      -0.00670198
H        9.81738994       7.27402819      11.57857744       0.00138539      -0.00266187      -0.00536737
