188
Lattice="14.271590089956543 0.0 0.0 0.0 14.271590089956543 0.0 0.0 0.0 14.271590089956543" Properties=species:S:1:pos:R:3:forces:R:3 energy=-2201816.75 stress="0.00017060621757991612 5.8725794588099234e-05 8.406711640418507e-05 5.8725794588099234e-05 -0.00026709106168709695 0.00014576147077605128 8.406711640418507e-05 0.00014576147077605128 -0.000515602296218276" pbc="T T T"
Fm       9.68232275      13.99494774      11.10260474       0.00194579       0.00942869       0.00420302
Fm       6.62874566      14.22685868      11.30614285       0.00599417       0.01784742       0.04116338
S        8.48689957      13.48998034      13.39871456       0.02165499      -0.00380508       0.01275891
S        6.46766847      13.73160281      13.82499114       0.02441463      -0.01481658       0.03335553
S       11.50094489      13.67663034       0.22449453       0.02396388      -0.00423327      -0.02546455
S       11.88483343      13.49870392      -1.75215429       0.01861815       0.01094626      -0.02713261
S       13.30633492      13.47016607       2.93385938       0.02215040       0.02627561      -0.02788210
S       13.39626099      13.58993386       1.02215161       0.02467275       0.00495947      -0.02909851
O       10.15950128       1.77888837       3.40798513       0.00302939      -0.00211971       0.00551309
O       12.09135396       1.90416564       4.37262993       0.00110464       0.00946812       0.00750123
O       11.76411748       3.06139053       2.45203328      -0.00211045       0.00337434       0.00414431
C        9.24365813       2.19796852       2.36378951       0.00111991      -0.00726524       0.00527909
C        7.96304705       1.43195982       2.55410777       0.00357193      -0.01044813       0.00850374
C       11.37171910       2.32011744       3.31988417       0.00038671       0.00315517       0.00572175
C       13.46059622       2.32541129       4.33606726      -0.00245370       0.02111465       0.01130569
H        9.09102458       3.27446908       2.46840724      -0.00187310      -0.00736946       0.00253627
H        9.71136115       1.99657538       1.39794278       0.00044876      -0.00851330       0.00520375
H        7.23275364       1.73122561       1.80127141       0.00149361      -0.01364437       0.00934929
H        8.12575975       0.36165778       2.43187889       0.00620578      -0.01012158       0.00960330
H        7.54074276       1.62641498       3.53965983       0.00470443      -0.01045421       0.00896780
H       13.91561934       2.04368247       3.38824775       0.00278860       0.02275114       0.01327148
H       13.94595521       1.79910709       5.15355759      -0.00057749       0.02733330       0.01414104
H       13.53132094       3.40440203       4.47207518      -0.01214233       0.02204996       0.00852527
O        5.53362827       6.55383474       3.24610759      -0.00253057       0.00322088      -0.00281274
O        7.07489377       6.49512656       1.74115836      -0.00325930       0.00221628      -0.00348181
O        7.47021968       5.47727423       3.72789140      -0.00228065       0.00419372      -0.00240207
C        5.05998477       6.32563929       4.59537888      -0.00117767       0.00530398      -0.00226668
C        3.70052574       6.96746439       4.68322922      -0.00104567       0.00530568      -0.00225675
C        6.76215815       6.11284975       2.98363582      -0.00248599       0.00347281      -0.00309521
C        8.41123529       6.16968836       1.33442352      -0.00143326       0.00747846      -0.00224197
H        5.03165311       5.24993708       4.78061154      -0.00086594       0.00556475      -0.00010803
H        5.77390809       6.76558840       5.29303805      -0.00045073       0.00658160      -0.00361800
H        3.31577369       6.85905921       5.69580587       0.00035145       0.00606376      -0.00180154
H        3.75310262       8.03232733       4.45694164      -0.00164997       0.00514507      -0.00324068
H        3.00606311       6.49895246       3.98343540      -0.00211771       0.00410312      -0.00042133
H        9.13613074       6.67671963       1.97200119      -0.00458916       0.01809582      -0.00711593
H        8.49423783       6.50775827       0.30772520      -0.00432397       0.00015546      -0.00486231
H        8.57610109       5.09495838       1.38531629       0.00611567       0.00906149       0.00603843
O        8.67780715       4.30585348      13.02309547      -0.00108951      -0.00904980       0.00329125
O       10.59170501       5.29598819      13.15675157       0.00163370      -0.01462135       0.00409736
O       10.55401225       3.03228796      13.03340237      -0.00483462      -0.01399410      -0.00179285
C        7.86060713       3.12849981      13.20290666      -0.00363427      -0.00727135       0.00111534
C        6.42971662       3.58986390      13.27285311      -0.00276750      -0.00461063      -0.00307460
C        9.99990702       4.10426812      13.07121268      -0.00126714      -0.01292688       0.00164655
C       12.02809626       5.24967906      13.27293419       0.00183392      -0.01857112       0.00285795
H        8.03052658       2.42926763      12.37678686      -0.00290179      -0.00710478       0.00092915
H        8.17180560       2.61384717      14.11063785      -0.00762188      -0.00818317       0.00193834
H        5.78258631       2.71642121      13.37509477      -0.00510503      -0.00249884      -0.00173973
H        6.27551789       4.23948348      14.13521286      -0.00347501      -0.00166921      -0.00536016
H        6.15291384       4.14994504      12.37709993       0.00025614      -0.00938629      -0.00692661
H       12.31002202       4.69301593      14.16458577       0.00068374      -0.01865752       0.00315198
H       12.33522989       6.28867596      13.34152994       0.00469303      -0.01922932       0.00141916
H       12.46286325       4.78602299      12.38927997      -0.00043879      -0.02122526       0.00315234
O       10.32072818       8.29479232       5.67641528      -0.00825126      -0.00910434       0.00937776
O        9.87594053      10.34933845       6.20184784      -0.00250608      -0.00989805       0.01548286
O        8.15665883       8.95661743       5.71873016      -0.00516129       0.00454748      -0.01912905
C        9.87787665       6.99689079       5.19509002      -0.01008934      -0.00290940      -0.00486449
C       11.09447820       6.18784815       4.82932517      -0.01064062      -0.00914662       0.00969519
C        9.33839514       9.17096765       5.84580421      -0.00446510      -0.00364000       0.00010090
C        8.91600593      11.36166508       6.52518954       0.00027442      -0.00320545       0.00214074
H        9.28968437       6.52423231       5.98292425      -0.02730462      -0.00339088      -0.01795992
H        9.21403996       7.15081061       4.34885192       0.00575712       0.00754344      -0.01533478
H       10.79433799       5.15729001       4.63600709      -0.01580070      -0.00389530      -0.00967781
H       11.56645603       6.58110829       3.93214375       0.01007967      -0.00094789       0.02414528
H       11.82657567       6.19164433       5.63884359      -0.02629261      -0.02610549       0.02373420
H        8.15927597      11.45089008       5.74918681       0.01341192       0.00389138      -0.00978354
H        9.48207462      12.28306988       6.61785726       0.00619338      -0.00797321       0.01236162
H        8.42225866      11.12730227       7.46913452      -0.01641701      -0.00090496      -0.00603616
O        2.88805621       9.06109940       1.74605095       0.00141145      -0.00176735      -0.00720920
O        3.63738795      10.91283672       2.58583013      -0.00317875      -0.00069322      -0.00656833
O        5.06586431       9.59687426       1.42249810      -0.00240815       0.00856134      -0.01654971
C        3.13280781       7.84774812       0.99933624       0.00395274      -0.00071444      -0.00787116
C        1.82046582       7.12213711       0.86368266       0.00581738      -0.00425528      -0.00645741
C        3.97355605       9.83440441       1.87543844      -0.00165689       0.00283079      -0.01049522
C        4.74462910      11.77901589       2.87053956      -0.00623891       0.00389110      -0.00802971
H        3.54346631       8.12132344       0.02790060       0.00220728       0.00076137      -0.00818220
H        3.88303720       7.25945353       1.52806205       0.00614572       0.00136748      -0.00870031
H        1.96764357       6.19919948       0.30178346       0.00822129      -0.00487749      -0.00482482
H        1.41107126       6.86368291       1.83979862       0.00686353      -0.00360651      -0.00581926
H        1.08891006       7.73321904       0.33373948       0.00402124      -0.00714374      -0.00729591
H        5.47330189      11.25798247       3.49149035      -0.00483273       0.00761887      -0.00641611
H        4.32223509      12.62053602       3.41097503      -0.00975545       0.00338803      -0.00993928
H        5.22292659      12.11529598       1.95088396      -0.00668596       0.00332083      -0.00875786
O        6.71844247      10.57703700      10.87156545       0.00832510       0.00831211      -0.00202498
O        8.82299745      10.38462364      10.42075398       0.00625968       0.01733565      -0.01006015
O        7.86625898      12.40828308      10.22415981       0.00268294       0.02024710       0.02396819
C        5.48681841      11.36400143      10.94120287       0.01060607       0.00859135       0.02030516
C        4.36758019      10.42592251      11.30857345       0.00977892       0.00241283       0.00046220
C        7.80218873      11.19920720      10.50274086       0.00624030       0.01588434       0.00505394
C       10.10915629      10.98977462      10.14208457       0.00533500       0.01880875      -0.00864619
H        5.61500071      12.10952158      11.74129004       0.01729020      -0.00796083       0.03478587
H        5.33212527      11.83571566       9.96707624       0.00924748       0.03101672       0.03164643
H        3.43633248      10.99229631      11.34012250       0.01025920       0.00227199       0.01103630
H        4.25647700       9.63211515      10.57271904       0.01038483       0.01779281      -0.01620877
H        4.53982839       9.99121244      12.29227461       0.00826926      -0.01896917      -0.00887373
H       10.05857099      11.62355510       9.25879241       0.00457713       0.02240507      -0.00619423
H       10.78352946      10.15924801       9.96363396       0.00458089       0.01922220      -0.01383739
H       10.44731422      11.54863037      11.02489198       0.00737990       0.01428159      -0.00678271
O        4.85156746      10.63666668       7.49950708      -0.00337612      -0.00748242       0.00897309
O        3.67548859      12.41353226       7.07675253      -0.00589219      -0.00758137       0.01415418
O        3.36080440      10.57485705       5.79349475       0.00246608      -0.00142500       0.00361902
C        5.20831247       9.25943851       7.17105380      -0.00057364      -0.00494904       0.00251475
C        6.22284499       8.79057715       8.17352860       0.00193575      -0.00867594      -0.00160965
C        3.91064685      11.14598047       6.69940921      -0.00181240      -0.00490218       0.00870901
C        2.66488423      13.06741794       6.29005977      -0.00310528      -0.00532185       0.01238035
H        4.30117454       8.65647087       7.19676958       0.00068492      -0.00691056       0.00105386
H        5.61022432       9.24603049       6.15847671      -0.00210629       0.00035188       0.00189400
H        6.48535555       7.75737893       7.94947757      -0.00114973      -0.00877482      -0.00539429
H        7.12991137       9.38973698       8.12308759       0.00292043      -0.01030186      -0.00235799
H        5.83434519       8.82763262       9.18855318       0.00575186      -0.01072737      -0.00004973
H        2.95248056      13.08905747       5.24042177       0.00056174      -0.00269353       0.01342377
H        2.59811723      14.07610015       6.68890568      -0.00418491      -0.00645682       0.01496767
H        1.71079416      12.54959826       6.37968210      -0.00346720      -0.00557081       0.00696819
O       11.07162595       8.05705416      11.54491103      -0.00287355      -0.00381099       0.00136788
O       10.81086946       6.92508578       9.73673841      -0.00517292      -0.00104413      -0.00009993
O        8.99812522       7.26262755      11.06011793      -0.00501788       0.00076497       0.00081384
C       10.58070475       8.68583718      12.75642482      -0.00258446      -0.00502300       0.00213409
C       11.73881278       9.44249002      13.34546442      -0.00577402       0.00314069      -0.00241058
C       10.16912171       7.40162348      10.81970174      -0.00272310      -0.00093153       0.00024906
C        9.95418100       6.30864728       8.77425674      -0.00603470       0.00598691      -0.00382653
H        9.74776332       9.34070427      12.49696089      -0.00794977      -0.01102680       0.00392663
H       10.20432526       7.90622043      13.42014359       0.00515039      -0.00676733       0.00466070
H       11.41805568      10.01736523      14.21117620      -0.00587424      -0.00145304       0.00060070
H       12.53180548       8.76617620      13.66907575       0.00108761       0.00850451      -0.00797928
H       12.16082268      10.14252059      12.62389004      -0.01489802       0.00762796      -0.00322279
H        9.33319973       5.55259196       9.24809995      -0.00876535       0.00506581      -0.00847979
H       10.61374566       5.86599801       8.03251992      -0.00669728       0.00787517      -0.00538725
H        9.30779613       7.05326380       8.30857092      -0.00311822       0.01034701      -0.00103176
O       10.38317973       9.93389387       2.88824530      -0.00045832       0.00461543      -0.00087573
O       12.19141129       8.78022956       3.21741600       0.00051421       0.00843198       0.00296755
O       12.33041809      10.68114884       2.00831530      -0.00113112       0.00817692       0.00157255
C        9.74963102      11.14883036       2.39978199      -0.00360274       0.00010109      -0.00698078
C        8.27016960      11.02717907       2.62924985      -0.00341624      -0.00710861      -0.01099020
C       11.69445548       9.88438080       2.64963209       0.00007188       0.00755340       0.00095379
C       13.60931473       8.63247805       3.02957001       0.00070040       0.00944722       0.00403884
H       10.19462080      11.99297962       2.93305249      -0.00982282       0.00414279      -0.00830859
H        9.98360673      11.27053916       1.34206635      -0.00013790      -0.00183141      -0.00656343
H        7.78933132      11.95202222       2.30725486      -0.00627854      -0.01037848      -0.01534873
H        7.83356064      10.20990187       2.05635189       0.00165826      -0.00823544      -0.01320195
H        8.04607690      10.85841316       3.68212563      -0.00733555      -0.00595240      -0.01162612
H       13.85015910       8.61251378       1.96975866       0.00088044       0.00417924       0.00410670
H       13.86395255       7.68523786       3.49825255       0.00165680       0.01205590       0.00872658
H       14.14135049       9.45602221       3.50166475      -0.00047439       0.01223826       0.00031248
O       12.82305417      10.21304155       7.34870240       0.00176371       0.00541075       0.00543151
O       12.08569831      12.25262075       7.46429590       0.00161180       0.00511995      -0.00049880
O       13.03150512      11.54426906       5.53179163       0.01131091       0.00325567       0.00471210
C       13.40959200       9.13493724       6.56537970       0.00228666       0.00385141       0.00836647
C       13.49382383       7.92644378       7.45614747       0.00184001       0.00651187       0.01178676
C       12.67967274      11.34122583       6.66679189       0.00568283       0.00460830       0.00335979
C       11.94707755      13.54129362       6.84579584       0.00314207       0.00487836      -0.00117478
H       12.76289896       8.96224341       5.70630374       0.00241289       0.00211718       0.00848344
H       14.39026291       9.46183272       6.21415549       0.00220546       0.00361653       0.00800660
H       13.90905515       7.09211797       6.88801720       0.00260553       0.00462636       0.01493742
H       14.13941648       8.10781390       8.31503835      -0.00061661       0.01073263       0.01274960
H       12.50721578       7.64319668       7.81999814       0.00172737       0.00772588       0.01192307
H       12.92494236      13.95335660       6.59998794       0.00398085       0.00832205       0.00788863
H       11.45084568      14.16737215       7.58372982      -0.00518859       0.00254560      -0.00489049
H       11.35839160      13.48006797       5.93148597       0.01109113       0.00386044      -0.00619256
O        7.23139163       2.16633149       9.92098837      -0.00326276      -0.00806516       0.00224052
O        5.15375405       1.60489879      10.01311916      -0.00226460      -0.00294459       0.00822899
O        5.67392358       3.70344941       9.32314181      -0.00454952       0.00760838      -0.02538414
C        8.29900517       3.13411167       9.68673688       0.00101658      -0.01762944      -0.00597873
C        9.61270812       2.42681836       9.89439700      -0.00061935      -0.01830691      -0.00243798
C        5.98287059       2.61568229       9.70889848       0.00783056      -0.04268801       0.00714171
C        3.73544656       1.87312560       9.92695021      -0.00063252       0.00222740      -0.00100668
H        8.18054470       3.50846261       8.67045039       0.00283382      -0.02454914      -0.00985038
H        8.16100417       3.96417952      10.38328597       0.00506213      -0.00982897      -0.01346894
H       10.42506779       3.10927986       9.64284599       0.00263208      -0.03036930      -0.02152867
H        9.77095191       2.14839621      10.94307051       0.00508112      -0.00009315       0.00168182
H        9.69880822       1.54722509       9.24636631      -0.01287926      -0.03059649       0.01203042
H        3.47711556       2.69987077      10.58360127       0.00080001       0.01476191      -0.01395515
H        3.25978573       0.94901674      10.23574099      -0.01156818       0.01150517       0.00687865
H        3.48052703       2.12634642       8.90413260       0.00846723      -0.00765466      -0.00690196
O        3.37648911       5.53743323       9.90578161      -0.00127804      -0.00526971      -0.00134993
O        2.71091675       4.33625951       8.23780885      -0.00528437      -0.00049773      -0.00283837
O        4.22638656       5.97311066       7.85055934      -0.00836200       0.00300911      -0.00304219
C        4.29297274       6.50998534      10.46054246      -0.00396487      -0.00150234      -0.00322616
C        3.94516427       6.69377761      11.91202105       0.00156963      -0.00547698      -0.00164086
C        3.51545638       5.34884200       8.59617190      -0.00710905      -0.00138634      -0.00191927
C        2.87678334       3.91384392       6.87946301      -0.00992446       0.00488266      -0.00536193
H        5.30972458       6.13699815      10.32169782      -0.00253409       0.00360747      -0.00843455
H        4.19472445       7.43492476       9.89292702      -0.01080849      -0.00110602      -0.00118731
H        4.66737493       7.36752908      12.37388520       0.00226684      -0.00536066      -0.00315112
H        2.94772583       7.11963745      12.02656299       0.00139366      -0.00727851       0.00314174
H        3.97998473       5.74452101      12.44785065       0.00516558      -0.00650907      -0.00382739
H        2.66585835       4.72763754       6.18936174      -0.02059293       0.00539425      -0.00147736
H        2.16767447       3.10268094       6.73828999      -0.00385924      -0.00034146      -0.00385851
H        3.89890524       3.56605256       6.71918204      -0.00793484       0.01393326      -0.01200379
