197
Lattice="13.645162761765175 0.0 0.0 0.0 13.645162761765175 0.0 0.0 0.0 13.645162761765175" Properties=species:S:1:pos:R:3:forces:R:3 energy=-3473489.25 stress="0.0005655560526065528 8.624582915217616e-05 -0.00016220103134401143 8.624582915217616e-05 -0.000379235454602167 -1.9226140466344077e-05 -0.00016220103134401143 -1.9226140466344077e-05 0.0006068621296435595" pbc="T T T"
Fm       8.80341178      13.33820435      10.26897302      -0.00613335      -0.00866801      -0.00987326
Fm      10.97709279      13.97754468       0.35319828      -0.00062670      -0.02270741      -0.01608232
O       10.80440219      12.56543101       6.12806123       0.02456385      -0.00048143      -0.00070658
O       11.52887372       9.59766024       5.45546231       0.01914992       0.01255488      -0.00005180
O       11.33243499      10.31250713       8.18063539       0.04750432       0.00937794      -0.00512314
O       13.49167228      11.26990143       6.58570489       0.03816104       0.00016686      -0.02111245
W       11.80988415      10.87350695       6.58461321       0.03082252      -0.01041400      -0.00089556
O        8.36416033      10.66285889       6.39005289       0.01131240       0.00039303       0.02427290
O        8.76642008      12.99818956       8.03183852       0.01825335       0.02043966      -0.00346936
O        7.18134549      13.07563997       5.67604631       0.01601475      -0.01204425      -0.00269702
O        9.97545176      12.68011126       4.92823108       0.02019202      -0.01554022      -0.00027549
W        8.60895950      12.37592259       6.34512059       0.02008688       0.00384200       0.00163835
O        7.25169225      13.99062312      -1.57465007       0.02143627       0.03061628      -0.00866580
O        9.72820128      12.71174862      -1.27705561      -0.00265052      -0.00654060       0.01187139
O        7.32980671      11.60852094       0.12223213      -0.02795446       0.02177793      -0.02941123
O        8.79969657      13.99955099       1.02332550       0.00146285      -0.01394027       0.01503134
W        8.16600511      13.04531326      -0.36799837      -0.00969237       0.00411561       0.00237268
O        1.55539565      -0.03125633      11.95796912      -0.01729393      -0.00484568       0.00424129
C        1.87610655       1.29893366      12.37984091      -0.01128803      -0.00703275       0.00726205
C        2.43571597       2.10148300      11.21676753      -0.00792131      -0.00686389       0.00893193
C        0.65787177       1.96209230      13.00445958      -0.00829560      -0.00335726       0.00927237
H        2.65353129       1.17008969      13.13771431      -0.01165730      -0.01212741       0.00682977
H        2.69101301       3.11640326      11.52804871      -0.00404443      -0.00841950       0.01095268
H        3.33362319       1.63368119      10.81513260      -0.00961399      -0.00958231       0.00825138
H        1.68930523       2.18086679      10.42301642      -0.00741090      -0.00264442       0.00881647
H        0.90402395       2.93819681      13.42813098      -0.00433718      -0.00591034       0.01253838
H        0.25541048       1.33214374      13.80584429      -0.01116446      -0.00368822       0.00749242
H       -0.10977627       2.10742492      12.24236982      -0.00756298       0.00285476       0.00977550
H        0.91716212       0.05274587      11.23983429      -0.01666495      -0.00004981       0.00431915
O        4.14611961       3.20319014       5.23059306       0.00649185      -0.00512797       0.00036663
C        3.34827969       2.02405571       5.45532402       0.00508997      -0.00382832       0.00301346
C        1.90865089       2.25843613       5.03617347       0.00453526      -0.00164388       0.00624302
C        3.97947693       0.82607224       4.77380811       0.00198629      -0.00518751       0.00239691
H        3.38614444       1.89549035       6.53908076       0.00715607      -0.00371415       0.00306308
H        1.28742600       1.40608091       5.31859320       0.00451318      -0.00252497       0.00363776
H        1.51740394       3.15658443       5.51444291       0.00558770      -0.00341828       0.01049963
H        1.83636206       2.37217048       3.95095585       0.00286842       0.00271720       0.00670585
H        3.42389838      -0.08385741       5.00897120       0.00018764      -0.00407900       0.00287428
H        5.01333998       0.68313326       5.08563890       0.00191578      -0.00729493       0.00178717
H        3.96078864       0.95830635       3.68827347       0.00199814      -0.00491088       0.00254141
H        4.10916631       3.42560624       4.29474636      -0.01686988       0.01004827       0.00503525
O        8.63784603       3.15433937       2.92905700       0.00759405       0.00739926      -0.01380318
C        8.69999347       4.23991792       3.86509382       0.00642344       0.00196230      -0.01063525
C        9.89487384       5.07122479       3.44881529       0.00203091       0.00905225      -0.00966735
C        7.40889411       5.04245547       3.88415280       0.00150728      -0.00696307      -0.00873645
H        8.88141606       3.83552248       4.87320653       0.00977494      -0.00007126      -0.01210928
H       10.04993490       5.90595061       4.13224641      -0.00281326       0.00877456      -0.00823945
H       10.79873120       4.46292905       3.42507108       0.00548719       0.01428464      -0.01109321
H        9.73078034       5.47480295       2.44848552      -0.00021935       0.00931622      -0.00924049
H        7.48877097       5.91860627       4.53084487      -0.00744031      -0.01040179      -0.00306123
H        6.57312813       4.43683505       4.24437667       0.00600195      -0.01795757      -0.01683322
H        7.17443018       5.39595449       2.87833059       0.00275749      -0.00422025      -0.00819452
H        7.90878151       2.57547595       3.17184844       0.01676218      -0.00302088      -0.01181372
O       12.54918554       1.87424197      10.02382973      -0.00204919      -0.00429000       0.01270545
C       12.32488393       1.76347530       8.61696998      -0.00018242       0.00025725       0.01243252
C       12.80333938       0.39455851       8.18892734       0.00587355       0.00421923       0.00596358
C       10.85393268       1.98346563       8.30088265       0.00088149      -0.00342457       0.00762241
H       12.91798042       2.52670784       8.09217179      -0.00297934       0.00407457       0.01468432
H       12.69849379       0.26806683       7.11273483       0.01244282       0.01428250       0.00403295
H       13.85342913       0.24531099       8.44018902       0.00511882       0.00670273       0.01029132
H       12.21799318      -0.38539905       8.68607800       0.00550249      -0.00209197      -0.00413358
H       10.65875134       1.91271491       7.22893184       0.01186386       0.00380352       0.00527596
H       10.52340210       2.96355922       8.64768986      -0.00440893      -0.00633095       0.01060382
H       10.24961958       1.21141816       8.79028855      -0.00228258      -0.00818022      -0.00419767
H       12.26057132       2.76328282      10.30877564      -0.00546183      -0.00585984       0.01501743
O       11.45936203       4.17958996      11.16150056       0.00141537      -0.00133398       0.00556678
C       10.25154627       3.80619520      11.81225338      -0.00091092       0.00556374       0.00618201
C       10.53831018       2.53041262      12.57916423      -0.00553565       0.00356951       0.00549266
C        9.74508361       4.89867472      12.73569685       0.00405724       0.00943446       0.00443035
H        9.47972056       3.58726718      11.05805840      -0.00177437       0.00998190       0.00577429
H        9.64779432       2.20445879      13.13401829      -0.00565946       0.00243767       0.00477099
H       10.86870327       1.73475722      11.89584358      -0.00686791       0.00567596       0.00252037
H       11.34761746       2.73263002      13.29371349      -0.00543187      -0.00063452       0.00637231
H        8.84231738       4.57235348      13.25380929       0.00486249       0.01221392       0.00769304
H        9.52041047       5.80205015      12.17047569       0.00361929       0.00837602       0.00265193
H       10.50156780       5.13137564      13.48743541       0.00652881       0.01064310       0.00148898
H       11.43794827       5.14748124      10.96274018       0.00436288      -0.00232983      -0.00004281
O       11.71217345       7.60751713       8.13845353       0.01226366      -0.00884074      -0.00460377
C       11.12701913       6.90874764       7.02767012       0.00255084      -0.00588650      -0.00226153
C       11.67436500       5.49899542       7.08153060      -0.00766277      -0.01034683      -0.00348059
C        9.61207815       6.97200554       7.10193032       0.00298762       0.00309122       0.00447333
H       11.45806727       7.40093708       6.10974561       0.00197521      -0.00795445      -0.00342906
H       11.27154880       4.89675915       6.26619383      -0.01466406      -0.00791450      -0.00226358
H       12.76196453       5.51059090       7.00308332      -0.00788191      -0.01938526      -0.00614411
H       11.40454643       5.02536549       8.02846111      -0.00929547      -0.00813565      -0.00310746
H        9.15845341       6.41463062       6.27976982      -0.00411193       0.00915325       0.00398402
H        9.26689256       8.00441231       7.03029726       0.00865225       0.00539774       0.01032523
H        9.25825567       6.54657079       8.04413270       0.00453083       0.00089432       0.00409666
H       11.47135156       8.56015003       8.10183832       0.02745913      -0.00642939      -0.00764427
O       -0.09288204       5.63893328       2.02481204       0.00122458       0.00016125      -0.00823319
C        1.02780437       6.08333963       2.80535769      -0.00335437      -0.00137299      -0.00073829
C        2.27750156       5.29944088       2.44082834       0.00029349       0.00403959      -0.00012514
C        1.23602060       7.57860655       2.65351021      -0.00682932       0.00024635       0.00945662
H        0.74427589       5.85461875       3.83593380      -0.00717665      -0.00828135      -0.00330997
H        3.10636568       5.56198736       3.10178050      -0.00285389       0.00276053       0.00447640
H        2.09326090       4.22743542       2.51276181       0.00288706       0.00302656      -0.00707223
H        2.59419217       5.52456207       1.42001049       0.00407049       0.01043069       0.00246049
H        2.07077753       7.91552802       3.27065390      -0.01089005      -0.00138778       0.01598912
H        0.34294841       8.12950195       2.94695434      -0.00979228      -0.00426231       0.00886413
H        1.48144797       7.83405214       1.61957332      -0.00257688       0.00733470       0.01216026
H        0.06059963       5.93415832       1.12184931       0.00592151       0.00209920      -0.00667779
O        4.86746604      10.31392719       9.83176826      -0.00530273      -0.00450590       0.00981903
C        5.13763336      11.58193085       9.23668886      -0.00499113      -0.00945425       0.00047370
C        3.98669200      12.54985020       9.45082053      -0.00458318      -0.00769618      -0.00440620
C        6.45204368      12.14494808       9.75393542      -0.00101161      -0.00871931      -0.00839829
H        5.23947921      11.36917548       8.17098723      -0.00648197      -0.01627856       0.00141501
H        4.18130588      13.50203388       8.95168780      -0.00609075      -0.01054329      -0.01045620
H        3.06162963      12.13267476       9.05355226      -0.00423703      -0.01167575      -0.00120760
H        3.84157837      12.75472186      10.51421500      -0.00470014      -0.00258496      -0.00532010
H        6.62985757      13.12686178       9.29385418      -0.00096963      -0.01154440      -0.01403476
H        7.28830024      11.48513348       9.49064589      -0.00392469      -0.01162123      -0.01124595
H        6.41532634      12.29042016      10.83697662       0.00619567      -0.00647605      -0.00761454
H        4.79853545      10.44814211      10.78215563      -0.00405456       0.00265427       0.00916046
O        2.49546507      10.28469584       1.01799291      -0.00858880       0.00596701      -0.00618297
C        2.92661674      11.08899390       2.12736330      -0.00492191       0.00322396      -0.00545697
C        4.43240302      11.28490627       2.11183522      -0.00483769      -0.00044355      -0.00748909
C        2.16892083      12.40575165       2.14806128      -0.00171643       0.00514060      -0.00321139
H        2.64552265      10.50017197       3.00513390      -0.00507991       0.00309837      -0.00546104
H        4.75727809      11.85581119       2.98451935      -0.00117517      -0.00457144      -0.00653249
H        4.95519184      10.32907933       2.11728830      -0.00756219      -0.00232975      -0.01181228
H        4.74708538      11.83240907       1.21967320      -0.00370816       0.00102341      -0.00597523
H        2.48598962      13.01878012       2.98945143       0.00084204       0.00385725      -0.00351250
H        1.09507892      12.24478746       2.23122470      -0.00173321       0.00725149      -0.00153467
H        2.36527991      12.96412765       1.22822206      -0.00254476       0.00534195      -0.00321993
H        2.70588298      10.77647111       0.21749884      -0.01396378       0.00826991      -0.00582137
O        4.52782056       4.03723909      13.74409618      -0.00397527       0.00885585       0.00948046
C        5.77610041       4.38292804      13.13020988      -0.00372779       0.00671388       0.00875896
C        6.02024094       3.53952823      11.89340802      -0.00871694       0.00843686       0.00644481
C        5.83139747       5.87061649      12.82572960      -0.00074887       0.00723594       0.01185586
H        6.51947913       4.13767706      13.89357933      -0.00294361       0.00302757       0.00718957
H        7.00109725       3.75576993      11.46265224      -0.00605400      -0.00087059       0.00858996
H        5.97371738       2.47790351      12.12916572      -0.01898063       0.00833359       0.00289579
H        5.27101266       3.76624554      11.12906963      -0.00552882       0.01710499       0.00594340
H        6.80529489       6.14712605      12.41819851      -0.00092421       0.00772464       0.01236377
H        5.64786983       6.45911897      13.72390038       0.00031158       0.00563799       0.01335800
H        5.07592353       6.13060169      12.07866553      -0.00090614       0.01079187       0.01320348
H        3.83929769       4.19569708      13.09040733      -0.00350789       0.00091042       0.00681804
O        6.55878406       8.41279699       4.96001251       0.01847631       0.00392184       0.01132011
C        5.53183862       8.49931739       5.95022488       0.00882074       0.00231114       0.00133437
C        6.11576497       8.31804378       7.34167990      -0.00284222       0.00068150       0.00579166
C        4.76090191       9.80504820       5.80845502       0.00909725       0.00188279      -0.00323962
H        4.85934355       7.66388642       5.72880764       0.01087034       0.00235063      -0.00538617
H        5.35555959       8.42682404       8.11434275      -0.00915860      -0.00459422       0.00022395
H        6.57966959       7.33538616       7.43266538       0.00021727       0.00244218       0.00668514
H        6.88042167       9.07614521       7.51988401      -0.00675184       0.00284448       0.01393426
H        3.98461239       9.88727235       6.57204156       0.00095516      -0.00199874      -0.01095343
H        4.29235934       9.86585380       4.82580739       0.01924232       0.00383841      -0.00789496
H        5.43980894      10.65595504       5.91066031       0.00681850       0.00265858       0.00695990
H        7.20654650       9.09667099       5.17660476       0.01719885       0.00224027       0.02056371
O       11.34173261       6.78355004      10.61331113       0.00051737      -0.00340059      -0.00341359
C       11.33802169       7.97544401      11.40883199       0.00334930      -0.00404990      -0.00229570
C       12.58830065       8.79720023      11.13460240       0.00589961      -0.00751299      -0.00060201
C       10.06690850       8.77171652      11.15223419       0.00518018      -0.00106704      -0.00235242
H       11.34721290       7.62843259      12.44856542       0.00163269      -0.00479876      -0.00250870
H       12.61141902       9.68905693      11.76008493       0.00937798      -0.00946122       0.00179926
H       13.48709235       8.21292107      11.33411790       0.00375280      -0.01143311      -0.00187851
H       12.60417315       9.13046984      10.09635256       0.00670749      -0.00430749       0.00037050
H       10.01936592       9.65472300      11.79415955       0.00899397       0.00118184      -0.00526457
H        9.18304253       8.15976594      11.33936012       0.00373913       0.00203040       0.00173721
H       10.05041854       9.10198762      10.11216764       0.00416785      -0.00528009      -0.00372559
H       11.45612807       7.05376716       9.66298965       0.00473541      -0.00348054      -0.00269974
O       11.72945852      12.77350478       2.36230285      -0.00313184      -0.00647859      -0.01467443
C       11.40322105      11.53785050       1.65981848      -0.00241137      -0.00386131      -0.01917282
C       12.41617537      11.35207978       0.54773088       0.01046047      -0.00711292      -0.00813881
C       11.41039346      10.37769107       2.62391739      -0.01653967      -0.00283867      -0.01805526
H       10.38938883      11.65510108       1.23118119       0.00250173      -0.00164516      -0.03104396
H       12.07804461      10.53821469      -0.09059095       0.01497504      -0.00514135      -0.01378628
H       12.55091481      12.22857943      -0.09766550       0.02417082      -0.00755729      -0.00610098
H       13.39705339      11.09280712       0.94509848       0.00401817      -0.01209831       0.00399218
H       11.22093092       9.44116141       2.09892995      -0.01611698      -0.00243099      -0.01847720
H       10.65463173      10.49020303       3.39748305      -0.02242292       0.00398680      -0.02433899
H       12.38058283      10.30868401       3.11689586      -0.02115934      -0.00477632      -0.00968553
H       11.14251889      12.84515022       3.13359996      -0.00968418      -0.00360144      -0.01726452
O        4.89201683       3.59037397       7.87176339      -0.00691819       0.02208230       0.00156206
C        6.18868846       3.10435806       8.23021904      -0.00926524       0.01711748       0.00346825
C        6.65920551       2.02991821       7.27153836      -0.01380822       0.01310444       0.00520086
C        7.18237429       4.25058309       8.32364471      -0.00481254       0.01346636       0.00155102
H        6.06335283       2.66142946       9.22329298      -0.01181892       0.02001402       0.00440371
H        7.61509601       1.61194603       7.59475574      -0.01585130       0.00811417       0.00468674
H        5.94684989       1.20876411       7.20376150      -0.01880568       0.01694201       0.00676896
H        6.79428989       2.43420512       6.26544638      -0.01270639       0.01228604       0.00499031
H        8.15100906       3.89390001       8.68291218      -0.00560576       0.00913250      -0.00062683
H        6.81858792       5.02289032       9.00169938      -0.00005791       0.01517312       0.00223970
H        7.33346849       4.69998272       7.33977723      -0.00528123       0.01298553       0.00121056
H        4.82965915       3.63883179       6.90236701      -0.00889204       0.01607274       0.00128502
O        2.38414206       5.03676098       7.74980357      -0.00534147      -0.01164693       0.00142258
C        1.85834934       5.96153029       8.70160807      -0.00294755      -0.00761765      -0.00144702
C        0.86127569       5.28366435       9.62997147      -0.00135320      -0.00402713       0.00277030
C        2.96924236       6.64946348       9.47679397      -0.00103921      -0.00529438      -0.00616503
H        1.31955359       6.70854160       8.11056375      -0.00414994      -0.00950950      -0.00292808
H        0.32037138       6.01897373      10.22757261      -0.00015969      -0.00175169       0.00099598
H        0.13065103       4.71863696       9.05272654      -0.00249089      -0.00613610       0.00610961
H        1.36957025       4.59113928      10.30195649      -0.00013849      -0.00169513       0.00433397
H        2.56007605       7.37334679      10.18384877       0.00099270      -0.00100667      -0.00933068
H        3.65312132       7.17097910       8.80912652      -0.00121158      -0.00967870      -0.00977795
H        3.54289311       5.90802057      10.04221885      -0.00099400      -0.00312544      -0.00330114
H        3.19437277       4.63660859       8.09743757      -0.00084287      -0.00540234      -0.00069630
