199
Lattice="13.760570695493382 0.0 0.0 0.0 13.760570695493382 0.0 0.0 0.0 13.760570695493382" Properties=species:S:1:pos:R:3:forces:R:3 energy=-1989651.5 stress="-0.000700103584676981 -0.00014651323726866394 0.0007466022798325866 -0.00014651323726866394 -0.0012121930485591292 -0.00010492070578038692 0.0007466022798325866 -0.00010492070578038692 -0.0030511931981891394" pbc="T T T"
Fr       5.92611322      13.54551749      13.31891154       0.04683697       0.01256162       0.05107580
Fr       5.24022486      13.87882265       8.00312174       0.01917791       0.00351945       0.01053397
O       12.56575622       3.62658597       1.56108439      -0.00931770      -0.02634287      -0.00978917
O       13.03936347       0.81230998       2.01549327       0.01921654      -0.01996481       0.02187935
O       10.26996189       1.79720624       1.24117238       0.00842893      -0.05075163       0.00871146
O       11.43523219       2.41003139       3.86734352      -0.00266314      -0.00665399      -0.00039482
W       11.88599319       2.14965563       2.18777406       0.00425625      -0.02415603       0.00505388
O        8.19200555       7.48203149       2.57651996       0.01042451       0.01403248       0.01589596
O       10.06441320       8.69665008       2.75031483       0.01325548       0.01641759       0.00586404
C        8.01230611       9.80957138       2.17558406       0.00883311       0.00900191      -0.01103249
C        8.87976694       8.64352287       2.52914503       0.01012409       0.01232171       0.00270954
H        7.96850623       9.89297380       1.08976488       0.02097367       0.00490428      -0.00852834
H        7.00457601       9.65027389       2.54826561       0.00323768       0.00872958      -0.02400425
H        8.45449449      10.72833789       2.54843187      -0.00457765       0.01710449      -0.01318810
H        8.83760114       6.79897975       2.84362025       0.01126239       0.01369933       0.00889480
O        8.56326352       3.76963384       4.27117837       0.02852142      -0.00547034       0.00870866
O        9.51627726       5.80102156       4.34044387       0.00581813       0.00529599      -0.00209904
C        8.12734810       5.09359328       6.16574928      -0.00640371       0.00419656      -0.01051652
C        8.81631854       4.95223631       4.83934625       0.00988770       0.00235236      -0.00071916
H        7.04571405       5.13573758       6.02011685      -0.00445631       0.00201661      -0.02458981
H        8.33785658       4.23039168       6.79830297      -0.01267882       0.00575729      -0.00650619
H        8.46436278       6.00282192       6.65347538      -0.01548572       0.00642803      -0.00921904
H        9.18707630       3.63017609       3.53364937       0.03495830      -0.00846640       0.01570868
O        6.41446978       9.68333865       8.17746349      -0.02528012       0.00652647      -0.00050032
O        4.33123456       8.99598504       8.62895346      -0.01668406      -0.02178636       0.01211052
C        6.08746203       7.36031033       8.32498211       0.00816244       0.00225633       0.00374067
C        5.47787396       8.72069975       8.40064478      -0.00409418      -0.00808448       0.00519483
H        6.48289759       7.20920193       7.32127115      -0.00853813       0.00241020      -0.00271216
H        6.91503880       7.29185731       9.03084974       0.02216601       0.01757515      -0.01189972
H        5.33916196       6.60690980       8.53779422       0.02317506      -0.00734051       0.01983852
H        5.91373847      10.50657847       8.10635845      -0.03758526      -0.00214624      -0.00600034
O        2.18309861       3.55694043       5.00820906       0.02659607      -0.00369740      -0.00768086
O        3.64061374       5.22486499       5.40867211       0.03339586      -0.01300168      -0.01026642
C        4.13827971       3.02457429       6.20832216       0.00455099      -0.00029498       0.02988216
C        3.31867126       4.07072469       5.51286934       0.02563049      -0.00247061       0.00460475
H        3.54400080       2.53409216       6.98046363      -0.01411524      -0.00393115       0.01176256
H        4.45277085       2.29261964       5.46843681       0.02973340      -0.00044592       0.04110004
H        5.01500562       3.50146605       6.63718017      -0.01081017       0.00550495       0.05411061
H        1.68608165       4.28145140       4.58600929       0.04128148      -0.00514090      -0.02503984
O       12.60953931      11.34666114       7.46839950       0.00991505      -0.02136946       0.01963317
O       11.13149928      10.52250101       8.91838898      -0.03183395      -0.03008407      -0.02967519
C       10.74925444      12.69707610       7.96607471       0.01548618      -0.00998062       0.01706493
C       11.51774464      11.43031635       8.18726625       0.00082704      -0.01906043      -0.00611666
H       11.38133890      13.49899320       7.59436895       0.02668257      -0.01718481       0.02173162
H       10.01374187      12.47128398       7.18854889      -0.00000843       0.00569738       0.02821983
H       10.20907530      13.00118998       8.85680121       0.03011061      -0.01543070       0.02794401
H       12.91028624      10.37344275       7.37975944       0.00827643      -0.02227169       0.00135346
O        6.77107983      11.57423661       4.93697013       0.00842261       0.00997460      -0.00664299
O        5.24970650      10.07498397       5.61941481      -0.00382864       0.02011180      -0.01028998
C        7.54924153       9.38826503       5.35635073      -0.00727224       0.00611329      -0.00639221
C        6.38967612      10.32823678       5.31068684      -0.00186878       0.01443885      -0.00728591
H        8.38270625       9.75011886       4.76357290       0.00196981       0.01007584       0.00927909
H        7.87197044       9.31645859       6.39569660      -0.02128078      -0.01152717      -0.00401849
H        7.23854830       8.40191553       5.01905278      -0.00840423       0.01374005      -0.02561210
H        5.98681985      12.14412100       4.96354321       0.01297253       0.01953547      -0.01383056
O        4.87847004       2.83539798       1.05617881      -0.01832557       0.00146702       0.05921328
O        4.81912576       2.12600878       3.17676806      -0.03781403      -0.05749311       0.02396108
C        3.18067556       1.28927414       1.64778017      -0.04217777       0.01552320       0.00045648
C        4.34029107       2.12072670       2.05367298      -0.02864803      -0.02793762       0.01133621
H        2.77910751       1.57315960       0.68119924      -0.00695342       0.03008138      -0.00962695
H        3.51264040       0.24713785       1.59944699      -0.07032295       0.00730482       0.01545383
H        2.41285497       1.32814365       2.41897757      -0.05904496       0.03036078      -0.01168481
H        5.62375224       3.34461126       1.41218879      -0.03300428      -0.00004280       0.08523345
O       12.59899120       7.34051709       5.43183617      -0.01449645      -0.00608492      -0.00309929
O       13.25095023       8.95312206       6.83766978      -0.00044650      -0.01207665      -0.00595474
C       11.03984959       9.00564872       5.85477870       0.00151366       0.00932199      -0.00439360
C       12.40960076       8.46487102       6.09118350      -0.00319868      -0.00310312      -0.00230521
H       10.68840401       8.71383048       4.86843979      -0.00363418       0.00620372      -0.00106925
H       10.39169544       8.54780796       6.60763229      -0.00063255       0.02584849       0.00279394
H       11.00702203      10.08312069       5.97240425       0.01518905       0.01030560      -0.01335197
H       13.36514739       6.81186268       5.75759037      -0.01422358      -0.01105489      -0.01049219
O        9.72893499       6.83858003      10.93150349       0.03463268       0.03060746       0.00928855
O       11.63871096       7.03930823       9.77602564       0.03514570      -0.00921798       0.01270723
C       11.60515802       5.71385737      11.77893489       0.00828817      -0.00735593       0.01347309
C       11.01423123       6.57936987      10.71945284       0.02800173       0.00463802       0.01282948
H       11.91730224       6.35973637      12.60261736       0.00913680      -0.01839077       0.02145864
H       10.87764765       5.01651829      12.18027229      -0.00762273       0.00285731       0.00063057
H       12.47236469       5.19419421      11.39067783       0.00338683      -0.01975977       0.02022532
H        9.39940136       7.59696037      10.40153114       0.04990772       0.02946478      -0.00197288
O        7.39831500       1.22679262       3.54853816      -0.00497073       0.06081913       0.01318948
O        6.54082252       0.71097830       5.52594331       0.00866356       0.00269572      -0.00837038
C        8.92155179       1.00223272       5.35201507       0.00753045      -0.01867997      -0.01590702
C        7.53221668       0.95787091       4.83274148      -0.00242105       0.00953600      -0.00040635
H        9.15284154       0.05195714       5.82710704      -0.00400575      -0.02614628      -0.02655716
H        9.65783343       1.21848427       4.58257272       0.00877267      -0.02091450      -0.01474211
H        8.97882739       1.77124354       6.12555578       0.02363017      -0.02830157      -0.00741379
H        6.44366446       1.35632361       3.37792074      -0.00351956       0.07301547       0.02874884
O        0.28127744       5.89551068       9.23490778      -0.02791065      -0.03606160      -0.00773549
O        1.75870819       7.46547144       9.91323510      -0.08411007       0.04758179      -0.02229631
C        2.49897257       5.62933144       8.52817326      -0.01611584       0.02523333       0.01006562
C        1.52835349       6.45970371       9.31098239      -0.05112024      -0.02505219      -0.03316623
H        2.53720041       4.61881528       8.93943400      -0.01459602       0.02115063       0.00118428
H        2.15494548       5.55855384       7.49707125       0.01445094       0.02830382      -0.00040662
H        3.48083569       6.08462955       8.55150615      -0.02490314       0.03965618       0.03910212
H       -0.41872029       6.49917474       9.59501944      -0.04625458      -0.04969829      -0.02086598
O       10.39515657      13.37945728      12.94850000       0.04246999       0.00325048      -0.00003499
O        8.86071037      11.73893174      13.09909138       0.00577307       0.05335596      -0.00291461
C       11.14922636      11.19272092      12.54001757      -0.01118106      -0.00857627      -0.01758251
C       10.02393988      12.08421950      12.95844904       0.01324338       0.01574272      -0.00580609
H       11.28864224      11.25590059      11.45885062      -0.02608958      -0.01095613      -0.01938283
H       12.05618152      11.51673813      13.04011639       0.00328077      -0.03399283      -0.02983996
H       10.93208006      10.16477049      12.81188774      -0.03498372      -0.00263810      -0.01829638
H        9.81965502      13.88907073      13.54225034       0.07464285       0.02468639       0.01268384
O        3.21704416       7.48504911       3.65106973       0.00087816       0.01103181       0.00019485
O        5.06173713       8.59622215       3.05955664      -0.00510204       0.00913942      -0.01491738
C        4.90503563       6.24991884       2.55462179       0.00052506       0.00585949       0.00669903
C        4.43397119       7.56159375       3.09603598       0.00045139       0.01205993      -0.00352642
H        5.13109933       5.59635312       3.39960506      -0.01261378       0.00858179       0.01174334
H        4.10860565       5.76557052       1.98853933       0.00375488       0.00784770       0.00051624
H        5.80270006       6.41790289       1.96728514       0.00636566       0.00178619       0.01439491
H        3.04762714       8.33626156       4.08047273      -0.00291418       0.01619387      -0.01187658
O        9.96361509       1.92198913       9.27285522       0.01451254      -0.00609404       0.00747439
O        9.34692020       3.59211154      10.64281064       0.00300361       0.01117659      -0.01831947
C        8.19593257       1.48529102      10.76182229       0.01641405       0.00574461       0.01063490
C        9.21505595       2.46195792      10.25918477       0.01079681       0.00250947      -0.00205189
H        7.35805293       1.47201949      10.06033415       0.00928149       0.01193332       0.01989231
H        8.61463027       0.48240364      10.82941737       0.01632595       0.00616854       0.01168589
H        7.84147616       1.82757131      11.72915174       0.02564214       0.00984173       0.01161632
H       10.61927995       2.58707952       9.01554254       0.00816900      -0.00552893      -0.00465151
O        3.29660471      11.59352484       0.11818606      -0.00998527       0.01215959       0.01166448
O        2.58811267       9.45762740       0.18838723      -0.03732926       0.00655329      -0.00440702
C        4.94783927       9.90630202       0.23222209      -0.02237779      -0.00349368      -0.02378306
C        3.49634042      10.23923453       0.15431470      -0.00413489       0.01971453      -0.00527410
H        5.54858694      10.52501669      -0.42885933      -0.02212164       0.00481324      -0.01719163
H        5.26954891      10.08877898       1.25909469      -0.00930856      -0.02701971      -0.02415001
H        5.11437990       8.85479735       0.02148106      -0.03307733      -0.00070861      -0.04578688
H        2.36358767      11.77051166       0.34685109      -0.00340563       0.02152174       0.01776132
O        0.30612553       3.61330782      10.76384312       0.00261744      -0.01114047       0.00142843
O        2.04787408       4.64847874      11.72320881      -0.01238179       0.00238276       0.01174563
C        0.60299227       3.30540444      13.08461134       0.00834388      -0.02418271      -0.00299156
C        1.07963093       3.91439611      11.82287834      -0.00386536      -0.01347944       0.00174344
H       -0.23538226       3.89625696      13.47239998       0.00731179      -0.03789312       0.00796163
H        0.20528640       2.30004676      12.95559438       0.01703744      -0.02423576      -0.01356597
H        1.36765543       3.33953986      13.85353372       0.00941591      -0.03424584      -0.00806147
H        0.45094692       4.28964803      10.06320288      -0.00566500      -0.00111908       0.00417942
O        8.82317127      11.01625644       9.92830320       0.00162488       0.03846329      -0.03626105
O        8.20325859       8.89667123      10.35072241       0.05306408       0.02564996      -0.03886663
C        6.73519936      10.70759280      10.91110220       0.02855629      -0.00988215       0.00645182
C        7.99017968      10.09224998      10.36230398       0.02709964       0.02245629      -0.02512777
H        6.99768883      11.08592180      11.89993090       0.04160589      -0.01200210       0.00413036
H        6.44008481      11.55362651      10.29060971      -0.00979237      -0.01761040       0.01793598
H        5.92682236       9.98537042      10.97563089       0.05152093      -0.03077601       0.01739964
H        9.70347467      10.65462312       9.58130653      -0.00001676       0.03005150      -0.04656506
O        3.52586924       2.56283258      10.01396147      -0.03134763       0.00020254      -0.00032794
O        3.86772818       1.66411842      12.03129047       0.01874901      -0.03168484      -0.02406693
C        2.10102900       0.78657561      10.65310442      -0.00236833      -0.02092531      -0.00827952
C        3.24946850       1.67367050      10.98985487      -0.00450651      -0.01962143      -0.01487023
H        1.93582694       0.71730205       9.58077307       0.01182023      -0.03735497      -0.00897712
H        2.23486178      -0.19251982      11.10553474      -0.01688907      -0.01345837       0.00862668
H        1.20710119       1.23801823      11.08657147      -0.00500283      -0.00612211      -0.03234388
H        4.11638977       3.23135952      10.39551697      -0.03590250       0.00333852       0.00045449
O        1.11984117      12.43658180       1.90970435      -0.00504184       0.04779226       0.01695406
O        0.28781989      11.26244834       3.65024005      -0.01023984       0.05348665       0.01146448
C        2.58725410      10.97942228       3.09776854      -0.02236009       0.01991940       0.00264713
C        1.20545397      11.56279401       2.93458268      -0.01785111       0.03861592       0.01355571
H        2.64780901      10.03936836       2.54818741      -0.04778309       0.02266546      -0.00574894
H        3.37179869      11.63481904       2.72705367      -0.00652722       0.00674044       0.00016918
H        2.76666790      10.75751680       4.14735034      -0.02644869       0.00563386       0.00091243
H        0.28687593      12.98728473       1.96516359       0.00258756       0.06780018       0.02057114
O        8.34306384       8.03337964      13.27584490       0.00540787      -0.00883812      -0.00317372
O        9.48067094       6.22959776      13.97804728      -0.00770867      -0.01664662       0.00218183
C        7.38171506       5.92518388      12.84799974      -0.00751138      -0.00267023      -0.00441989
C        8.52350266       6.70371588      13.42607041      -0.00708079      -0.00878902      -0.00301939
H        6.54435034       5.94754347      13.54852002      -0.00781696      -0.00230512      -0.00474450
H        7.05249550       6.37343215      11.91302897      -0.00612900       0.00034921      -0.00288405
H        7.70377843       4.90103797      12.68523618      -0.01193508      -0.00288701      -0.00890098
H        9.12524464       8.47014710      13.64586276       0.00946990      -0.01692231      -0.00380579
O        1.43680905       6.38177134       0.07008524      -0.02997768      -0.01115619      -0.00099421
O        1.93461683       5.12321802       1.86323828       0.00195825      -0.00810003      -0.01171815
C        0.43699503       7.00942878       2.08740101      -0.00859654      -0.03072280       0.00816596
C        1.33758302       6.05891515       1.36686082      -0.00947994      -0.01442742      -0.00262719
H        0.86988186       8.00993692       2.02865685      -0.02587342      -0.01724094       0.00176851
H       -0.53181560       7.04915824       1.59181247      -0.01864824      -0.04041351       0.02784438
H        0.31089271       6.71197431       3.12160057       0.00770819      -0.02429706       0.01260722
H        1.98701267       5.73637118      -0.41293518      -0.02758417      -0.00477181      -0.00954499
O        9.59361643      13.36265466       2.36818402      -0.03691554      -0.02728438      -0.01435496
O       10.82812705      11.72468223       1.45261542       0.01035821       0.01062369      -0.01104522
C       11.05460327      12.11173749       3.77724224      -0.02491248      -0.00400352      -0.00713420
C       10.44946373      12.41280391       2.41487099      -0.01549685      -0.00988835      -0.01077700
H       11.93789754      12.74638262       3.89292482      -0.04224404       0.01443327       0.00708868
H       10.35491688      12.34805412       4.57882909      -0.04113143      -0.02725519      -0.01554434
H       11.38308036      11.07790434       3.82404098      -0.00211579       0.00435772      -0.00899518
H        9.90168691      14.70597209       1.64520570      -0.00837241      -0.04051846       0.02090735
O        3.66853630      13.46473885       5.30139777       0.01230294       0.01283008      -0.00851399
O        1.63475311      14.06118049       4.56151931      -0.00448927       0.06162524       0.00557470
C        1.77850108      12.41067537       6.30963036       0.01292658       0.01956332      -0.00858778
C        2.29091069      13.38317115       5.29957103       0.02640522      -0.03132880       0.06634903
H        2.44806075      11.56188352       6.44155754       0.02021901       0.00657211       0.00654589
H        1.68189692      12.92365817       7.27157652      -0.00970898      -0.00290161       0.00454822
H        0.79038818      12.07709668       6.00992241       0.01866737      -0.00392488      -0.01264006
H        3.91036551      14.15758442       4.66051232       0.01954036      -0.00130302       0.00851566
O       13.40210563       3.11547711       6.72848187       0.03384459      -0.00138530      -0.02286229
O       13.91593068       5.18639202       6.07712863       0.01049203       0.00243083      -0.02747947
C       11.72805049       4.75988779       6.97978363       0.02600491      -0.01132157      -0.00303079
C       13.11607994       4.40800793       6.56437462       0.02342391      -0.00146478      -0.01950552
H       11.11498143       4.66280559       6.08117386       0.01727130       0.00450303       0.00160152
H       11.35137920       4.07608266       7.73646836       0.03374723      -0.02237725      -0.00991026
H       11.67164481       5.78346938       7.33717867       0.03012217      -0.01670212       0.01313481
H       14.23784402       2.93684748       6.26218033       0.03043222       0.00257872      -0.02765346
