192
Lattice="13.159882672610928 0.0 0.0 0.0 13.159882672610928 0.0 0.0 0.0 13.159882672610928" Properties=species:S:1:pos:R:3:forces:R:3 energy=-1519263.625 stress="-0.0028739937115460634 -0.0003629875718615949 0.0003342355921631679 -0.0003629875718615949 -0.0023104404099285603 0.00043040511081926525 0.0003342355921631679 0.00043040511081926525 -0.004082180559635162" pbc="T T T"
Fr       0.83457935      14.04930049       1.76344842      -0.00690547       0.00227922      -0.00213552
Fr       7.33390984      12.48470076       4.99488358       0.02734171      -0.02107517       0.00481502
S       12.61108743       3.99799158       2.78594174      -0.00903302       0.02635747       0.00222583
S        8.89267552       1.13146378       2.40452357      -0.00580454       0.00715697       0.00145894
S       10.49379844       4.26958919       2.46387907      -0.00410875       0.00319445       0.00222267
S       10.02084183       2.66643631       1.33260966      -0.00685301       0.00650878       0.00009762
O       13.18307627       3.90331157       1.44371233      -0.00129312       0.00569103      -0.01810133
O        7.58124121       1.68886748       2.69852004       0.00910902      -0.01480699       0.00336545
O       12.82433483       2.77338572       3.55690959       0.00329111      -0.00095251      -0.00272065
O       12.93649251       5.21831758       3.50789090      -0.00622769       0.00046760      -0.01389873
O        8.89884165       0.12959966       1.33853935       0.01115392      -0.00210935       0.00020343
O        9.64282415       0.72143161       3.58443435       0.01423064       0.00510253       0.00347155
O        9.87933588       3.51057733      11.25744413      -0.00886083       0.00505441      -0.00609970
C        8.58791712       2.94218919      11.50777442      -0.00585864       0.00040868       0.00073585
C        8.61287272       1.44899298      11.74362012       0.00076466       0.00115854       0.00279878
H        8.12619672       3.44695067      12.36227094      -0.00396886       0.00053424       0.00127825
H        7.99692031       3.20276635      10.62973305      -0.00997818      -0.00389534       0.00243676
H        7.64473251       1.10443498      12.10357736       0.00581640      -0.00068606       0.01348381
H        8.85185204       0.88611178      10.84842965      -0.00785810       0.00090077       0.00095531
H        9.33604036       1.17756083      12.50666896       0.00968182       0.00412785      -0.00495316
H       10.40642779       3.44986620      12.06438301      -0.00707256       0.01601214      -0.00636071
O        9.02434701       2.94542093       5.77614944       0.00753349       0.00283173       0.00249642
C       10.43862357       2.82394436       5.60976448       0.00715566       0.00046059       0.00478669
C       11.17977608       4.03138570       6.13064097       0.00963914      -0.00350970       0.00856102
H       10.81428513       1.90330405       6.07069330       0.00486350      -0.00113940       0.00309458
H       10.59761072       2.69825422       4.54948484       0.00860904       0.00293500       0.00457811
H       12.24357408       3.92674489       5.92382667       0.00979392      -0.00756959       0.01207612
H       10.81925692       4.93768739       5.64097076       0.01491287      -0.00146137       0.00862134
H       11.05194274       4.14859641       7.21136437       0.00631315      -0.00433518       0.00821811
H        8.86400341       3.26177129       6.66977355       0.00657076       0.00311276       0.00221722
O        3.35700244       6.74875139       3.93286747       0.00956241       0.00890887       0.00656620
C        2.92743825       8.06493124       3.62211119      -0.00700846       0.00260192       0.00228971
C        1.53211912       8.15073398       3.03496350      -0.00413227      -0.01829763      -0.00616054
H        2.99436937       8.71431182       4.50610044      -0.02089503       0.00381637       0.00163323
H        3.64980302       8.43581981       2.88597649      -0.00776246       0.01180153       0.00682729
H        1.28928017       9.19686962       2.83517743      -0.01548046      -0.02294762      -0.01472230
H        1.45782469       7.58229485       2.10696684       0.00835090      -0.02435370      -0.00322653
H        0.79062370       7.76220386       3.73167246      -0.00390634      -0.02314700      -0.00894050
H        2.76784682       6.37075734       4.61488907       0.00168645      -0.00166699      -0.00570800
O        5.08251670      10.16815561      11.08002405       0.00654250      -0.01767372       0.00339136
C        6.48898704      10.30458179      10.92321490       0.00371784      -0.00289550      -0.00169575
C        6.97302823      11.71464398      11.18398690      -0.00654824      -0.00148100       0.00886007
H        7.00882178       9.61086601      11.59254055       0.01411366      -0.00428271      -0.01158363
H        6.72623413      10.01783674       9.89798009       0.00059993       0.00921673      -0.00532573
H        8.04286884      11.79426121      10.97637353      -0.00897682       0.00883992       0.00258323
H        6.44536032      12.42394209      10.54365800      -0.01631832      -0.00005732       0.01887780
H        6.82018410      11.99806426      12.22680877      -0.00163640      -0.01227188       0.01219946
H        4.94765006       9.87418594      11.99483285       0.01124525      -0.01242066       0.00585309
O        5.17299005       9.43512815       0.59638278       0.00038508      -0.00141084       0.00495422
C        4.41779068      10.47525995       1.23584077       0.00369465       0.00169522       0.00321582
C        2.99572943      10.53813191       0.71788460       0.00315714       0.00361457       0.00548872
H        4.44089330      10.32652058       2.31770753       0.00643238       0.00507368       0.00356361
H        4.95909858      11.39721744       1.02049487       0.00489381      -0.00021034      -0.00078795
H        2.38997499      11.15028923       1.38489230       0.00636896       0.00844844       0.00372548
H        2.95289240      10.94578223      -0.29349119       0.00258915      -0.00066215       0.00391537
H        2.54626821       9.54311338       0.70929376      -0.00008538       0.00531363       0.01017390
H        4.73951086       8.59584263       0.79164718      -0.00136817       0.00012597       0.00777760
O        3.54803448       1.08251866      11.00308570      -0.00927877      -0.00891960       0.00644428
C        4.37255892       1.37928438      12.12457203      -0.00928980      -0.01151195       0.00669578
C        5.26748040       2.58002773      11.90384098      -0.00773352      -0.01261467       0.00872275
H        3.76431620       1.52954390      13.02748211      -0.00928849      -0.01215631       0.00663963
H        4.97072501       0.48156684      12.28259554      -0.01054689      -0.01222706       0.00572270
H        5.94563692       2.71356341      12.74827740      -0.00893322      -0.01443050       0.00983945
H        5.86016694       2.45094608      10.99778626      -0.00705907      -0.01280712       0.00970966
H        4.68651648       3.49739127      11.80253066      -0.00648731      -0.01203266       0.00822612
H        3.03268423       1.86768139      10.79693356      -0.00651389      -0.00746435       0.00605433
O        2.94845505       9.08867123       6.96747661      -0.00958329      -0.00363433       0.00944048
C        4.09491906       8.26018341       7.19825301      -0.00742328      -0.00123028       0.00722560
C        5.20834891       9.02630551       7.87194980      -0.00401625       0.00285417      -0.00356507
H        3.81043026       7.38978278       7.80036704      -0.00244009       0.00199890       0.01373497
H        4.39856764       7.88350187       6.22243756      -0.01368967      -0.00629349       0.00749189
H        6.07510466       8.37924258       8.01956902      -0.00271803       0.00421566      -0.00700869
H        5.52043182       9.86876350       7.25477516      -0.00920805       0.00065757      -0.00880061
H        4.88556674       9.39465183       8.84829536       0.00202693       0.00565178      -0.00309360
H        2.71717075       9.48687345       7.81228620      -0.00918192      -0.00487544       0.01005113
O        8.54572574       5.83338638      10.66511713      -0.00259671      -0.00286549      -0.03315307
C        7.96470253       6.88723877      11.40744375       0.01595300      -0.00639232      -0.01487224
C        6.60998744       6.50057257      11.96646152       0.02177358      -0.00064030       0.00256833
H        8.62331767       7.22491192      12.21174281       0.03027701      -0.01846225      -0.02194986
H        7.84638196       7.72972016      10.71729104       0.01204950       0.00039425      -0.00531265
H        6.06853466       7.37898868      12.32544618       0.03647468      -0.00039321       0.02216786
H        6.01283673       6.02911303      11.18311053       0.00420651       0.01570170       0.00685126
H        6.70680549       5.79037709      12.78825172       0.02768498      -0.01162978      -0.00817889
H        9.17140304       5.30216941      11.17984390      -0.00506044      -0.01576284      -0.04329360
O        9.05955590      10.81088469       2.54999662      -0.00730860      -0.00195175       0.00338537
C        9.90860031       9.79664529       2.02839881      -0.00469865       0.00027412       0.00164086
C        9.44108421       9.26699396       0.68865583       0.00153217       0.00969946      -0.00398469
H       10.94180342      10.16007892       1.95130239      -0.00517154       0.00169037       0.00850321
H        9.90883671       8.98948500       2.76452231      -0.00793138      -0.00391883      -0.00350246
H       10.07031301       8.42885632       0.38121850       0.00717472       0.01691785      -0.01029720
H        8.40730504       8.92420885       0.75561300       0.00371532       0.00280219      -0.01014524
H        9.49639463      10.03763650      -0.08313969      -0.00113478       0.01754130       0.00404890
H        9.12189249      11.60141990       1.98460350      -0.00513403      -0.00138332       0.00650723
O       10.55932491       0.14645788       8.66097298       0.01173753      -0.01051313      -0.00936270
C        9.91651668       1.44991993       8.66597624       0.01291558      -0.01008776       0.00219449
C        8.45300549       1.27973078       8.33568132       0.01302403      -0.00511879       0.00018889
H       10.06434568       1.92912882       9.62985896       0.01274892      -0.01903769       0.00666621
H       10.41507285       2.06791826       7.92262770       0.01379853      -0.00366709       0.00863752
H        7.93389946       2.23842426       8.39073203       0.01457868      -0.00516595       0.00871582
H        8.33705594       0.90599996       7.31920988       0.01313066       0.00551751      -0.00356503
H        7.96264864       0.58836011       9.01969786       0.01162957      -0.01081711      -0.00705187
H       11.14010490       0.09904084       9.42419461       0.01065338      -0.01854265      -0.00946331
O        6.06867735       5.83173638       7.39458476       0.00509417      -0.00395626       0.01782864
C        7.37890865       5.27052366       7.33117114       0.00949994       0.00786075       0.00650481
C        8.46978991       6.26913666       7.65210842       0.00448999       0.02236205      -0.02406816
H        7.44164491       4.41421137       8.01845293       0.02858676       0.01943648       0.01793492
H        7.48358913       4.89436720       6.31453874      -0.00214286      -0.00563680       0.01063871
H        9.44126517       5.77294048       7.67811009       0.00935289       0.03197313      -0.03249276
H        8.50631686       7.06512972       6.90859063      -0.01409769       0.01223382      -0.03473848
H        8.31532888       6.69092076       8.64290655       0.01487985       0.03444008      -0.02794686
H        5.92180059       6.11555184       8.30187841       0.01364566       0.00251788       0.01698530
O        1.55158952       5.40992216      10.53167684       0.00664368       0.00100139       0.01999405
C        2.40165260       4.32833549      10.16753162      -0.00710902      -0.00471198       0.00974140
C        3.65175918       4.78992793       9.44199055      -0.00521728      -0.01137990       0.00975963
H        2.67325795       3.77906116      11.07768534      -0.00966736      -0.01493996       0.00441268
H        1.82425887       3.65356947       9.52872731      -0.01613930       0.00606260       0.00732803
H        4.35637836       3.96619885       9.31108375      -0.01588233      -0.01742637      -0.00491513
H        3.41473509       5.17687084       8.45197776      -0.00632015       0.00434583       0.01663023
H        4.14308003       5.58039130      10.01396679       0.00659752      -0.02459139       0.01668115
H        1.76349025       5.65145044      11.45338015       0.00952844      -0.01130420       0.02336514
O        8.82998555      11.28325653       7.80998564       0.00118056      -0.00345826       0.00366356
C        9.05244266      10.02946691       8.44778114       0.00161308      -0.00290188       0.00393280
C       10.37470005       9.39773813       8.07008010      -0.00137705      -0.00511011      -0.00133306
H        8.99202222      10.14721494       9.53567572       0.00660271      -0.00132281       0.00397694
H        8.22670402       9.38443360       8.14474841      -0.00061622      -0.00147614       0.00836596
H       10.51422698       8.45985795       8.61037410       0.00017884      -0.00434092      -0.00111525
H       10.41546773       9.18484833       7.00305801      -0.00695355      -0.00649580      -0.00122248
H       11.20748706      10.05908056       8.32304487       0.00036007      -0.00574447      -0.00641010
H        9.45517592      11.93170646       8.18098096       0.00463425      -0.00445828      -0.00131874
O        6.00493592       9.29479148       4.36005372      -0.01591456      -0.01522270      -0.00933699
C        7.18228598       8.61336437       3.91244152      -0.01382416      -0.01283276      -0.00640825
C        7.14277215       7.14435177       4.25664156      -0.01648650      -0.01341993      -0.01082091
H        7.30642375       8.76994843       2.83650079      -0.01041341      -0.01002272      -0.00552112
H        8.01838907       9.11778695       4.40305905      -0.01518029      -0.01462580      -0.00240436
H        8.09023034       6.66062436       4.00909327      -0.01711628      -0.01466776      -0.00940662
H        6.94361592       7.01170598       5.31922419      -0.01999809      -0.01585430      -0.01200417
H        6.34695393       6.63730899       3.70635779      -0.01635917      -0.00926778      -0.01419032
H        5.25772530       8.69911827       4.23119725      -0.00930822      -0.02739155       0.01509569
O        1.87081421       5.64611780       0.22212603      -0.00348830      -0.00588283      -0.01799905
C        2.75437851       4.82764557       0.99667631       0.00289673       0.00802567      -0.01178833
C        4.15111813       5.37995209       0.89659802      -0.00273755       0.02165110      -0.01117467
H        2.42785709       4.81651612       2.03977284      -0.00075510       0.01120736      -0.01352042
H        2.72192040       3.79306666       0.62234530       0.01563391       0.00561529      -0.00582224
H        4.87609068       4.65556801       1.27230969       0.00062710       0.03799877       0.01101288
H        4.39431302       5.59786352      -0.14214229       0.00630365       0.00439836      -0.01213025
H        4.24873042       6.28632877       1.49620795      -0.01904888       0.03387451      -0.02851847
H        0.97160794       5.36762971       0.45691829      -0.00175336      -0.01086622      -0.01864360
O        1.33084532      12.14470020       4.40697415      -0.00048774       0.01628928       0.00293708
C        2.09723506      12.10866614       5.60508639       0.00307316       0.01040975       0.00083428
C        3.56345450      11.99595910       5.27565996       0.00068495      -0.00103462      -0.00295046
H        1.91131223      13.01418324       6.19314975       0.01150057       0.01191747       0.00057995
H        1.79456747      11.24219468       6.20192427      -0.00238231       0.01326025       0.00137222
H        4.13221416      11.90093553       6.20178461       0.00137495      -0.01106200      -0.00482652
H        3.75410288      11.10242880       4.68001601      -0.00844475      -0.00009683      -0.00705744
H        3.90429593      12.88362822       4.74070091       0.00828509      -0.00286055      -0.00058272
H        0.40777913      12.26505485       4.70861823       0.00045145       0.01305953       0.00589368
O       12.01917741      12.47110544       5.51352038      -0.00235487       0.00026577       0.00649965
C       11.17386115      11.38128083       5.09436932       0.00324787      -0.00062498      -0.00045969
C       11.95084386      10.08697156       4.97125146       0.00583503       0.00109240       0.00391709
H       10.35020050      11.27990743       5.80724190      -0.00158000      -0.00318516      -0.00657502
H       10.75442417      11.68074529       4.13557842       0.00923671      -0.00058523      -0.00311571
H       11.28248766       9.26298973       4.71322477       0.00938939       0.00116441      -0.00477687
H       12.71078568      10.15531314       4.19350784       0.01329294       0.00417984       0.01192011
H       12.45034321       9.83405594       5.90730617      -0.00352709      -0.00046462       0.00809005
H       12.01162820      12.51373263       6.47563185      -0.01352202       0.00364521       0.00591835
O       12.11246405       5.77140877      11.54103649       0.00945491       0.00260055       0.01401454
C       11.65204591       6.97642539      10.94560963       0.00693180      -0.00146765       0.00834817
C       12.76596180       7.97548350      10.68809717       0.00312281       0.00345665       0.01267119
H       11.10630655       6.75820288      10.01732378       0.01389956      -0.00616895       0.00556225
H       10.92469168       7.39607925      11.64424433       0.00070894      -0.00321178       0.00258628
H       12.35418636       8.93565502      10.37114399       0.00067242      -0.00165778       0.00078467
H       13.35073772       8.13204313      11.59608261      -0.00731939       0.01421330       0.01701577
H       13.44229904       7.61735003       9.91028072       0.01307432       0.00133912       0.02281994
H       12.86820379       5.45974503      11.01796451       0.01726515       0.00855029       0.02077085
O        3.29241998       2.41120217       4.50066967      -0.01838315       0.02722511       0.00398293
C        4.64709142       2.61184011       4.09255524      -0.02213153       0.02403128      -0.00710568
C        5.36820791       3.63937608       4.92840891      -0.00475034       0.00817531      -0.00376350
H        5.13872857       1.63765159       4.17196146      -0.02753636       0.02109298      -0.01781601
H        4.68365534       2.88858438       3.03189393      -0.02874678       0.03321961      -0.00491703
H        6.41132269       3.70808523       4.61571669      -0.00712234      -0.00546362      -0.01491853
H        4.90747117       4.62356818       4.81877823       0.00485191       0.01376842       0.01222600
H        5.34162806       3.36990117       5.98594867       0.00216001      -0.00459952      -0.00711328
H        2.97059586       3.23321308       4.89203993      -0.02313254       0.03602272      -0.02284487
O        1.67566973       5.31555794       5.65408389      -0.01308036       0.00786048      -0.02667290
C        1.03291582       5.88896000       6.80658185       0.00246039      -0.00225475      -0.01467484
C        0.16914269       7.07358005       6.43581001      -0.00518712      -0.00057369       0.00955777
H        0.44881376       5.12009653       7.32242015       0.01103541      -0.00732705      -0.01215224
H        1.83042601       6.19953192       7.48013628       0.01187658      -0.00682317      -0.02485669
H       -0.37013034       7.44401603       7.31062439       0.01230654      -0.00776613       0.02271441
H        0.79014335       7.88297874       6.05252417      -0.01327376       0.00280966       0.00440183
H       -0.56382634       6.79326012       5.67676547      -0.01956940       0.00528492       0.02248900
H        0.98646198       5.17319067       4.98145172      -0.02094159       0.01879721      -0.02447926
