197
Lattice="13.296872244295404 0.0 0.0 0.0 13.296872244295404 0.0 0.0 0.0 13.296872244295404" Properties=species:S:1:pos:R:3:forces:R:3 energy=-1156499.75 stress="0.0004224082513246685 -0.00032421645300928503 0.0009327548905275762 -0.00032421645300928503 0.0007701391587033868 0.0001749366638250649 0.0009327548905275762 0.0001749366638250649 0.00044906939729116857" pbc="T T T"
Ho      -0.60552279      12.20977355       0.34207839       0.00717658       0.00211665       0.00217490
Ho       7.59854378      11.82936952       4.49269887      -0.00090194      -0.00982602      -0.00067240
O       11.30085370      10.87291615       4.79413418       0.00204553       0.00871021       0.00383437
O        9.50911416      12.92496924       4.03727155      -0.00652593      -0.00452948      -0.00929700
O       11.54730515      12.01117793       2.10928294       0.00582181       0.00291009       0.00130379
O       12.30099899      13.51281161       4.49125277      -0.01349497       0.01497239       0.00049883
Mo      11.19499818      12.34642760       3.87444915      -0.00304225       0.00519162      -0.00110579
O        1.53749915      10.04969953       7.91699963      -0.00454110      -0.00025696      -0.00703368
O        3.58637846      11.82046692       6.90647266      -0.00411767       0.00538588       0.00085598
O        3.07742931      11.56431897       9.68759406      -0.01242429       0.00719222      -0.00326669
O        1.16525943      13.05398160       8.07262131      -0.00964257       0.00177880      -0.00994520
Mo       2.35682514      11.56354706       8.13153040      -0.00348175       0.00783926      -0.00728333
O        3.69196355      12.35308515       4.22756348       0.00520974       0.00296628       0.00047943
O        5.84169989      10.72849617       3.75095366      -0.00315754      -0.00834322       0.00224662
O        3.95520484       9.61744499       5.42114525      -0.00856245       0.00156569       0.00390863
O        6.09549059      11.88933060       6.02569768       0.00124541      -0.00846750       0.00171900
Mo       4.66897361      11.17138774       5.09549048      -0.00176680      -0.00253852       0.00224373
O       11.40617601      12.46616364      12.01085603       0.00977170       0.00069532       0.00000729
C       10.13965884      12.39123396      11.39218535       0.01036847      -0.00731236       0.00058363
H       10.18008757      12.74614954      10.35623445       0.01025140      -0.01738107      -0.00284702
H        9.40414307      13.00478370      11.92374754       0.00925051      -0.00321054      -0.00593024
H        9.76815821      11.36176204      11.36559559       0.01204702      -0.00787383       0.01030813
H       12.22135624      13.08613726      10.68264682       0.00637262       0.00939621      -0.00014807
O       12.72920183       9.86519922       0.15466297       0.00498777       0.00359902      -0.00296491
C       12.73825385       9.01321434       1.32586100       0.00446214      -0.00020608      -0.00623743
H       11.72286309       8.68704600       1.56124270       0.00415596      -0.00122654      -0.00854843
H       13.11637377       9.58779174       2.16678241       0.00336945      -0.00322895      -0.00369249
H       13.38728477       8.15401135       1.15757823       0.00491875       0.00011218      -0.00816392
H       12.45141158       9.25886281      -0.60137755       0.00439671       0.00734273      -0.00588775
O       12.80800680       1.20939028       0.90202386       0.00484279       0.00272094       0.00250592
C       11.70136632       1.90605468       1.50245726       0.00584142       0.00421940       0.00154465
H       11.39161833       2.73815256       0.86666827       0.00487142       0.00249007      -0.00091805
H       11.97859674       2.28301059       2.48680594       0.00657105       0.00753482      -0.00007832
H       10.86626418       1.21454315       1.60287375       0.00584102       0.00460252       0.00429703
H       13.53294216       1.90380134       0.76231637       0.00471148       0.00270885      -0.00083283
O        2.46416599       7.45293964       1.61766596      -0.00145578       0.00128245       0.00612997
C        3.35951299       6.42820021       2.04680570       0.00217906       0.00023451       0.00094423
H        2.99939878       5.45979692       1.68725956       0.00243890       0.00105914       0.00277288
H        3.44231203       6.40658695       3.13461075       0.00657701       0.00083760       0.00107431
H        4.35428674       6.59542824       1.62176340       0.00009456       0.00284347      -0.00265916
H        2.22495975       7.98477647       2.40884586      -0.00181801      -0.00279607       0.00619364
O        6.95491669       3.87084782       8.97062409       0.00704122      -0.00354415      -0.01412416
C        7.56923044       2.67897173       8.46153868      -0.00058586       0.00119837      -0.01347848
H        6.83069033       1.98219666       8.06055863       0.00133106       0.00084274      -0.01646686
H        8.14695576       2.17982396       9.24189693       0.00770229      -0.00214494      -0.02347191
H        8.24109782       2.99016356       7.66453367      -0.00368614       0.00920959      -0.01822777
H        6.42844473       3.63677071       9.74019570      -0.00208363      -0.01618803       0.00391638
O        4.11165536       8.78832835      -0.11477548      -0.02140567       0.01372045      -0.00253707
C        4.76086368       9.73991562       0.70308231       0.00093049      -0.00513762      -0.00128564
H        4.47211611       9.65615036       1.75474754       0.01065134      -0.00979941       0.00034934
H        4.53846077      10.76165302       0.37174569       0.01255633       0.00048912       0.01018029
H        5.84624584       9.59094561       0.64542461      -0.00217324      -0.01987273      -0.01541113
H        3.43196986       8.34890339       0.43039177      -0.01236512       0.00656667       0.00462629
O        1.27015826       3.04652197      13.75987759       0.00421232       0.00168329      -0.00713013
C        0.68209860       4.22613654      13.19869913       0.00405529       0.00234678      -0.00520051
H       -0.11879292       4.54900020      13.86214727       0.01074585       0.00705022      -0.00004913
H        0.29728905       4.03338811      12.19361697      -0.00479743       0.00161836      -0.00165102
H        1.41125805       5.03618003      13.13755545       0.00676519      -0.00054377      -0.01322180
H        1.80518608       2.62910358      13.04280309      -0.00081557      -0.00094384      -0.00885522
O        6.78803407       8.02627458       7.98574502      -0.00674421      -0.00725790      -0.00352104
C        8.01632886       7.38843389       7.66473537      -0.00004297       0.00046270      -0.00054023
H        8.10355435       6.40879154       8.14630036       0.00264868       0.00137526       0.00238052
H        8.82507389       8.01752082       8.03568886      -0.00357410       0.00407854      -0.00214034
H        8.15438278       7.27424259       6.58509334       0.00007513      -0.00312660      -0.00047237
H        6.07772356       7.37413981       7.88605413       0.00162383      -0.00493895      -0.00061323
O        2.28048022       1.68200289      11.73355241      -0.01127589      -0.01144230      -0.00615081
C        2.09269263       0.29551796      11.96143122      -0.00447789      -0.00875989       0.00823601
H        1.81904345      -0.22711078      11.04619159       0.01359065      -0.02354379       0.01237449
H        1.27947802       0.19810788      12.70773132      -0.01405628      -0.00504719      -0.00294800
H        2.98442005      -0.16501071      12.38912078      -0.00859094       0.00446276       0.02737363
H        2.36646402       1.82334938      10.75637649      -0.00687150      -0.01829482      -0.00659923
O        1.99750662       8.85268227       3.85678617      -0.00750604      -0.00756347       0.00745976
C        0.93540356       9.43419743       4.60441564      -0.00838619      -0.00256670       0.00080651
H       -0.00748638       8.98176976       4.30048691      -0.00848103      -0.00201234      -0.00187141
H        0.87397144      10.51651126       4.43627949      -0.00609478      -0.00336438      -0.00341410
H        1.08223138       9.27303398       5.67354117      -0.01385791       0.00144091       0.00192624
H        2.81714075       9.02623542       4.38427852      -0.00724091      -0.00330821       0.00871374
O        0.30439431       6.55331710      10.45262248       0.00295136       0.00889486       0.00186470
C        0.41441629       5.39566450       9.64648566      -0.00257262       0.00758064       0.00302947
H        0.55913019       5.65333882       8.58983766      -0.00487041       0.00636612       0.00196472
H       -0.49786080       4.81159786       9.76945596      -0.00359017       0.00978972       0.00597271
H        1.26132713       4.76696590       9.94613596      -0.00333482       0.00604114       0.00108971
H        1.04404934       7.15564742      10.18209278       0.00213000       0.00829307      -0.00310847
O        7.47636194      11.70473337       2.06186405      -0.00022846      -0.01389211       0.00031956
C        8.20086993      11.32811350       0.89601999       0.00145294       0.00141187      -0.00201771
H        7.67641307      11.65465075      -0.00354404      -0.00101624       0.00416683       0.00041375
H        8.34834954      10.24546593       0.85611195       0.01070279       0.00304946      -0.01070631
H        9.17403553      11.81200052       0.94671342      -0.00246590       0.00864969       0.00194900
H        6.63906565      11.20731888       2.14546012      -0.00059482      -0.01583681      -0.00616217
O        2.82788407      12.59528306       1.73208393       0.00535655      -0.00178975       0.00175124
C        1.85314951      11.60734736       1.58910085       0.00670892      -0.00311023       0.00463581
H        1.68393443      11.43586575       0.50493448       0.00704426      -0.00771200       0.00551554
H        0.90904061      11.88853103       2.12029184       0.00600033      -0.00275437       0.00327739
H        2.13894107      10.63241418       2.00071335       0.00737911      -0.00145262       0.00865304
H        3.15931825      12.54519273       2.66594271       0.00588008       0.00078195       0.00219784
O        6.23107018       0.52003511       3.94514501       0.00651616      -0.00783513       0.00326568
C        6.03281500       1.22517915       2.70939115       0.01690282      -0.00316278       0.00473423
H        5.48540871       0.60714576       1.99556664       0.01999116       0.00086230      -0.00094162
H        7.01159728       1.47360166       2.30994879       0.02070993      -0.00550622       0.01217263
H        5.47981765       2.14754999       2.89526631       0.01913646      -0.00181305       0.00378829
H        5.33972978       0.27481685       4.26124421       0.00296709      -0.00650844      -0.00316558
O       10.04093967       4.27523301       5.60766950      -0.02045809       0.01527864       0.01724264
C       10.98078598       3.20509239       5.70568064      -0.02648251       0.00935492      -0.01061314
H       11.09438487       2.87062030       6.74319978      -0.00943961       0.00071853      -0.01681709
H       11.96560073       3.49004886       5.32475250      -0.03326282       0.00641976      -0.02802622
H       10.61505443       2.36626675       5.11667127      -0.04543100       0.01754256      -0.00830349
H       10.40704374       5.02868254       6.10612065      -0.00992203       0.01011219       0.01677623
O        2.61580948       1.86486187       9.11723167      -0.00137281      -0.00828682      -0.00331950
C        3.97356612       1.48440600       8.87863261      -0.00007018      -0.00084095      -0.00764900
H        4.60091999       2.27088611       9.29802729      -0.00308293      -0.00041190      -0.00485618
H        4.16928143       1.40113104       7.80778132      -0.00214439       0.00551253      -0.00846717
H        4.21771373       0.53281578       9.36019918       0.00482188      -0.00217915      -0.01304555
H        2.04937132       1.21399300       8.64824158      -0.00056410      -0.00498250      -0.00840901
O        0.26032566       4.96446302       3.01976875      -0.03384829       0.01233873       0.01345807
C        0.24571544       5.78773725       4.18371448       0.01119816      -0.01857166      -0.00818492
H        1.00526640       6.57211830       4.14347399      -0.00426018      -0.00649190       0.00232806
H        0.39107578       5.20009390       5.09614183      -0.00094273      -0.00721130       0.00088289
H       -0.74038642       6.24974968       4.22835039      -0.00878546      -0.00602387       0.00193827
H        1.14641891       4.60797747       2.91532620       0.02715041      -0.01408682      -0.00260717
O        3.63842397       5.82821961       5.36162977       0.01418751      -0.00315166      -0.00299683
C        3.39499489       4.43939179       5.24626442       0.00443992      -0.00211346      -0.00044522
H        2.56170057       4.09471456       5.86771356       0.00517666       0.00382307       0.00520512
H        4.27815196       3.83967335       5.49380976       0.00205928      -0.00663234      -0.00280865
H        3.13936281       4.23349805       4.20523100      -0.00165656      -0.00130683       0.00257528
H        4.22011137       5.96604316       6.12099186       0.01049178      -0.00462307      -0.00054845
O        2.24942840       7.93986793       9.38193548      -0.00224039       0.00683354      -0.00455645
C        3.53375786       8.29498369       9.89879676      -0.00494412       0.00638562       0.00542516
H        3.88486428       7.47132223      10.51740087      -0.01152679       0.00955579       0.01147546
H        3.49297028       9.19327236      10.51343185      -0.00958801       0.00954628       0.00067222
H        4.23909643       8.45585832       9.07852905       0.00117835       0.00228791       0.01029044
H        1.92649568       8.69238638       8.83295868       0.00053438       0.00453940      -0.00452309
O       11.25755062       6.16004668       7.25318060      -0.00344220       0.00493515       0.01076716
C       11.83748003       7.44977741       7.00603885      -0.00612614       0.00531304      -0.00389618
H       12.87069656       7.36312528       6.66224096      -0.00637123       0.00154190      -0.00532731
H       11.81924379       8.06248463       7.90995550      -0.00253192       0.01200069      -0.00809821
H       11.23681232       7.92276768       6.23123570      -0.00689074      -0.00098115      -0.00555763
H       11.76272910       5.73659410       7.95334424      -0.00349167       0.01200129       0.00585064
O        7.90326261       4.61060941       3.83151950       0.01761141      -0.00269717      -0.00119409
C        6.75577452       5.37013080       4.21590142       0.01670559      -0.01198350       0.01260271
H        6.65389657       5.43579422       5.29953655       0.01859774      -0.03673895       0.01351750
H        5.86457335       4.88980737       3.81385606       0.01824287      -0.00459076       0.00322871
H        6.81064248       6.38621759       3.81454563       0.01443048      -0.00423881       0.03517383
H        8.52383498       4.50728502       4.57755180       0.02435418       0.00899154      -0.00619614
O        1.41919967       1.65769900       5.36239452      -0.00163674      -0.00051220       0.00680780
C        1.56831725       1.74322694       3.95705102       0.00511368      -0.00910766       0.00818503
H        1.49873428       0.76703984       3.47558538       0.00463007      -0.01041275       0.01194434
H        2.56087016       2.14333066       3.74691118       0.00927508      -0.01395351       0.01349069
H        0.81962652       2.40776448       3.50786647       0.01218277      -0.00793368       0.00065833
H        0.68413135       1.05196273       5.51532516      -0.01201916       0.00391764       0.00504597
O       12.65140349       0.21071987       9.90017892       0.00239863       0.01116657      -0.00109634
C       12.27983095       1.57412111       9.82236854       0.00063197       0.01098239       0.00239588
H       11.26023410       1.68998344       9.43812342      -0.00196323       0.01045686       0.00940491
H       12.96508745       2.07046087       9.13501494      -0.00436175       0.01218070      -0.00111891
H       12.35307621       2.06210983      10.79855821       0.00648369       0.01005501       0.00250140
H       13.72649138      -0.22495123       8.73307990      -0.00494845       0.00715956      -0.00559754
O        9.37446639       8.07938830       4.39387619       0.00129050      -0.00811094      -0.00542289
C        8.40486400       8.94413957       3.85429008       0.00177678      -0.00327218      -0.00000156
H        7.90604840       8.52329023       2.97567954      -0.00367676      -0.00071169       0.00186899
H        8.87842482       9.89438923       3.52485890       0.00399411      -0.00481641      -0.00061556
H        7.63394673       9.14512288       4.60549377       0.00616169      -0.00230724       0.00382164
H        9.57595146       7.41546855       3.70262100      -0.00081085      -0.00407262      -0.00869106
O        5.17230000       5.66019066       7.78207579       0.00035298      -0.00236851       0.00322793
C        4.01572091       5.23645341       8.51391963      -0.00035860       0.00497589       0.00628451
H        4.23205964       5.16206040       9.58370035       0.00100520       0.00655645       0.00601366
H        3.64919253       4.27283359       8.15353923      -0.00504491       0.00583333       0.00925623
H        3.24578648       5.99154461       8.37717489       0.00278819       0.00815961       0.00509547
H        5.88808635       5.03638825       8.00064838      -0.00140695      -0.00486730       0.00485893
O        6.92688334      10.28012019       9.71400282      -0.01121113      -0.02721781      -0.01630700
C        7.37875687       9.40390389      10.72289262      -0.00995517      -0.00457335       0.00136834
H        8.27987314       8.85646107      10.41898851      -0.00891614      -0.00815958       0.01224180
H        6.61435273       8.67606281      11.01667921      -0.00832763      -0.00242698       0.01129150
H        7.62644517      10.00569026      11.59738198      -0.00887650       0.00128379       0.00278831
H        6.70366387       9.71819975       8.95530788       0.00248804      -0.00730137       0.01644826
O        9.03489587      10.84912893       6.12917960       0.00155067       0.00257862       0.00277406
C        9.28661238      11.09071818       7.51851792      -0.01021915       0.00467091       0.00427495
H        8.34447085      11.33249804       8.00215713      -0.01482624      -0.00059664      -0.00288510
H       10.00155215      11.90918219       7.63826108      -0.01629314       0.00928453       0.00863927
H        9.69802881      10.19254410       7.98288684      -0.00834171       0.00756732       0.00818585
H        9.90867667      10.66921544       5.69701185       0.00486523       0.00860967       0.00737632
O        9.46260173       6.22673832       2.42373274      -0.00081319       0.00068481      -0.01483325
C       10.59235134       5.43184411       2.10180044       0.00237086       0.00325872      -0.00772516
H       10.39243668       4.81711255       1.21580786       0.00968745       0.00285669      -0.00866368
H       10.88022963       4.77870490       2.92965453      -0.00035419       0.00317946      -0.00657514
H       11.43419581       6.08654358       1.88299040       0.00251818       0.00535637      -0.00234591
H        8.81690290       5.61986390       2.86294992      -0.00047366      -0.00066120      -0.01303548
O       11.04572213       4.66983611      11.40297671       0.00675732      -0.02184328       0.01371485
C        9.76728733       4.13338426      11.09160341      -0.01369131       0.00216047       0.00234982
H        9.12065961       4.07604484      11.97309098      -0.01156032       0.02457798       0.00502288
H        9.84699632       3.13939615      10.64153376      -0.02278369      -0.00750577       0.02280065
H        9.30604188       4.80228071      10.36773895       0.00050245      -0.00727646      -0.00532684
H       11.45516774       4.12502875      12.08108854      -0.01975199       0.00593948      -0.00211611
O       11.84080194       8.15518395      11.75560702       0.00386560       0.01559064      -0.01316822
C       10.54382388       7.71217038      12.13699916       0.00957364       0.00499003      -0.00743822
H       10.58208672       6.91370595      12.88027847       0.01950043       0.00817955      -0.00464764
H        9.98147639       7.35720324      11.27117013       0.01056069      -0.00346442      -0.00413534
H       10.02237931       8.56968158      12.56264091       0.00269734       0.00136048      -0.00842839
H       12.35330937       7.44193721      11.31278516       0.00843549       0.01624119      -0.01049606
