197
Lattice="14.363394195752104 0.0 0.0 0.0 14.363394195752104 0.0 0.0 0.0 14.363394195752104" Properties=species:S:1:pos:R:3:forces:R:3 energy=-855670.5 stress="0.0007130829617381096 0.00019551841251086444 1.1889610505022574e-05 0.00019551841251086444 0.0005968301557004452 0.0006580583867616951 1.1889610505022574e-05 0.0006580583867616951 9.622036304790527e-05" pbc="T T T"
Ho       5.50071305      12.79901623      10.62476517      -0.00166446      -0.02316137      -0.02136724
Ho       9.88969094      13.72903672       2.85736453      -0.00883483      -0.00572982       0.00359893
S       12.13434488      14.17772776       1.16638798      -0.03241926       0.00966989      -0.02454758
O       13.19472001      13.20071638       1.22186793      -0.03058028       0.01013517      -0.03814491
O       11.81998301      14.69978422       2.59958536      -0.01597476       0.00424486      -0.01858938
O       12.33124943      15.29574636       0.27921186      -0.04145968       0.01162267      -0.02403355
O       10.78369690      13.47847611       0.86555046      -0.03594530       0.01208889      -0.01290095
S        7.51266403      13.19911715       4.32372146      -0.01122850      -0.01581281      -0.00041263
O        8.86816182      13.71446745       4.85815036      -0.00834942      -0.02692914       0.00388193
O        7.68752608      13.50417091       2.82381991      -0.00858727      -0.00403750       0.00235224
O        7.44584999      11.75642802       4.50059701      -0.01868200      -0.01692748      -0.01139757
O        6.42612158      13.94476931       4.90643201      -0.00792491      -0.01469791       0.00534558
S        3.49129478      13.90029812      11.66129367       0.03987184      -0.02171957      -0.00791526
O        2.33060111      14.41346801      12.30315064       0.01701033      -0.00158578       0.03060812
O        3.44858757      12.40919244      11.30891958       0.00345935      -0.00842261      -0.00418678
O        3.87242190      14.52093133      10.34237840       0.00714228      -0.00495887       0.00483274
O        4.79250971      13.98050885      12.44497128       0.03028214      -0.02714133      -0.01085514
C       10.04839123       3.72734060       0.76544447       0.01121112      -0.01085010      -0.00278550
C       10.89191755       3.67237712       1.87091912       0.01361658      -0.00490284      -0.00397315
C        9.26001258       4.85284392       0.54738802       0.00517657      -0.01499414      -0.00241044
C       10.94412504       4.74751186       2.75261026       0.00676813      -0.00474867      -0.00321265
C        9.31711919       5.92767296       1.42953683      -0.00078711      -0.01494770      -0.00232754
C       10.16039016       5.87705646       2.53402349      -0.00103371      -0.01033263      -0.00213364
H       10.02731565       2.88828614       0.08100400       0.01266703      -0.01102659      -0.00275867
H       11.51177274       2.79579931       2.02107357       0.01904516      -0.00124750      -0.00587238
H        8.60994587       4.90220562      -0.31832197       0.00487968      -0.01810674      -0.00235280
H       11.60322376       4.71354051       3.61213655       0.00516080       0.00226517      -0.00162183
H        8.70825747       6.80874233       1.25715677      -0.00661392      -0.01899195      -0.00072694
H       10.20818898       6.71201982       3.22255956      -0.00726327      -0.01181045       0.00011745
C       10.70959118       1.62587906       8.54485506      -0.00100164      -0.00064247      -0.00095489
C       10.88995032       2.40742151       7.40889501       0.00007410      -0.00421504      -0.00329868
C       11.80876272       1.08257413       9.20078998      -0.00152789       0.00327677       0.00326322
C       12.17404267       2.65087147       6.93417097       0.00071148      -0.00461924      -0.00211793
C       13.09257562       1.31953928       8.72175877      -0.00091389       0.00326356       0.00479740
C       13.27325436       2.10613949       7.58926751       0.00017023      -0.00096181       0.00194028
H        9.71045276       1.44216816       8.92192651      -0.00164117      -0.00090968      -0.00257599
H       10.03500204       2.83025712       6.89613057       0.00040829      -0.00758711      -0.00659450
H       11.66731870       0.47504986      10.08490054      -0.00256053       0.00668665       0.00546454
H       12.31522622       3.26365236       6.05285613       0.00145878      -0.00800999      -0.00435181
H       13.94702416       0.89293467       9.23271021      -0.00099617       0.00664588       0.00798614
H       14.27236457       2.29206680       7.21430561       0.00062892      -0.00111937       0.00298896
C        5.61057653       6.40018971       2.91890887       0.00037006       0.00264081      -0.00479843
C        4.45635739       5.62756519       2.99854919      -0.00187935       0.00533088      -0.01074058
C        5.54278937       7.77490086       3.11937569       0.00370632       0.00196658       0.00121023
C        3.23927253       6.23536555       3.28343087      -0.00094134       0.00750734      -0.01063879
C        4.32507874       8.38154253       3.40858399       0.00468769       0.00407618       0.00119580
C        3.17328246       7.60853848       3.49032722       0.00237648       0.00680158      -0.00464574
H        6.56036448       5.92467178       2.70530309      -0.00046577       0.00088348      -0.00499394
H        4.51138449       4.55819660       2.84444628      -0.00433516       0.00581433      -0.01538943
H        6.43648977       8.38242214       3.04836102       0.00544649       0.00001156       0.00600344
H        2.34025488       5.63391644       3.35029225      -0.00290987       0.00986935      -0.01574721
H        4.27891284       9.45327041       3.55551824       0.00745616       0.00366928       0.00561180
H        2.22120837       8.07273424       3.71571355       0.00303864       0.00848895      -0.00501817
C        7.01329118       9.44710925      11.34363323       0.01063175      -0.01254243       0.00349130
C        7.65418330       9.11966816      12.52911785       0.00355081      -0.00019813       0.01064575
C        7.08063368      10.75417861      10.87104416       0.00729616      -0.01554322      -0.00543611
C        8.35123032      10.09391821      13.23762280      -0.00806016       0.00907682       0.00899182
C        7.75674433      11.74189495      11.60253715      -0.00310954      -0.00660273      -0.00821952
C        8.40087583      11.40913348      12.79239632      -0.01144633       0.00618604      -0.00007842
H        6.48774897       8.69396922      10.77073363       0.01920830      -0.01982689       0.00518691
H        7.62390803       8.10026084      12.89348955       0.00726062       0.00196722       0.01737855
H        6.70538910      10.93405944       9.85715262       0.01232279      -0.02335080      -0.00853083
H        8.86937519       9.82303481      14.14629270      -0.01300332       0.01879293       0.01470979
H        7.88155159      12.76099551      11.21055076      -0.00449498      -0.00937860      -0.01524703
H        8.96785579      12.14622918      13.34923265      -0.01791809       0.01243848      -0.00177918
C        3.43169799      11.72119693       0.48038380      -0.00898334       0.00752127      -0.00105190
C        2.05873293      11.92145789       0.58386463      -0.00900012       0.00594801       0.00302402
C        3.93857602      10.43254178       0.34168710      -0.00805329       0.00790780      -0.00191882
C        1.19241894      10.83312276       0.54976546      -0.00798663       0.00492890       0.00522292
C        3.07468167       9.34378277       0.30185704      -0.00711264       0.00707696      -0.00007504
C        1.70149679       9.54583749       0.40553940      -0.00709233       0.00561926       0.00330155
H        4.10586452      12.56888742       0.49486314      -0.00935051       0.00804169      -0.00519349
H        1.64749671      12.91782005       0.68018167      -0.00998914       0.00561365       0.00338326
H        5.00900524      10.27514479       0.26640447      -0.00807889       0.00890886      -0.00453524
H        0.12733230      11.00969898       0.63601074      -0.00807217       0.00370042       0.00727155
H        3.47123307       8.33963430       0.20681053      -0.00640586       0.00758316      -0.00205926
H        1.02915847       8.69519800       0.37453319      -0.00629923       0.00478360       0.00389141
C        7.70688732      11.76871686       7.49906794      -0.00641136       0.00510146       0.00448820
C        7.52852620      13.06889383       7.96509623      -0.00790414       0.00636026       0.00106954
C        6.61167526      10.92799411       7.34072686      -0.00661281       0.00674936      -0.00224271
C        6.24459032      13.54196293       8.24042397      -0.00918522       0.01112732      -0.01263429
C        5.33063199      11.38231404       7.64380718      -0.00819618       0.01026581      -0.01241526
C        5.13630183      12.69610032       8.06734825      -0.00919685       0.01283704      -0.02010302
H        8.69042426      11.42707411       7.20724212      -0.00465074       0.00302783       0.01245344
H        8.38089564      13.73360317       8.02928569      -0.00667855       0.00429656       0.00708447
H        6.75662411       9.93200565       6.94628278      -0.00576621       0.00587419      -0.00020881
H        6.08720637      14.58224888       8.52045778      -0.00899842       0.01171280      -0.01617733
H        4.47526232      10.73400878       7.49912917      -0.00840648       0.01209692      -0.01927374
H        4.13260320      13.07114468       8.24882767      -0.00990029       0.01478532      -0.02942723
C       12.36422936       6.19377012      13.37183487      -0.00396509      -0.00799777      -0.00095609
C       12.95096364       5.08776940      12.76674980      -0.00853717      -0.01140662       0.00093003
C       11.23717136       6.77857455      12.80904028       0.00241867      -0.00013947      -0.00607000
C       12.40913490       4.56703142      11.59680607      -0.00601418      -0.00671804      -0.00239995
C       10.69398983       6.25850516      11.63977864       0.00408702       0.00361233      -0.00864626
C       11.27974583       5.15257501      11.03234248      -0.00061940      -0.00002108      -0.00658362
H       12.77776992       6.59062324      14.29048652      -0.00431215      -0.01005949       0.00003773
H       13.82111044       4.62266589      13.21202910      -0.01337291      -0.01678839       0.00470167
H       10.78361741       7.64278901      13.27832212       0.00668633       0.00312521      -0.00814386
H       12.86006798       3.70075778      11.12918758      -0.00760346      -0.00719585      -0.00298725
H        9.82111271       6.72539838      11.19813637       0.00923035       0.00961735      -0.01250206
H       10.86205375       4.74245919      10.11990226      -0.00037101       0.00171324      -0.00752345
C       10.26070765      11.09504539       2.93625680       0.00994226      -0.00426230      -0.00549200
C       10.79994677      10.14193698       2.07937356       0.00882549      -0.00532347      -0.00557264
C       11.04563859      11.61844551       3.96535083       0.01307801      -0.00059241      -0.00966398
C       12.09982227       9.69863016       2.26546725       0.01064842      -0.00185279      -0.00936206
C       12.36219915      11.20386962       4.12421291       0.01436187       0.00201090      -0.01301330
C       12.88259174      10.23259870       3.28401298       0.01329307       0.00147718      -0.01306689
H        9.20397263      11.36546347       2.85245697       0.00848180      -0.00785305      -0.00172958
H       10.19869745       9.72702131       1.28327319       0.00695520      -0.01014619      -0.00165854
H       10.60443146      12.30526406       4.68957314       0.01423626      -0.00146917      -0.00796228
H       12.50790698       8.93899845       1.61068393       0.00948958      -0.00289798      -0.00890166
H       12.97274388      11.63622663       4.90415351       0.01564561       0.00332176      -0.01471001
H       13.90406126       9.90057084       3.41255147       0.01392600       0.00246772      -0.01503889
C        6.85957410       3.67758706       7.66035110       0.00354815      -0.00647467       0.00409017
C        5.59295231       4.22805969       7.49329209       0.00592154      -0.00241558      -0.00012419
C        7.65769452       4.08729532       8.72311987       0.00183199      -0.00865563       0.00637184
C        5.12556917       5.18104089       8.39139939       0.00625838      -0.00040388      -0.00192587
C        7.18919631       5.04190253       9.61881888       0.00210183      -0.00698222       0.00472769
C        5.92405389       5.58949046       9.45207945       0.00425359      -0.00298898       0.00071318
H        7.22118972       2.92972477       6.96446215       0.00313517      -0.00815754       0.00565019
H        4.97066770       3.91232482       6.66463616       0.00743377      -0.00063182      -0.00196475
H        8.64842446       3.66936036       8.85055030      -0.00006023      -0.01196206       0.00962656
H        4.13351152       5.59554785       8.27822397       0.00810491       0.00326216      -0.00558443
H        7.80665734       5.34554358      10.45613072       0.00066184      -0.00892355       0.00660591
H        5.53916658       6.30540816      10.16743740       0.00437922      -0.00144066      -0.00074120
C        5.41779175       3.94229709      12.43242205      -0.00791197       0.00347188       0.00827488
C        4.88249170       3.06750870      11.49663789      -0.01203766       0.00241555       0.01154249
C        4.65923339       5.00544720      12.90939643      -0.00271297       0.00917391       0.00426424
C        3.59244790       3.26023109      11.01954854      -0.01165409       0.00552000       0.01194549
C        3.36923005       5.20311256      12.42813010      -0.00246656       0.01230004       0.00438373
C        2.83980558       4.33445678      11.47943733      -0.00709368       0.01024457       0.00857438
H        6.43052681       3.79813681      12.78833272      -0.00923946      -0.00323466       0.00867706
H        5.46640054       2.23268483      11.13354146      -0.01545762      -0.00150357       0.01535199
H        5.06665232       5.67197683      13.66034167       0.00007661       0.01086590       0.00133577
H        3.18411645       2.56360974      10.30072566      -0.01494045       0.00347857       0.01543403
H        2.77545400       6.03114010      12.79578949       0.00054288       0.01559471       0.00188450
H        1.83583731       4.49194439      11.10399438      -0.00704880       0.01233877       0.00942018
C        2.74532838       8.02039139       7.13288970      -0.00287898      -0.00440349      -0.00001666
C        2.08873212       8.69851744       8.15277191       0.00279760      -0.00382143       0.00332208
C        2.36115800       6.72541700       6.80213367      -0.00858486      -0.00252444      -0.00099316
C        1.04623627       8.08598890       8.83879928       0.00282207      -0.00115528       0.00577319
C        1.32328442       6.10928816       7.49222650      -0.00849057      -0.00002691       0.00161260
C        0.66360559       6.79010502       8.50980117      -0.00270770       0.00073008       0.00495912
H        3.54807746       8.49686673       6.58285138      -0.00294192      -0.00633401      -0.00182949
H        2.37034669       9.71325218       8.40562665       0.00752982      -0.00525004       0.00418041
H        2.87957527       6.20055875       6.01042483      -0.01334383      -0.00295185      -0.00394779
H        0.52893517       8.62488073       9.62059874       0.00717677      -0.00034667       0.00832373
H        1.03024983       5.09750901       7.23968399      -0.01308092       0.00149438       0.00082528
H       -0.14491400       6.30984112       9.04825947      -0.00264032       0.00247352       0.00683845
C       11.45796186      11.36847143      10.38228494      -0.00290976       0.01224935       0.01062121
C       11.53643050       9.99907142      10.14708969       0.00043885       0.01323496       0.00528797
C       12.36882990      11.98415861      11.23407412      -0.00567670       0.01028636       0.01506282
C       12.52892902       9.24961225      10.76788334       0.00063541       0.01236287       0.00424853
C       13.36785111      11.23602368      11.84701181      -0.00502042       0.00946705       0.01342469
C       13.44379283       9.86753847      11.61499492      -0.00201325       0.01047514       0.00828902
H       10.68475358      11.95349145       9.89764979      -0.00336819       0.01221519       0.01126936
H       10.82827336       9.51630906       9.48361236       0.00195456       0.01404063       0.00317353
H       12.30463826      13.04424308      11.44042827      -0.00812196       0.00898027       0.02136462
H       12.58414009       8.18107731      10.59877877       0.00203192       0.01299605       0.00052651
H       14.07711931      11.72067365      12.50451569      -0.00715852       0.00820305       0.01648360
H       14.21776376       9.28352971      12.09914575      -0.00233778       0.00993965       0.00838939
C        8.36459822       7.44918236       6.82776675       0.00885980      -0.00630228       0.01035068
C        9.40701610       7.04678362       7.65642511       0.01084782      -0.00502764       0.00843126
C        8.63729615       8.19895023       5.68893533       0.00552270      -0.00448681       0.01053324
C       10.71960501       7.37996343       7.34303345       0.00978664      -0.00171712       0.00701529
C        9.95056118       8.53261692       5.37537040       0.00456399      -0.00116390       0.00914046
C       10.99160306       8.12150442       6.19887408       0.00647229       0.00017637       0.00738374
H        7.34523332       7.17255970       7.07209653       0.00980668      -0.00879152       0.01153754
H        9.18864596       6.46690517       8.54241575       0.01329713      -0.00674990       0.00802125
H        7.83146865       8.53273226       5.04701736       0.00393561      -0.00611007       0.01181013
H       11.52880552       7.06314501       7.99002792       0.01144564      -0.00076151       0.00549301
H       10.16111715       9.11575986       4.49054525       0.00212289       0.00058849       0.00956850
H       12.01212624       8.38383676       5.94869239       0.00573778       0.00251082       0.00629789
C        6.72544045       2.89097179       2.51093085       0.00320053      -0.00687044       0.00260571
C        6.25093522       2.62186937       3.78787881      -0.00310007      -0.00453436       0.00082326
C        5.97596965       2.51511432       1.40152086       0.00653116      -0.00479905      -0.00030240
C        5.03075201       1.97920152       3.95634538      -0.00611475      -0.00028816      -0.00398874
C        4.75289305       1.87460249       1.56546148       0.00323312       0.00013822      -0.00518057
C        4.28145279       1.60794837       2.84682388      -0.00305888       0.00230960      -0.00699338
H        7.68014710       3.38479163       2.37664823       0.00564349      -0.01045207       0.00622457
H        6.84372909       2.89419092       4.65138740      -0.00611199      -0.00573348       0.00333995
H        6.34568645       2.71398574       0.40482423       0.01191778      -0.00709613       0.00123157
H        4.68777854       1.73174666       4.95212579      -0.01129568       0.00205663      -0.00518070
H        4.17956934       1.57307778       0.69725218       0.00525215       0.00276549      -0.00747459
H        3.33907861       1.08996799       2.97725018      -0.00630623       0.00714985      -0.01069173
C        1.05642996      10.95083862       5.77680931       0.01064329       0.00316535       0.00079720
C        1.84260985      11.17492501       4.65230653       0.01023633       0.00698237       0.00111367
C        0.83233104      11.97918215       6.68663936       0.01174530      -0.00002044       0.00477183
C        2.41851878      12.42192967       4.43976852       0.01100905       0.00742507       0.00548603
C        1.40083385      13.22955984       6.46967962       0.01199504       0.00056215       0.00879870
C        2.19742050      13.44777931       5.35058397       0.01147053       0.00438079       0.00909112
H        0.61104553       9.97800552       5.94543673       0.00984406       0.00288475      -0.00276672
H        2.00137437      10.38522376       3.92836166       0.00953573       0.00950027      -0.00190379
H        0.21018604      11.80774387       7.55718684       0.01207225      -0.00294042       0.00456761
H        3.03272825      12.59060478       3.56517662       0.01155023       0.01004157       0.00628407
H        1.22029263      14.03359276       7.17239861       0.01301457      -0.00196813       0.01218295
H        2.64749842      14.41796168       5.18508786       0.01223475       0.00463079       0.01237956
