199
Lattice="13.742496773719107 0.0 0.0 0.0 13.742496773719107 0.0 0.0 0.0 13.742496773719107" Properties=species:S:1:pos:R:3:forces:R:3 energy=-875940.0 stress="-0.00190636923070997 0.00152330455603078 1.2258706647116924e-05 0.00152330455603078 2.5206620193785056e-05 0.00036479638947639614 1.2258706647116924e-05 0.00036479638947639614 -0.0015630765119567513" pbc="T T T"
Ho       8.87305866      12.31725940       0.45973379      -0.00837463      -0.00630139       0.00716710
Ho       5.74836994      14.05444839       4.22839275       0.03140862       0.02335468       0.00065546
S        8.18811175      11.74189242      11.74712396       0.00176759       0.00553431      -0.01302634
S        9.61356762      13.19292488      11.70765233      -0.00427663       0.01873320       0.01531563
O        7.76394986      11.22671864      10.48508767       0.01840754       0.01278667       0.01078758
O        7.12477397      12.34904003      12.62784933      -0.00335014      -0.00462687       0.00206989
O        8.80324147      10.70259901      12.66773898       0.01382750       0.00007904      -0.00248286
S        1.09095866      10.57580362       1.85669583       0.01226145       0.00453153      -0.00446057
S        0.49989448       9.72331932       0.07369774       0.03075960       0.00807393      -0.01184750
O        0.07776059      10.23831375       2.86766104       0.00357854      -0.00085288      -0.01511836
O        1.17973231      12.03141174       1.63503245       0.00826329       0.00527525      -0.00146642
O        2.40447489      10.00673636       2.19409834       0.01089668       0.00912774       0.00769746
S        7.60182461      12.44654772       5.63475197       0.02698705       0.02572230       0.01398703
S        7.80024252      10.55641476       5.27214934       0.01956607       0.02096367       0.03481796
O        6.15362462      12.79672616       5.98613548       0.02693695       0.03369820       0.00779319
O        7.72352012      13.23223496       4.28335855       0.03249605       0.00861338       0.00488645
O        8.52928646      12.99703126       6.58521807       0.02370864       0.03380996       0.00931656
O       10.16154088      11.07556717       1.83312095       0.02566275      -0.00276758      -0.01263260
C       12.01898294      12.56203265       1.89652803       0.00763541       0.01739644      -0.00744659
C       10.76662441      13.29220686       2.37420572      -0.00077207      -0.00136864       0.00089189
C       11.44077101      11.38462899       1.13928982       0.01971635       0.01453096      -0.01243255
C        9.89697961      12.11975566       2.80772043       0.01611930      -0.01757374      -0.00421679
H       12.69457138      13.14668372       1.28084802      -0.00208202       0.03008407      -0.00561127
H       12.59384615      12.19165352       2.74615535       0.01702356       0.02141514      -0.01207888
H       10.92665044      14.00552766       3.18083344      -0.00740171      -0.00267449       0.00429025
H       10.31612478      13.88889084       1.54181449      -0.01002625      -0.00265354       0.00374822
H       11.19260721      11.63278724       0.08758546       0.01908752       0.01604456      -0.01240052
H       12.05805768      10.48880462       1.13049096       0.02858689       0.02142623      -0.01230643
H       10.12490131      11.76568312       3.81244703       0.03279176      -0.02301066      -0.01148549
H        8.80658185      12.31146538       2.82850429       0.01327468      -0.03033285       0.01004784
O        1.10162980       3.30494666      13.56280183      -0.02108571      -0.00220536      -0.01108381
C        1.37552961       4.08243128      11.33358526      -0.00700009      -0.00152358      -0.00858396
C        2.03122108       2.71077488      11.47899862      -0.01163614      -0.00351517      -0.00721258
C        1.20421542       4.51175972      12.78575813      -0.01160308      -0.00220295      -0.00906730
C        1.32976492       2.17150199      12.71465732      -0.01603740      -0.00249457      -0.00916612
H        1.97952857       4.77492132      10.75223314      -0.00252715      -0.00292778      -0.00551295
H        0.40720821       3.97745007      10.84228489      -0.00522661       0.00201233      -0.01279072
H        1.90126407       2.07526390      10.60412344      -0.01181377      -0.00265414      -0.00767341
H        3.10419975       2.82407275      11.65593719      -0.01170769      -0.00706588      -0.00537945
H        2.07505315       5.07706876      13.13755762      -0.01063043      -0.00638041      -0.00485323
H        0.31614905       5.12401027      12.96423403      -0.00957492       0.00152862      -0.01249401
H        0.36689593       1.71576557      12.45240747      -0.01458377      -0.00372547      -0.01227905
H        1.90447170       1.42983548      13.27438188      -0.01753539      -0.00161323      -0.00663280
O        5.35683499       2.06946767       2.80929190       0.00013742       0.01501980      -0.03433114
C        4.03177320       3.13634486       1.15705237      -0.01463778       0.00616693      -0.02160844
C        3.12894326       2.40542830       2.15331876      -0.01162994      -0.00561044      -0.01917355
C        5.41592765       2.57406816       1.44119985      -0.01680249       0.02094908      -0.02978697
C        4.03293400       2.33911440       3.36169034      -0.00423663      -0.00561911      -0.02614849
H        3.73624918       2.97779691       0.12365800      -0.02765246       0.01303880      -0.01970595
H        4.00524816       4.20715669       1.36329125      -0.02467550       0.00582695      -0.01211104
H        2.21590696       2.95116425       2.36354167      -0.01272529      -0.00729714      -0.00793423
H        2.87245245       1.40219686       1.80927297      -0.01159373      -0.00464779      -0.02353326
H        5.67717853       1.73133236       0.80064255      -0.01649127       0.00867939      -0.03674792
H        6.21757371       3.31234894       1.40426263      -0.02234305       0.01462990      -0.03884493
H        4.04593678       3.28341969       3.90938212      -0.01140454      -0.00917605      -0.01764463
H        3.74383157       1.52112345       4.06005652       0.00702795      -0.01811480      -0.03285577
O        6.96377987       2.42277964       5.11056690      -0.01361549      -0.02443532      -0.00670020
C        6.99203792       4.68588096       4.54306917      -0.00430155      -0.02307272       0.00642174
C        8.39226202       4.15705785       4.22255919      -0.00748938      -0.02940688       0.00328733
C        6.53802514       3.71562763       5.61302488      -0.01666182      -0.02655314      -0.00274447
C        8.28442778       2.65200546       4.52090774      -0.01004347      -0.02800912      -0.00309245
H        6.98945310       5.72319059       4.87791336       0.00512037      -0.02887401       0.02097043
H        6.34496506       4.61592353       3.66735183      -0.00265358      -0.00534336       0.00459975
H        8.69220050       4.36562351       3.19593508      -0.01032470      -0.02937183       0.00320631
H        9.12136955       4.62344151       4.88356420      -0.00372687      -0.03590049       0.00251526
H        7.05584916       3.91252427       6.55667953      -0.02619591      -0.03422009       0.00499788
H        5.46253271       3.67999447       5.78343851      -0.02013412      -0.02683780      -0.01816823
H        8.34533600       2.03584184       3.62283562      -0.01044160      -0.02668069      -0.00452662
H        9.03654700       2.30623237       5.23219535      -0.01686722      -0.03461676       0.00013977
O       13.79786636       1.57515156       8.34014323      -0.00252497      -0.00681166      -0.00023236
C       11.59921483       0.87258995       8.88976385      -0.00338614      -0.00613928      -0.00368696
C       11.80193235       0.75900134       7.37939537      -0.00067514      -0.00564758      -0.00303674
C       12.74701316       1.79218846       9.28870910      -0.00253379      -0.00833637      -0.00062881
C       13.31960487       0.72855211       7.28609129      -0.00103217      -0.00797383       0.00003485
H       10.62237635       1.26093488       9.17573524      -0.00331283      -0.00464009      -0.00522410
H       11.71055395      -0.10625245       9.35930773      -0.00614008      -0.00659451      -0.00390869
H       11.32069881      -0.11712289       6.94936453      -0.00101461      -0.00429225      -0.00398584
H       11.40824096       1.64417969       6.87353893       0.00208582      -0.00450999      -0.00314643
H       12.45089737       2.84843570       9.24306820      -0.00137571      -0.00804496       0.00187158
H       13.12808624       1.59388174      10.29377537      -0.00384450      -0.01134218      -0.00090879
H       13.70133674      -0.28925868       7.43651746      -0.00236893      -0.00812149       0.00172393
H       13.71283935       1.10985004       6.34178265       0.00066040      -0.00975879       0.00046429
O        8.95567984       4.20549041      11.83775394       0.00294691      -0.00092101       0.00540848
C       10.88068057       4.15510094      13.21811062       0.00231791       0.00389737       0.00614798
C       11.22925784       3.63985060      11.82272084       0.00180393      -0.00643978       0.01007115
C        9.35808288       4.07021009      13.20649324       0.00235349       0.00624051       0.00612563
C       10.11140272       4.25785792      11.00039783       0.00338328      -0.00949472       0.00569499
H       11.33319253       3.57405619      14.02103088       0.00132185       0.00953281       0.01026773
H       11.19091149       5.19552902      13.32524664       0.00337888       0.00410935      -0.00125569
H       12.21770399       3.94653371      11.48732650       0.00223255      -0.00944519       0.00868895
H       11.17054470       2.54803086      11.78659716       0.00134788      -0.00667009       0.01660131
H        9.01103339       3.08996792      13.56549449       0.00116783       0.00881660       0.01172365
H        8.88864914       4.85902062      13.79909385       0.00340676       0.00999254       0.00174621
H       10.34174970       5.30449852      10.76536345       0.00612683      -0.01189035      -0.00102576
H        9.88026834       3.72352480      10.07590320       0.00325395      -0.01505437       0.00902247
O        9.34185040       4.92272790       7.36878405      -0.00540203      -0.00610285      -0.01201675
C       10.61583402       6.86305648       6.93173505      -0.00433648      -0.00569797       0.00050902
C       11.53935759       5.78659973       7.49814867      -0.00563794      -0.00524068       0.00312704
C        9.25103775       6.35975218       7.36874183      -0.00390351      -0.00609106      -0.00087126
C       10.71579652       4.53583288       7.23321814      -0.00389332      -0.00623515       0.00132456
H       10.83130316       7.86807871       7.28965138      -0.00505628      -0.00544214       0.00000750
H       10.68142339       6.86894020       5.84376615      -0.00292149      -0.00689116       0.00060901
H       12.51698624       5.75528883       7.01829601      -0.00425872      -0.00504756       0.00610617
H       11.68936798       5.92844867       8.57164996      -0.00873852      -0.00440981       0.00331163
H        9.00267726       6.69944805       8.37924123      -0.00093763      -0.01249325       0.00216162
H        8.44334629       6.66086321       6.69644018      -0.00509658      -0.00081632       0.00330114
H       10.89147059       4.17360882       6.21033176       0.00370568      -0.01039412       0.00434816
H       10.91275422       3.71621229       7.92440876      -0.00868914      -0.00349018       0.00592208
O        2.58010309       5.19208815       3.52185899      -0.00204268       0.00189328       0.00324260
C        2.61478438       6.85203370       1.84059719       0.00208385      -0.00046459       0.00182337
C        3.35087009       7.38611317       3.06699605      -0.00239153       0.00207275       0.00313512
C        1.76539275       5.76759376       2.47357038       0.00023594       0.00078759       0.00116745
C        3.65288084       6.10285311       3.81607956      -0.00388259       0.00343883       0.00590271
H        2.03475359       7.61615955       1.32278639       0.00417106      -0.00201637      -0.00276117
H        3.32953991       6.41095555       1.13493920       0.00488843      -0.00268567       0.00619203
H        4.24745986       7.95354777       2.82475486      -0.00237708       0.00259168       0.00507373
H        2.69386004       8.04776168       3.62965495      -0.00435758       0.00268036      -0.00009340
H        0.86427631       6.19505773       2.92408534      -0.00046217       0.00175437      -0.00137362
H        1.47009610       4.96379421       1.79648240       0.00112239       0.00024655       0.00150099
H        4.59154214       5.66146966       3.45523094      -0.00241798       0.00370167       0.00966156
H        3.72397408       6.22724156       4.89960570      -0.00768055       0.00532974       0.00582558
O        5.46480534      14.12651935      10.10028615      -0.01837704       0.00716490       0.01629564
C        4.48840318      12.01506797      10.23859454      -0.00666236       0.00096130      -0.00123239
C        5.23822350      12.05954322       8.90413438      -0.00853685       0.01656640      -0.00156879
C        4.25532030      13.49363037      10.49263498      -0.01444829      -0.00301927       0.01232880
C        6.00200854      13.39191744       8.98172228      -0.01564209       0.01957136       0.00954275
H        3.56209142      11.44070447      10.20365422      -0.00346173      -0.00362036      -0.00522976
H        5.12689754      11.60261703      11.01931152      -0.00344718      -0.00243562      -0.00581190
H        5.91356673      11.21805971       8.76717692      -0.00416088       0.02162012      -0.00962082
H        4.54228759      12.06186265       8.06517673      -0.00948593       0.02021517      -0.00097707
H        3.41189428      13.85829182       9.88358941      -0.01702631      -0.00137365       0.01695111
H        4.06627726      13.74909247      11.53802542      -0.01466731      -0.01356912       0.01462457
H        7.06784363      13.25200283       9.15460492      -0.01472849       0.02393188       0.00746629
H        5.88247069      13.98093422       8.06968597      -0.01950039       0.02740115       0.01486063
O        4.73158310      12.78902633       2.57036043       0.03059831       0.01790193       0.01061258
C        5.67610503      10.84678711       1.72973026       0.00067727       0.00781047       0.00202855
C        4.72866082      11.34869820       0.63653518      -0.00038591       0.02246097       0.00945258
C        5.02322223      11.40297559       2.97319911       0.01943666       0.01555079       0.00858638
C        4.19501892      12.67572440       1.18733635       0.01011685       0.02144006       0.01995589
H        5.78519604       9.76454225       1.75436567      -0.01521914       0.00614688      -0.00119864
H        6.69695773      11.27757517       1.61903933       0.00687671      -0.00899798      -0.00507053
H        5.22400797      11.46902163      -0.32145787      -0.00405441       0.02559453       0.00843737
H        3.90036014      10.64852472       0.54327187      -0.00444552       0.02836102       0.00827368
H        4.07446121      10.89606701       3.16359864       0.01638508       0.02613553       0.01820574
H        5.65336167      11.41159261       3.86652416       0.02840325       0.00993545       0.00197761
H        4.55822232      13.54820440       0.64547761       0.00426438       0.02205694       0.01777413
H        3.10517352      12.66822855       1.25954018       0.01127791       0.02137452       0.03545363
O        4.26679085       4.88796054      10.02036329       0.00049180      -0.00210215      -0.00026953
C        6.00403781       3.56611836      10.93425254      -0.00220257      -0.00150269       0.00589100
C        6.08956143       4.97634887      11.51263293      -0.00163108      -0.00000027       0.00159317
C        5.16040748       3.80659327       9.69465137      -0.00123581      -0.00459680       0.00450376
C        4.68720408       5.49213385      11.25025379      -0.00121439      -0.00039477      -0.00051090
H        6.97412195       3.13034015      10.71365246      -0.00244990      -0.00304461       0.00811910
H        5.48433649       2.88981456      11.61869307      -0.00327468       0.00070596       0.00718385
H        6.36707359       5.00911178      12.56539588      -0.00160137       0.00310172       0.00143483
H        6.83262170       5.55887580      10.96630262      -0.00142032      -0.00198694      -0.00015721
H        5.79193490       4.11872506       8.85224403      -0.00020236      -0.00841838       0.00385100
H        4.57377259       2.93929121       9.38890305      -0.00181887      -0.00514719       0.00751936
H        4.00406590       5.18579477      12.05470422      -0.00202256       0.00041106      -0.00093403
H        4.62159056       6.57760690      11.14776897      -0.00135122      -0.00070792      -0.00227678
O        4.37838796       9.16292045       6.64870699      -0.00606525      -0.00289935      -0.01004696
C        4.81894789       7.13080451       7.73799742       0.00602541       0.00674266       0.00271274
C        3.80854353       7.90311927       8.58426153       0.00492157       0.00815758      -0.00009465
C        5.44608113       8.26070321       6.93938401      -0.00135353       0.00370920      -0.00702175
C        3.32495092       8.97106522       7.60376979      -0.00313778      -0.00203580      -0.00682068
H        5.53641987       6.56580919       8.33082815       0.01010947       0.01384544       0.00443731
H        4.29672234       6.43068966       7.07975483       0.00717953      -0.00014171       0.00941953
H        3.00162320       7.27854121       8.96343560       0.00912823       0.00711365       0.00684138
H        4.31120422       8.36521561       9.43712576       0.00506221       0.01709396      -0.00528717
H        6.22190121       8.76971301       7.52794970      -0.00206342       0.01153383      -0.01343644
H        5.89121513       7.95425300       5.99011990      -0.00312719      -0.00108722      -0.00635412
H        2.42906373       8.64529799       7.06356630      -0.00212127      -0.01137757      -0.00264499
H        3.10176734       9.92372993       8.09133578      -0.00795024       0.00024939      -0.01387998
O        9.93752356       7.36955759      12.10767755       0.01840362      -0.01000273       0.00144082
C       11.22902103       9.17106642      11.19558583       0.00710207      -0.00073856       0.00396918
C       10.28968730       8.57295634      10.14216766       0.00232089       0.00173609       0.00647217
C       11.04657958       8.23643217      12.40252760       0.00585592       0.00294757       0.00720853
C        9.22189776       7.92040735      11.00662106       0.00951435      -0.00775552       0.00790441
H       12.26632730       9.21096294      10.86725564       0.00636432      -0.00719039       0.00113691
H       10.92460880      10.18503149      11.44581222       0.01393586       0.00136289       0.00284721
H        9.88388510       9.31454913       9.45365594      -0.00454253       0.00411148       0.01343070
H       10.81238865       7.80678069       9.56575011       0.00149024       0.00755867      -0.00142933
H       11.91933557       7.60251141      12.57564758       0.01007348       0.01312524       0.01981394
H       10.84510252       8.78719406      13.32420345      -0.00903165       0.00645751       0.00180364
H        8.49151649       8.66195257      11.34445031       0.00767067      -0.01361728       0.01596561
H        8.69173385       7.09894597      10.51900040       0.01152322      -0.00808588       0.00663267
O       10.26898263       7.12121738       2.31720851       0.01086879      -0.01606676       0.00574195
C       11.18860298       8.67372903       3.86523283       0.00142890      -0.00487113       0.00062981
C       12.21338515       7.58194057       3.56675562       0.00751549       0.00027635       0.00333261
C        9.89401296       8.07849504       3.31991590       0.00495604      -0.01141909      -0.00103226
C       11.70419185       7.08273531       2.22731248       0.01084334      -0.00401977       0.00381127
H       11.11406560       8.94512695       4.91680686      -0.00180035      -0.00457912       0.00018477
H       11.48176127       9.56489707       3.31384765      -0.00248449      -0.00410402       0.00002891
H       13.21990501       7.99139784       3.50870291       0.00531110       0.00547665       0.00349139
H       12.17826821       6.77968356       4.31085590       0.01106583       0.00098515       0.00411037
H        9.32729853       7.55252519       4.10084222       0.00288674      -0.00893280      -0.00111032
H        9.23515296       8.82975133       2.87760141       0.00467357      -0.01508209      -0.00730002
H       12.05785353       7.74109030       1.42418586       0.00439067      -0.00076026       0.00387144
H       11.99009149       6.05488217       1.99162619       0.01874492      -0.00145078       0.00325421
