194
Lattice="13.588832041620241 0.0 0.0 0.0 13.588832041620241 0.0 0.0 0.0 13.588832041620241" Properties=species:S:1:pos:R:3:forces:R:3 energy=-804535.5625 stress="0.0014736944576725364 -0.0009439807909075171 -0.00037060235626995564 -0.0009439807909075171 0.00130310351960361 0.0005383376847021282 -0.00037060235626995564 0.0005383376847021282 0.0002790329745039344" pbc="T T T"
Ho       7.96077038      13.16355585      11.26163003      -0.01251835       0.00828515       0.00365962
Ho      10.04479890      13.99842214       1.59807323       0.01050639       0.00355126      -0.00328151
O       13.81045344      15.26593607       2.49989837       0.01736790       0.01800799      -0.04280967
O       13.84663693      13.00939554       2.29773979       0.02597535      -0.02608800       0.00020596
O       11.98898134      14.15828196       1.78497974      -0.00184786       0.00367395      -0.00903398
C       13.35926064      14.14492490       2.23443988      -0.00489372       0.04462902      -0.02145743
O        9.17725795      12.41013737       9.85319036      -0.02698210      -0.00588736       0.00121117
O        9.86452912      12.85579436       7.78354677      -0.00084594      -0.00504327       0.00606382
O        9.87058677      10.73105874       8.53993213      -0.02195188      -0.00507927       0.00537062
C        9.68946646      11.96123437       8.63521466      -0.01647529      -0.01280965       0.00831604
O        8.72142026      13.17015310      -0.20682866      -0.00202644       0.00469106       0.00054389
O        7.63627672      14.07803009       1.50341432       0.00452054      -0.00085174       0.00751394
O        6.72579038      14.11208218      -0.55450027      -0.00291383       0.00482571       0.01170266
C        7.62658256      13.80091086       0.27560549       0.00060689       0.00254990       0.00670845
O        3.61863150       0.88971534      10.79916587       0.01033694       0.00338757       0.00065136
C        2.57830100       1.53374227      11.55528218       0.00519514      -0.00085640      -0.00220734
C        1.26723248       1.56046544      10.78536075       0.00665092      -0.00645452      -0.00519687
C        2.42758129       0.91043769      12.93268066       0.00474528      -0.00032929      -0.00162387
H        2.93846645       2.55983660      11.67012796       0.00038648       0.00087786      -0.00188323
H        0.52564399       2.15828269      11.31858120       0.00377439      -0.00788316      -0.00744168
H        1.40533415       1.98897847       9.79266709       0.00747228      -0.00743739      -0.00539720
H        0.85506434       0.55355164      10.67794448       0.01003920      -0.00803122      -0.00464831
H        1.71913137       1.46619805      13.55090584       0.00162238      -0.00257365      -0.00335272
H        3.38795148       0.88823419      13.44741773       0.00383271       0.00351859       0.00009007
H        2.05656929      -0.11480694      12.85423161       0.00900054      -0.00202477      -0.00217880
H        3.31037355       0.01994105      10.51913590       0.01570690       0.00180473       0.00016865
O        4.20292061       2.86177308       4.88580727       0.00162478      -0.00074196      -0.00423199
C        3.16688599       1.89735307       5.23126060       0.00033015       0.00163576      -0.00236510
C        1.85233381       2.60969360       5.47403925       0.00114232       0.00333846      -0.00307357
C        3.07857066       0.82376739       4.16720941      -0.00197597      -0.00025243      -0.00105840
H        3.52695883       1.46659419       6.16886844       0.00037402       0.00242609      -0.00188154
H        1.14350385       1.92757716       5.94044766       0.00223531       0.00638826       0.00322824
H        1.99431379       3.46856499       6.13214804       0.00288896       0.00710195      -0.00846516
H        1.40948524       2.92649299       4.52818019      -0.00091258      -0.00179882      -0.00417119
H        2.36428068       0.04979510       4.45241591      -0.00125352       0.00007324       0.00226351
H        4.05645611       0.36854961       4.00403360      -0.00269458      -0.00048355      -0.00260142
H        2.70517201       1.23542299       3.22841440      -0.00467426      -0.00141619      -0.00069197
H        3.82542800       3.45251728       4.22536656       0.00430793      -0.00423933      -0.00895767
O        9.04996249       2.18123657       2.82921463       0.00799918       0.00078262       0.00068055
C        9.11399184       3.35866593       3.69137802       0.01000665       0.00183812      -0.00106132
C       10.34553743       4.13982271       3.30680867       0.00997823       0.00034970      -0.00445637
C        7.82028648       4.13124043       3.54532386       0.01000416       0.00244740       0.00051247
H        9.21017569       2.98994158       4.71589940       0.01155179       0.00298209      -0.00060737
H       10.49825206       4.95657734       4.01266979       0.01301079       0.00028005      -0.00514743
H       11.23552765       3.50865255       3.31342399       0.00911930      -0.00077496      -0.00700315
H       10.23447804       4.57206992       2.31066836       0.00774240       0.00015619      -0.00427239
H        7.82790168       5.00121059       4.20226336       0.01201602       0.00354275      -0.00128393
H        6.95628334       3.51993612       3.81888117       0.01027486       0.00334835       0.00359477
H        7.69166385       4.48311320       2.51921856       0.00786090       0.00030648       0.00007577
H        8.12344706       1.94313268       2.66876813       0.00708687      -0.00086637       0.00461934
O       11.20794102       1.37726688       8.81084292      -0.00714564      -0.00408532      -0.00463557
C       12.02655929       1.65206662       7.67509148      -0.00055185      -0.00220072       0.00047171
C       12.76868414       0.39680866       7.22952244       0.00258175      -0.00155139       0.00332916
C       11.17852081       2.23175646       6.54899104       0.00663531      -0.00114614      -0.00441384
H       12.74708361       2.41104065       8.00286103      -0.00271645      -0.00229239       0.00529516
H       13.30386854       0.56534438       6.29452241       0.00853901       0.00054641       0.00691515
H       13.47988797       0.07791063       7.99250180      -0.00187993      -0.00235765       0.00708421
H       12.05031126      -0.40709048       7.06926082       0.00417286      -0.00170636      -0.00246143
H       11.79304377       2.47530511       5.67922213       0.01327169       0.00407270       0.00164908
H       10.66993445       3.13716179       6.88756662       0.00103619      -0.00373586      -0.00586027
H       10.42622932       1.49621383       6.25505271       0.01139368      -0.00210777      -0.01396944
H       10.62079835       0.63211552       8.52656442      -0.00233622      -0.00706854      -0.00507180
O        8.54687444       1.85083046      11.35249236      -0.00443214       0.00464588       0.00034010
C        9.77968041       2.64279820      11.49996080      -0.00068688       0.00115429      -0.00383529
C        9.44328652       4.10496467      11.32831231       0.00114290       0.00179791      -0.00211807
C       10.42493935       2.33975143      12.84764637       0.00308053      -0.00143328      -0.00740191
H       10.41349122       2.29039021      10.68472534      -0.00530872      -0.00050437      -0.00663331
H       10.35011742       4.71040231      11.33316402       0.00194591       0.00062224      -0.00362699
H        8.93857296       4.27212509      10.37711513      -0.00091894       0.00311138      -0.00101477
H        8.79651476       4.45775932      12.13850300       0.00325210       0.00182047      -0.00048110
H       10.76885513       1.29856257      12.88355840       0.00018174      -0.00273870      -0.00846996
H        9.72174999       2.56610365      13.66849194       0.00697219       0.00022973      -0.00390883
H       11.30377319       2.96555257      13.00577552       0.00593999      -0.00439034      -0.00993313
H        7.88545556       2.20447657      11.96518836      -0.00134623       0.00875559       0.00221545
O       11.60296653       8.72640080       7.73875547      -0.01184733       0.00562185       0.01248181
C       11.20430833       7.90721881       6.64375793      -0.01046284       0.01132607       0.00758362
C       12.14751188       6.71724659       6.60294277      -0.00484601       0.01623976      -0.00244728
C        9.75320476       7.47203358       6.78898807      -0.00877631       0.00460318       0.00742817
H       11.31622333       8.47850596       5.70971428      -0.01500611       0.01883984       0.01141560
H       11.91000188       6.06577072       5.76032431      -0.00215256       0.01972593      -0.00609505
H       13.18196658       7.04500952       6.50143350      -0.00695151       0.02249406      -0.00191961
H       12.06027996       6.13605400       7.52362107      -0.00029167       0.00990380      -0.00589621
H        9.43979934       6.87226799       5.93091452      -0.00843476       0.00826515       0.00466437
H        9.10051568       8.34239006       6.86457029      -0.01171023       0.00167172       0.01410029
H        9.63579228       6.87482327       7.69527410      -0.00483369      -0.00138398       0.00422639
H       10.98773197       9.48647473       7.85094851      -0.01343585       0.00365866       0.01649912
O       -0.26834735       6.48301483       2.12923353      -0.00409502      -0.00089215      -0.00339127
C        0.92448595       6.55319823       2.92338116      -0.00577843      -0.00401659      -0.00076271
C        1.83429764       5.36678484       2.64848303      -0.00623190      -0.00448316      -0.00142474
C        1.63519009       7.87991771       2.71509479      -0.00407469      -0.00391257       0.00357430
H        0.56116092       6.49507893       3.95258556      -0.00800131      -0.00567009      -0.00156212
H        2.66966014       5.37682530       3.35319539      -0.00865011      -0.00740109       0.00152718
H        1.29111092       4.42596665       2.74117149      -0.00745696      -0.00434479      -0.00639087
H        2.25905551       5.42713799       1.64263273      -0.00281297      -0.00120263       0.00007087
H        2.49458815       7.96917913       3.38224861      -0.00519073      -0.00613382       0.00518391
H        0.96178013       8.71707467       2.90325277      -0.00385831      -0.00364885       0.00422011
H        2.00422177       7.96257318       1.68881176      -0.00250416      -0.00189683       0.00436084
H        0.00486001       6.46149480       1.20679496      -0.00202231      -0.00619034      -0.00262926
O        4.50490068      11.81677860       9.50544914      -0.00425589      -0.00017363       0.00441515
C        5.81640468      11.72221011      10.05641208      -0.00064960      -0.01321669      -0.00601372
C        5.71526282      11.53073649      11.57095456       0.00919071      -0.00128144      -0.00357795
C        6.64707645      10.63313118       9.40717221      -0.01876670      -0.02650410      -0.00533339
H        6.22150500      12.72638560       9.78049997       0.01135752      -0.02168009      -0.01690280
H        6.68369845      11.34842320      12.07759761       0.01108290      -0.01516818      -0.01239517
H        5.18519953      12.34942568      12.05803307       0.02524558       0.00946251      -0.00349398
H        5.16017527      10.61042323      11.76861522      -0.00473733       0.00976437       0.00818877
H        7.64738201      10.56454020       9.83707255      -0.01737660      -0.03567602      -0.01080956
H        6.77884618      10.81947185       8.34469473      -0.02291675      -0.03165945      -0.00664639
H        6.15028391       9.67006109       9.54628625      -0.03059988      -0.01955957      -0.00031440
H        4.08722842      10.95393879       9.61190032      -0.01266608       0.00459415       0.01141107
O        3.23453091      10.11140262       0.11159851      -0.00423455       0.00085486       0.00109714
C        3.93024776      10.40735647       1.34278955      -0.00382006       0.00036475       0.00085427
C        5.25119989       9.67141067       1.28281478      -0.00384891       0.00004125       0.00050577
C        4.08243544      11.90354141       1.53133350      -0.00326925       0.00047624       0.00081033
H        3.35038698      10.01302828       2.18340401      -0.00370142       0.00038686       0.00118142
H        5.79484642       9.82708884       2.21369216      -0.00359925      -0.00021840       0.00039534
H        5.09409411       8.60119117       1.13837874      -0.00409617       0.00004740       0.00048064
H        5.86826021      10.04734625       0.46523141      -0.00402138       0.00004201       0.00033730
H        4.63498404      12.09725554       2.44968599      -0.00211170       0.00042910       0.00012639
H        3.10688553      12.38932028       1.61396381      -0.00308824       0.00084236       0.00197349
H        4.63192275      12.34794033       0.70009735      -0.00441190       0.00022333      -0.00007795
H        2.41850049      10.62182083       0.12428384      -0.00367590       0.00183225       0.00092158
O        4.71411396       5.94048336      13.72941996       0.00486940       0.00039202       0.00284320
C        5.77569710       5.55681559      12.85325500       0.00366285       0.00124510       0.00083971
C        5.36219881       4.38880161      11.97041158       0.00269121       0.00147474       0.00088766
C        6.27077093       6.74392553      12.04545975       0.00204344       0.00182480       0.00060752
H        6.57159324       5.22540906      13.52872178       0.00474331       0.00125149      -0.00031888
H        6.19140736       4.07713833      11.32932873       0.00188243       0.00218116      -0.00070046
H        5.04150773       3.53757756      12.57160943       0.00365933       0.00090806       0.00080751
H        4.53687071       4.67686416      11.31410117       0.00157249       0.00159377       0.00213823
H        7.09866734       6.45699701      11.39500449       0.00068288       0.00227651      -0.00137394
H        6.60330655       7.54844769      12.70112331       0.00349028       0.00148059       0.00045364
H        5.46677454       7.12591253      11.40944355       0.00068575       0.00229956       0.00249294
H        4.07550243       6.44120083      13.21037895       0.00228770      -0.00187403       0.00313613
O        4.81646941      10.57951113       4.46016929      -0.00637507      -0.00337481      -0.00185204
C        5.75658240       9.84164801       5.24569271      -0.00374839      -0.00134099      -0.00258338
C        7.00513935      10.66917012       5.50361737      -0.00781453       0.00383240       0.00084023
C        5.10000177       9.32963662       6.51514275      -0.00343859      -0.00861739      -0.00536191
H        6.01819886       8.98753401       4.61421533       0.00095968       0.00180954      -0.00499916
H        7.74719815      10.11868645       6.08488776      -0.00519827       0.00578919      -0.00039184
H        7.45576838      10.96843353       4.55695932      -0.00871210       0.00911116       0.00200875
H        6.76239046      11.57746170       6.06223123      -0.01253197       0.00107214       0.00353076
H        5.79167216       8.71441200       7.09355235      -0.00105259      -0.00579856      -0.00520849
H        4.22147716       8.73055672       6.27680598       0.00060992      -0.01327319      -0.00827686
H        4.79334178      10.17083903       7.14346598      -0.00984970      -0.01201542      -0.00369123
H        4.52793757      11.33695260       4.98072604      -0.01009675      -0.00571489       0.00043985
O       11.66513781       7.10812651      10.01005257       0.00279345       0.00073284       0.00686342
C       11.36975434       7.95935102      11.11239111       0.00334308      -0.00284386       0.00966340
C       12.37404384       9.10136039      11.18630167       0.00029904       0.00023741       0.01017031
C        9.93795497       8.47623608      11.03651926       0.00152314      -0.00703597       0.01541673
H       11.47642051       7.32622599      12.00160816       0.00791676      -0.00461525       0.00787228
H       12.17918426       9.74593247      12.04538895       0.00059548      -0.00303200       0.01277956
H       13.38997713       8.71065346      11.26097875       0.00146519       0.00321604       0.00603151
H       12.30199230       9.71107852      10.28321559      -0.00410306       0.00282289       0.01215404
H        9.67251878       9.01690544      11.94902749       0.00412370      -0.00632937       0.01587161
H        9.24585710       7.64140302      10.91323700       0.00320513      -0.00922091       0.02013347
H        9.82814608       9.15814341      10.18949691      -0.00488064      -0.00880121       0.01475459
H       11.66033762       7.67808585       9.21293149      -0.00318225       0.00215236       0.00759162
O        9.18832591      10.26249186       1.66385208       0.00767323      -0.00210541      -0.00008020
C       10.36042242      11.01271410       1.97673907       0.00414145       0.00277296       0.00003608
C       10.12999858      11.85970261       3.23201640      -0.00123394       0.00488540      -0.00211000
C       11.60683747      10.16130389       2.10087695       0.00746191       0.00745746       0.00493707
H       10.49702791      11.65749028       1.08656485       0.00329477       0.00072998      -0.00105619
H       10.98407383      12.52916349       3.41560850      -0.00353429       0.00787587      -0.00153726
H        9.16653153      12.40078482       3.17858708      -0.00263274       0.00236589      -0.00661897
H       10.04565237      11.22515535       4.11769690      -0.00159965       0.00709859      -0.00091499
H       12.47784863      10.80510413       2.24803619       0.00444637       0.01035458       0.00537606
H       11.74586339       9.56394805       1.19982514       0.01145866       0.00537972       0.00718346
H       11.51803232       9.47968850       2.95121119       0.00771748       0.00913583       0.00682665
H        9.12934021       9.53670210       2.29473433       0.00955588      -0.00210007       0.00137922
O        4.75339154       3.67810547       7.47131995      -0.00054967       0.00263408      -0.00330400
C        5.97660157       3.12385891       7.96061686      -0.00098830       0.00391823      -0.00054285
C        6.20925208       1.73012959       7.39678144      -0.00125618       0.00170279       0.00463569
C        7.14477354       4.05321354       7.66739306      -0.00039524       0.00252062      -0.00294366
H        5.84131029       3.04782687       9.04443557      -0.00198478       0.00776355      -0.00030661
H        7.16319779       1.32343064       7.74362298      -0.00125469       0.00284441       0.00611205
H        5.40392247       1.05587367       7.69158209      -0.00140274       0.00284266       0.00740656
H        6.24452989       1.76764720       6.30478083      -0.00126761      -0.00245418       0.00447108
H        8.07245582       3.65609259       8.08579945      -0.00064577       0.00340747      -0.00113643
H        6.96239462       5.04462095       8.08428515      -0.00008889       0.00401928      -0.00619936
H        7.27999000       4.15647276       6.58814707       0.00026236      -0.00102497      -0.00325611
H        4.67032997       3.48398904       6.51556494       0.00142163       0.00214160      -0.00341307
O        2.91998352       5.83013844       7.22806821       0.00432622       0.00559542      -0.00156498
C        2.21856949       6.31416332       8.36644698       0.00321984       0.00181921      -0.00052953
C        1.55834632       5.18651236       9.14476656       0.00261253      -0.00090808      -0.00489143
C        3.13572756       7.14881154       9.25235655       0.00239003      -0.00102440       0.00323898
H        1.43880074       6.96662856       7.96531317       0.00349551       0.00308201       0.00078270
H        0.93858296       5.58439652       9.95054893       0.00134590      -0.00366805      -0.00439070
H        0.92286693       4.59230872       8.48775188       0.00378579       0.00080556      -0.00762361
H        2.31663967       4.52591832       9.57431428       0.00237966      -0.00203155      -0.00586216
H        2.58389240       7.58194740      10.08996250       0.00125840      -0.00346052       0.00388345
H        3.58943269       7.95243272       8.67103313       0.00342689       0.00072242       0.00633413
H        3.93751775       6.52270578       9.65191456       0.00173712      -0.00245959       0.00250960
H        3.57500518       5.17075909       7.51647184       0.00354615       0.00383119      -0.00315548
