196
Lattice="13.290180598815054 0.0 0.0 0.0 13.290180598815054 0.0 0.0 0.0 13.290180598815054" Properties=species:S:1:pos:R:3:forces:R:3 energy=-140601.0625 stress="-0.0007480444037355483 0.0002897404338000342 0.00019542301743058488 0.0002897404338000342 0.00014164598542265594 -1.2790992514055688e-05 0.00019542301743058488 -1.2790992514055688e-05 -0.0006024898029863834" pbc="T T T"
K       13.53922840      14.67245191      11.83244612      -0.00140743      -0.00697358      -0.00392571
K        8.65306625      13.76910678      12.72010856       0.00724570       0.01037139      -0.00371983
S       11.44570745       0.97006833       0.50381496      -0.02599127       0.01925169       0.00614430
O       11.29419868       2.43821760       0.38968738       0.01143998      -0.00886369       0.00846749
O       10.42465684       0.40449743       1.43318419       0.00790119      -0.00083137       0.00289273
O       11.19124570       0.38122732      -0.86580479       0.00732493      -0.00409657      -0.00055599
O       12.81330082       0.60872019       0.92261516       0.02410483      -0.00776595       0.01431245
O        2.48789990       8.39739924       2.76559534      -0.00662026       0.00317734      -0.00623792
C        3.64664359       7.59335393       2.95282741      -0.00264686       0.00873116      -0.00320143
C        4.77174699       7.97178010       2.01428745      -0.00483286       0.01248497      -0.00410676
H        3.98889745       7.65157613       3.99605276      -0.00373575       0.01356526      -0.00329721
H        3.32666342       6.56151749       2.78243848       0.00265159       0.00671592      -0.00046004
H        5.61238346       7.28394530       2.12041584      -0.00159998       0.01639543      -0.00453923
H        4.43560487       7.94353362       0.97677647      -0.00596571       0.01020692      -0.00366065
H        5.14052260       8.97595649       2.23394950      -0.00957968       0.01439388      -0.00502381
H        2.74556374       9.33728561       2.66843370      -0.01022962       0.00372984      -0.00367013
O        7.14778228      11.84542042      11.41459681      -0.00895894       0.00648832       0.00410454
C        5.81110385      11.50039468      10.99774232      -0.00725567       0.00572824       0.00012171
C        5.33403763      10.20655880      11.61995025      -0.01093142       0.00854850       0.00319880
H        5.18645398      12.33504803      11.31767362      -0.00814782       0.00747123      -0.00540429
H        5.76508585      11.45984735       9.90692535      -0.00323095       0.00171508       0.00024128
H        4.32077175       9.98305573      11.28050012      -0.00944716       0.00760340      -0.00029923
H        5.97246084       9.37141781      11.32624767      -0.01023883       0.00696552       0.00939197
H        5.33049728      10.27092440      12.70863163      -0.01531208       0.01277312       0.00289050
H        7.71861136      11.11159173      11.15610328      -0.00900982       0.00406036       0.00861377
O        2.96607019      11.09288030       2.46857062      -0.00189346       0.00337565       0.01014888
C        3.87551771      11.95988827       1.80587479      -0.00707042       0.00104272       0.00047505
C        3.29596957      12.53254328       0.52494123      -0.01896355       0.00210950       0.00587940
H        4.15568876      12.77907072       2.47683388       0.00257532       0.00021005      -0.00302559
H        4.78466085      11.38861748       1.60007255      -0.01077026      -0.00106642      -0.00891845
H        4.01270604      13.21952985       0.06447577      -0.02309108       0.00195570      -0.00023541
H        3.07236537      11.73591126      -0.18684357      -0.02605039       0.00318539       0.00742110
H        2.37505118      13.07740010       0.74377365      -0.01698312       0.00253210       0.01446633
H        2.37319886      11.65679330       3.01450550       0.00552797       0.00526248       0.01687222
O        3.55380085      10.20658441       7.81129117       0.00072539      -0.00370010       0.00587875
C        4.53164416       9.34991199       7.21033098       0.00237104      -0.00151873       0.00507323
C        5.35820741       8.60684369       8.23472908       0.00070304      -0.00336036       0.00506270
H        4.04422597       8.64142141       6.52889513       0.00373730      -0.00023121       0.00270760
H        5.16875276       9.99466779       6.60847583       0.00301585      -0.00003812       0.00773150
H        6.08071682       7.94891082       7.75225360       0.00414169       0.00038160       0.00498843
H        5.91371512       9.31248755       8.85311393      -0.00373584      -0.00409548       0.00986546
H        4.71314235       8.00550944       8.88174011       0.00016306      -0.00756625       0.00043711
H        3.01975390       9.66254488       8.39708519      -0.00088374      -0.00567649       0.00166284
O       10.92872082       8.87400975      10.41538586      -0.01107919       0.00205132      -0.00916904
C       10.02923070       8.01560470      11.09347209      -0.00745928       0.00424140      -0.00092444
C        8.61043461       8.54565515      11.08867567      -0.00903523      -0.00032219      -0.00189843
H       10.04697873       7.00902543      10.66361945      -0.00565115       0.00119045       0.00628796
H       10.38616306       7.92543149      12.12160855      -0.00486670       0.01274345      -0.00121075
H        7.94406570       7.89349783      11.65737194      -0.00562705       0.00136006       0.00372717
H        8.60711063       9.52589252      11.57115820      -0.01128332       0.00291406      -0.00830397
H        8.22846172       8.63399217      10.06866664      -0.01119989      -0.00780116      -0.00153279
H       10.98658296       8.59398383       9.48820201      -0.01027653      -0.00330232      -0.00661192
O       10.22781134      10.92427304       1.88857362      -0.02609533       0.02380575       0.00119084
C        9.08024489      10.98357815       1.07007169      -0.01617658       0.00502789      -0.01068494
C        8.30343895       9.69277810       1.15682680      -0.00325990      -0.00303310      -0.00463985
H        8.42811121      11.80674388       1.39777332      -0.02936292       0.00162554      -0.02951008
H        9.37785844      11.17121785       0.02484718      -0.00668164      -0.00357445      -0.00946224
H        7.39274642       9.76294556       0.56042812      -0.00242288      -0.01855560      -0.00786153
H        8.88869379       8.84961456       0.79186951       0.00756027       0.00106569       0.00421878
H        8.02160431       9.50142387       2.18962378      -0.00590972       0.00131168      -0.00471830
H       10.61874561      11.81606026       1.83382814      -0.02470891       0.02503960      -0.01491948
O       12.58514093      13.34481844       5.39019003       0.00850782      -0.00354906      -0.02204388
C       11.52546475      12.52916092       4.85285164       0.00543140      -0.00253198      -0.01845869
C       11.92414681      11.07078665       4.80007566       0.00038472      -0.00376409      -0.01234413
H       10.61584607      12.66740930       5.44795030       0.00650012       0.00340922      -0.01870227
H       11.33962658      12.92782249       3.85626805       0.00657545      -0.00611131      -0.02016968
H       11.14192295      10.48364524       4.31730628      -0.00397535      -0.00284667      -0.00631675
H       12.84129653      10.94542370       4.22211192      -0.00261138      -0.01040508      -0.01577623
H       12.09348626      10.67597694       5.80665951       0.00275290       0.00028923      -0.01122260
H       12.74593933      13.05248187       6.29284198       0.00701936       0.00094138      -0.02025807
O        6.60366578       0.14946423       8.41452993       0.00885190       0.00990037      -0.00904751
C        7.02122523       1.17706297       9.31767165       0.00219902       0.00408264       0.00033282
C        8.53190873       1.26571517       9.39856767       0.00174296       0.00898019       0.00562091
H        6.59317872       2.13368635       9.00856176      -0.00004582       0.00496155       0.00617467
H        6.58987309       0.90502671      10.28378399       0.00057830      -0.00462079      -0.00309592
H        8.85618575       2.06222129      10.07158747      -0.00315830       0.00478093       0.01272786
H        8.95441900       0.32242176       9.74454814       0.00412726       0.00738001      -0.00134730
H        8.95273599       1.47437797       8.41255005       0.00371678       0.01872987       0.00862095
H        6.72228688       0.48932775       7.52031138       0.01482676       0.01568154      -0.00510982
O        6.60720457       6.02485205      12.97084550       0.00380689      -0.00364295       0.00009966
C        5.35772757       5.36396528      12.81107576       0.00282472      -0.00288537       0.00579059
C        5.50694831       3.88566439      12.51159802       0.00035831      -0.00356072       0.00788683
H        4.71999772       5.51672527      13.69016322       0.00661159      -0.00100954       0.00838080
H        4.87791012       5.87475331      11.97295578      -0.00054814      -0.00395958       0.00725463
H        4.52973129       3.41439571      12.38824251      -0.00069901      -0.00242774       0.01185299
H        6.08727963       3.73567443      11.60076464      -0.00293349      -0.00565406       0.00603241
H        6.01165516       3.38078786      13.33790034       0.00240473      -0.00289506       0.00687505
H        7.06171254       5.63147784      13.72193262       0.00594893      -0.00184265      -0.00037551
O        7.88632203       5.77251231       7.89950450       0.00691128      -0.01652333      -0.01474264
C        8.89981348       5.22659211       8.73271754       0.00259212      -0.00838600      -0.00414175
C        8.37451576       4.81266902      10.09293470      -0.00352654       0.00411192      -0.00284582
H        9.38323012       4.37132176       8.23957786       0.00541717      -0.01252890       0.00600661
H        9.66044315       6.00396395       8.83578886       0.00180236      -0.00694123      -0.00740683
H        9.17533732       4.42166729      10.72849138      -0.00735098       0.00557500       0.00255322
H        7.91086398       5.65325778      10.60879430      -0.00145562       0.00958085      -0.00988496
H        7.62337514       4.02960512       9.97656626      -0.00681491       0.00658061       0.00104673
H        7.34005630       5.03450865       7.59165794       0.00849407      -0.01899202      -0.01150419
O        2.87002290       6.14731485      10.02207909      -0.00170559      -0.01583427      -0.00041074
C        3.30309138       4.86319800       9.57667448       0.01059580      -0.01003943      -0.00660831
C        4.63251113       4.89213380       8.85895913       0.01231283       0.00553794      -0.00239369
H        3.35780278       4.16782737      10.42807893       0.01376523      -0.01383102      -0.00986364
H        2.51116135       4.50678822       8.91542917       0.01528409      -0.01307820      -0.01010996
H        4.93377289       3.87821370       8.58833203       0.02175798       0.00974353      -0.00736433
H        4.57468945       5.49406739       7.95127997       0.01044090       0.00990641       0.00051145
H        5.41791280       5.31440510       9.48989083       0.00716122       0.00821055       0.00186814
H        3.55659475       6.51047466      10.59070355      -0.00257427      -0.00854287      -0.00558917
O        8.60236294      11.72105063       7.33673631       0.01000708       0.00747532      -0.00121689
C        9.64812384      10.88990349       7.85930625       0.00611749       0.00394319      -0.00048563
C       10.68697374      11.65102482       8.65404502       0.01086697       0.00161639      -0.00458992
H        9.22570157      10.07451689       8.45423333       0.00400731       0.00767660       0.00307786
H       10.10243187      10.43308248       6.98111676       0.00215231      -0.00026822      -0.00050282
H       11.56147300      11.01983261       8.81544938       0.00658301      -0.00198479       0.00315807
H       10.98480156      12.55491100       8.11775789       0.01762014      -0.00446266      -0.01058392
H       10.32526351      11.93494959       9.64318311       0.01069349       0.01117025      -0.00756045
H        8.04708576      12.08080171       8.04569105       0.00945817       0.00933691      -0.00161967
O        7.54841948       9.46073428       6.15587221       0.00121336       0.00757879      -0.00103915
C        7.80793442       9.26920000       4.77805513       0.00221046       0.00249177      -0.00055510
C        7.57585862       7.80765766       4.46616688      -0.00524226       0.00316817       0.00260860
H        7.14771950       9.90108697       4.16745068       0.00707299       0.00449577      -0.00345024
H        8.83782499       9.55598741       4.52483776       0.00428098      -0.00412710       0.00081112
H        7.80331556       7.58870179       3.42188252      -0.00443172      -0.00033467       0.00354740
H        8.19989291       7.17970618       5.10343671      -0.00967491       0.00119184       0.00480968
H        6.53363847       7.54633674       4.65704315      -0.00683610       0.00879691       0.00188082
H        7.79342169      10.36766790       6.40999774       0.00337181       0.00719620      -0.00341778
O        2.20554801       3.37925345       3.36161596       0.02143592       0.03000697      -0.00024134
C        2.77639331       3.14479587       2.08326114       0.01236232       0.00222364       0.00179988
C        1.76978464       3.25184660       0.95430748       0.00837833      -0.00665864       0.00469986
H        3.60958712       3.84415506       1.90782569       0.01964530      -0.01159316      -0.01497816
H        3.19684936       2.13668137       2.13121039       0.00109223      -0.00149262       0.01775406
H        2.26700491       3.03827746       0.00060653       0.00351580      -0.02023980       0.00537842
H        0.94560503       2.54995433       1.10476432       0.00617802      -0.00029546       0.01518968
H        1.36183508       4.26339375       0.89734466       0.01177825      -0.00546345      -0.00502621
H        1.62607464       4.14591514       3.29540888       0.02630393       0.03415498      -0.01042436
O        1.81024290      12.80323462       4.19273871       0.00740677       0.00090989       0.00643638
C        2.36855498      12.49991506       5.47302750       0.00561422       0.00635120       0.00905220
C        3.86792647      12.68340034       5.42056587       0.00648677      -0.00275966       0.00688494
H        1.93803353      13.17079970       6.22281319       0.00920042       0.01510817       0.00319371
H        2.12927653      11.47086610       5.76524657      -0.00052552       0.01012164       0.01620415
H        4.30097066      12.48776718       6.40209735       0.00721608      -0.00310708       0.00660524
H        4.31112920      11.98592554       4.70635230       0.00090880      -0.00685778       0.00750314
H        4.09849265      13.70847446       5.11820899       0.01200288      -0.00490549       0.00444428
H        0.88430279      13.06617726       4.34048257       0.00450361      -0.00874062       0.00304709
O       11.41476873       8.00819421       7.79627145      -0.00114083       0.00083514      -0.00532260
C       10.67410902       7.55253302       6.65187368      -0.00348113       0.00235194      -0.00499835
C       11.17605239       6.21428934       6.15454993      -0.00403264       0.00329566      -0.00789925
H        9.63794760       7.49978958       6.98403768      -0.00267604       0.00160879      -0.00392191
H       10.73223725       8.30255489       5.85504644      -0.00427829       0.00364864      -0.00389659
H       10.52349871       5.83773860       5.36426569      -0.00564334       0.00551855      -0.00753480
H       12.18167339       6.30102821       5.73760351      -0.00456583       0.00332763      -0.00896742
H       11.18882693       5.48445754       6.96526421      -0.00371627       0.00168986      -0.00932385
H       12.35382293       7.96879564       7.58720406      -0.00287333      -0.00077267      -0.00492236
O       13.70577686       3.72373105      10.57616335       0.01078862       0.00847012       0.01964452
C       12.53739644       4.57548021      10.64113127       0.00610457       0.00318298       0.01314935
C       12.93597321       6.00872069      10.40938102      -0.00539219       0.00586706       0.01016767
H       11.85457574       4.21785515       9.86590345       0.01041821      -0.00226462       0.01152918
H       12.05443715       4.43814167      11.61385318       0.00431582       0.00351874       0.01158732
H       12.08875313       6.68502325      10.46638338      -0.01583080      -0.00633506      -0.00254635
H       13.65836620       6.32613290      11.16315740      -0.01928468       0.01954790       0.01724668
H       13.40092336       6.12072239       9.42956575       0.00340872       0.00830003       0.01499200
H       14.45540600       4.30144944      10.75081204       0.00922802       0.01339650       0.00942400
O        6.93327682       3.28169671       6.73140337      -0.00138384      -0.01966734      -0.01060355
C        5.87589079       3.22827233       5.75487571      -0.00481433      -0.00894642      -0.00838006
C        5.97764346       4.33946152       4.73764951      -0.00729960       0.00072485       0.00187069
H        5.88350715       2.24652821       5.26769553      -0.00623816      -0.00400066      -0.01783334
H        4.94965580       3.30404688       6.32261469      -0.00299454      -0.01446368      -0.00522539
H        5.14507021       4.27919148       4.03359139      -0.01255725       0.01001240       0.00728282
H        5.95040113       5.31300924       5.22771138      -0.00106521      -0.00391330       0.01124990
H        6.91139775       4.26780004       4.17300955      -0.01171884       0.00318788      -0.00527649
H        7.76799666       3.30031365       6.24900958      -0.00348395      -0.02124508      -0.01137552
O       12.92847988       5.81751152       1.28816271      -0.01863650      -0.04201835      -0.00778860
C       12.25447859       6.69708103       2.19162659       0.00545895      -0.02922636      -0.00401968
C       10.89458699       7.11512173       1.67546486       0.00699490      -0.00728339       0.00978124
H       12.17074362       6.23466460       3.18013466       0.00859866      -0.02352282      -0.00122732
H       12.90214535       7.56692688       2.30025187       0.02129224      -0.03962982      -0.01377645
H       10.36238664       7.71268654       2.41804024       0.02893020       0.01248062       0.00906175
H       11.00141902       7.72170122       0.77767371       0.00714818      -0.02052829       0.00095908
H       10.28804127       6.23679362       1.43535566      -0.01425974       0.00337853       0.02801044
H       12.39443377       5.01913237       1.20026512      -0.02418502      -0.04132269       0.00873597
O        1.00303677       7.30897505       4.75807900       0.00167426       0.00114810      -0.00185752
C        1.20097565       8.12242472       5.89548363       0.00081970       0.00082670      -0.00137335
C        1.54564894       7.24747748       7.08277560       0.00088796       0.00036705      -0.00186795
H        1.99747295       8.85493292       5.72119409       0.00057372       0.00133696      -0.00094215
H        0.28994679       8.70900002       6.10385397       0.00051367       0.00037754      -0.00154912
H        1.58546495       7.81396078       8.01552799       0.00324603       0.00018415      -0.00188035
H        0.80046161       6.45635868       7.19609019      -0.00029236       0.00165163      -0.00050589
H        2.51245958       6.76360218       6.93760144      -0.00024815      -0.00132088      -0.00370271
H        1.38630612       7.77152226       3.98614942      -0.00007489       0.00243480      -0.00173718
O        6.96630741      -0.36088853       3.39223739      -0.00835955      -0.00460254       0.01254860
C        7.64210435       0.86316494       3.12781817      -0.00094494      -0.00908214       0.00885102
C        6.85955379       1.75614714       2.17999957       0.00521386      -0.00854713       0.00418031
H        7.85070086       1.40178835       4.06337088       0.00019107      -0.00677711       0.00728685
H        8.60663433       0.59542520       2.69609028      -0.00206932      -0.01598667       0.01165101
H        7.46299549       2.61733671       1.87917495       0.00894650      -0.01142314       0.00376002
H        6.56393375       1.19368375       1.28869437       0.00608714      -0.01026940       0.00488361
H        5.93856216       2.12880380       2.63774573       0.00511694      -0.00406519       0.00026447
H        6.12581430      -0.16252408       3.81701729      -0.00520599       0.00040507       0.01449562
