199
Lattice="14.001820760891167 0.0 0.0 0.0 14.001820760891167 0.0 0.0 0.0 14.001820760891167" Properties=species:S:1:pos:R:3:forces:R:3 energy=-942432.125 stress="0.00019511289428919554 0.0005112731887493283 -0.00010551512968959287 0.0005112731887493283 -0.000828447169624269 0.00015484249161090702 -0.00010551512968959287 0.00015484249161090702 -0.0008511891937814653" pbc="T T T"
La       7.11192202      14.25413968       0.76081300       0.00038627       0.00164883       0.00217777
La       3.17160455      12.54143120      10.16711402       0.00430039      -0.00257325       0.01104757
O        5.77740625       9.85636139       2.43849103       0.00794816       0.00381231       0.00457656
O        6.70011470      12.09499583       3.72658922       0.00994721       0.00412175      -0.00123834
O        5.57977717       9.92222182       5.04583392       0.00294383       0.01129448       0.00270534
O        4.00178789      11.44727104       3.58867205       0.00999832       0.00804961      -0.00311297
Cr       5.46485203      10.79382492       3.70707652       0.00491744       0.00634742       0.00435010
Cr       6.87404059      13.71681858       4.35761068       0.00087018       0.01198208       0.02787459
O        5.57501101      14.16317860       5.15429799       0.02333939       0.00105208      -0.01516420
O        8.15237128      13.79174047       5.29227452      -0.00196326       0.00672833      -0.00951463
O        7.09911764      14.72286019       3.03021815       0.00897141       0.00813264      -0.00418863
O       15.16944383      12.10124819       8.83014404       0.00435987       0.03709173       0.03160828
O       13.41779151      11.04128874      10.60659128       0.00424804      -0.01131092       0.01512330
O       14.86390003       9.45432664       8.86838812       0.01695377       0.04311180       0.00426435
O       12.97854142      10.93295846       7.86772529       0.00177407       0.02042541       0.01405650
Cr      14.10638006      10.85564862       8.98623989       0.00606436       0.02461571       0.01101148
Cr      13.84560190      12.10500800      11.95551049      -0.01008461       0.00459456       0.01486820
O       12.74035708      13.22875676      12.09591802       0.02433813       0.01453292      -0.01167402
O       13.87686972      11.23544852      13.29047965      -0.02442699       0.01812702       0.02511203
O       15.33601691      12.80238570      11.69996196       0.01231050      -0.02555674       0.02113144
O        5.61218843      11.86738224      10.32372161      -0.00319986       0.00547028       0.00668025
O        7.62297364      13.84636553      10.33124449      -0.01075792       0.01196641       0.00054916
O        4.86957013      14.21184038       9.68166890       0.00058809       0.00890595       0.00953256
O        6.57865068      12.91676819       8.09499752      -0.01204756       0.00572103      -0.00005627
Cr       6.20194334      13.21245367       9.59957363      -0.00289196       0.00486049      -0.00647342
Cr       8.44173583      13.53094384      11.99238568      -0.00433192       0.00497779      -0.00238383
O        8.93184990      14.53615702      13.21338060       0.00184703       0.00146204       0.00051367
O        6.92669521      13.23967556      12.62572999      -0.00323159       0.00525439       0.00586247
O        9.19124642      12.13870695      12.05735066      -0.00851831       0.00609714      -0.00696024
S       11.82862420       4.48175365       6.44326744      -0.01169825       0.00930476      -0.00425088
O       12.62899857       3.64017682       7.38709568      -0.00290620       0.01279128      -0.00736618
C       10.51057564       5.23902178       7.38942639      -0.00983423       0.00368914       0.00203884
C       10.82069453       3.36991123       5.45278626      -0.01116839       0.00378972       0.00201613
H       11.00587707       5.82941763       8.15987312      -0.00894068       0.00632918      -0.00094759
H        9.86875780       4.48488893       7.84834219      -0.00437874       0.00107953       0.00551991
H        9.93480439       5.86583100       6.70910832      -0.01630555       0.00007170       0.00408569
H       10.01046925       3.93796240       4.99534004      -0.01459436       0.00003266       0.00303922
H       10.42419154       2.58980894       6.10175447      -0.00645589       0.00408898       0.00506051
H       11.47565793       2.94285203       4.69695634      -0.01198883       0.00399558       0.00131462
S        2.20820684       8.59698146       1.21846787       0.00080568      -0.00726250       0.00036216
O        3.05793671       8.84661126       0.00194707       0.00031054      -0.00921927      -0.00193608
C        2.54819928       6.90739034       1.69514933       0.00226168      -0.00515091       0.00561740
C        0.54304929       8.32689742       0.58162380       0.00156307      -0.00981879       0.00069398
H        3.53637700       6.87398438       2.14610042       0.00222078      -0.00394344       0.00576225
H        2.55332419       6.30351058       0.78688320       0.00086114      -0.00885383       0.00813986
H        1.78540002       6.55916178       2.39140125       0.00269365      -0.00082117       0.00854933
H       -0.12343991       8.06096177       1.39868788       0.00451668      -0.01964598      -0.00030880
H        0.57786292       7.51444070      -0.14178773       0.00437603      -0.00486661      -0.00473205
H        0.22987312       9.25380822       0.10364585      -0.00405347      -0.00855654       0.00635298
S        3.30742542       8.89318025      10.25800768       0.00765383       0.00075394       0.00223273
O        3.05288387      10.28806812      10.84423745       0.00071640       0.00024581       0.00004852
C        2.18436186       7.84591254      11.17242753       0.00011799       0.00470537      -0.00641537
C        4.84873997       8.38849201      11.01406272       0.00014365       0.00346044       0.01681551
H        1.18918247       8.05749161      10.78656920       0.00278682       0.00310542      -0.01506906
H        2.29771889       8.11047897      12.22563913      -0.00819165       0.00399402      -0.00538173
H        2.44436263       6.80206413      10.99964746       0.00810435       0.00737409      -0.00781716
H        5.15954878       7.43455918      10.58683047      -0.00293905       0.00469805       0.01155926
H        4.73056185       8.32363784      12.09510508      -0.00978047      -0.00087468       0.01539725
H        5.56829630       9.15776316      10.73458026       0.00283943       0.00510213       0.02745949
S        4.12603703      12.58133699      -0.43420176      -0.00314027      -0.00366759       0.00623012
O        4.82536974      13.60700654       0.47846753       0.00239956      -0.01138896       0.01175278
C        2.71692974      12.07152331       0.51383809      -0.00318408      -0.00616604       0.00455046
C        5.07626479      11.08452673      -0.40834394      -0.00597748      -0.00499833      -0.00399023
H        2.07765101      12.94429433       0.62607690      -0.00263026      -0.00690705       0.00885111
H        3.06437028      11.70620006       1.48181611      -0.00282605      -0.01143601       0.00225174
H        2.19215037      11.30589505      -0.05419853      -0.00523582      -0.00247140       0.00048789
H        4.41730826      10.31434847      -0.80150150      -0.00669016      -0.00243288      -0.00901965
H        5.33961049      10.83854800       0.62215362      -0.00739999      -0.01158702      -0.00515801
H        5.94333024      11.24589422      -1.04256597      -0.00637138      -0.00212997      -0.00272949
S        2.48146288       2.23978467      11.49456438       0.01235113      -0.03080916      -0.00644306
O        2.21890058       3.64069939      11.03443186       0.00744097      -0.03886771      -0.02033961
C        1.44227526       1.95177708      12.93411272       0.00885138      -0.01803120      -0.00640267
C        4.06595188       2.26356499      12.34045261       0.00990784      -0.01300941      -0.00202209
H        0.40996859       2.05192749      12.60457070       0.00979207      -0.02519629      -0.01163698
H        1.67682114       2.67522013      13.71602745       0.00514819      -0.00604089      -0.01648469
H        1.59726741       0.92762205      13.26993319       0.00922501      -0.01266934       0.00948416
H        4.20126041       1.33701085      12.89767137       0.01299193      -0.00346826       0.01266377
H        4.09265858       3.12080052      13.01536775       0.00163127      -0.00229661      -0.01546302
H        4.83086124       2.33405712      11.56825344       0.01173066      -0.01940851      -0.00089025
S        3.75035095      11.77538477       6.49306653       0.00314748       0.00916664      -0.00097275
O        3.77269200      11.82288318       8.02036694      -0.00523969       0.00054505       0.00119567
C        2.64551074      13.10276052       6.01295951      -0.00496423       0.00302368       0.00070395
C        2.69270383      10.37556911       6.13341587       0.00544006       0.00731796      -0.00576971
H        3.18002137      14.02224087       6.24431615      -0.00806554       0.00794740      -0.01291198
H        1.71349760      13.02968063       6.57247422      -0.00149521       0.00154235       0.00593249
H        2.50187059      13.03068053       4.93645191      -0.01713764      -0.00319370       0.00287348
H        2.52340515      10.34980342       5.05917464      -0.00485283      -0.00419086      -0.00420454
H        1.77340568      10.46304985       6.70811726       0.00705869       0.01297365      -0.00588359
H        3.25012475       9.49334785       6.44018204       0.00579266       0.00735088      -0.00681813
S        8.38774871       8.42986748      10.32443955       0.00048369      -0.00224972       0.00258723
O        7.89104278       7.01697617      10.39251877       0.00350401      -0.00277340       0.00609553
C       10.06631781       8.38055550       9.68426985      -0.00046349      -0.00024188       0.00098318
C        8.81085963       8.87841902      12.01669511       0.00201195       0.00229889       0.00060821
H        9.99901739       8.15267012       8.62239687      -0.00320933      -0.00396148       0.00222357
H       10.63687346       7.60262213      10.19145751       0.00210183       0.00174657       0.00121962
H       10.52647668       9.35977748       9.81304379      -0.00170781       0.00078037      -0.00274296
H        9.18308623       9.90265386      12.03807743       0.00059527       0.00279532      -0.00259533
H        9.54446515       8.16351755      12.39334047       0.00352976       0.00419013       0.00123219
H        7.88315677       8.81613920      12.58453730       0.00294475       0.00235087       0.00191248
S        9.37105533      11.40826970       1.95627938       0.01630324       0.00201035      -0.00668222
O        8.33798034      12.23461428       1.21229772       0.00863743       0.00503263      -0.00431627
C       10.79295578      11.36906038       0.86555560       0.00908157       0.00429370      -0.01403740
C        8.83450600       9.71181241       1.78863340       0.01236761       0.00408614      -0.00527923
H       11.12668165      12.39544816       0.72307842       0.01409808       0.00270915      -0.01059036
H       10.50632097      10.95368101      -0.09825770       0.00336517       0.00997096      -0.01482806
H       11.58157621      10.78168206       1.33737362       0.00950553      -0.00166246      -0.02102654
H        9.51188891       9.08544128       2.36939276       0.01529373       0.00276551      -0.00831274
H        8.82938238       9.42895014       0.73781136       0.00829437       0.00367046      -0.00519305
H        7.82540660       9.66192492       2.20195216       0.01524690       0.00446234      -0.00066315
S       12.72644304      13.73971825       4.84681704       0.00252831      -0.00055207       0.00374007
O       12.39571523      14.10574466       6.24883710       0.00060555      -0.00295150       0.00616527
C       11.19483790      13.83987784       3.89555222       0.00457460       0.00580793       0.00277451
C       12.85591075      11.93820335       4.80306135      -0.00414190       0.00005746       0.00111177
H       10.91263328      14.88756875       3.82973652       0.01057680       0.00731178       0.00094945
H       10.40835305      13.28829357       4.41113345       0.00126457       0.01076676       0.00327221
H       11.37928571      13.44688327       2.89670201       0.00356693       0.00247396       0.00401516
H       13.01046828      11.60335295       3.77688941      -0.00748660       0.00030195       0.00056062
H       11.94834428      11.51989280       5.23847987      -0.00538588       0.00228212       0.00033689
H       13.70683422      11.66635593       5.42328517      -0.00458658      -0.00593793      -0.00127201
S        7.87943957       3.81220570      13.83965430      -0.00437957      -0.00477457      -0.00471383
O        7.04766405       2.62300183      14.31097437      -0.01056671      -0.00472546      -0.00789514
C        7.99130724       4.85026693      15.29488728      -0.00983503      -0.00731090      -0.00353515
C        6.73635768       4.81735605      12.90425115       0.00196785      -0.00357118      -0.01009831
H        8.63983256       4.35362120      16.01361798      -0.01458134      -0.00898844      -0.00063233
H        6.97815840       4.95429824      15.68424443      -0.01140487      -0.00412673      -0.00842836
H        8.41779715       5.81088215      15.00550502      -0.00667883      -0.00813210      -0.00252511
H        7.26560933       5.69064223      12.51750714       0.00604434      -0.00397180      -0.00687302
H        5.89449576       5.07334057      13.54768905       0.00030087      -0.00060154      -0.01370794
H        6.41694679       4.20615418      12.06298325       0.00366178      -0.00193530      -0.01156752
S        7.14859690       3.01198103       9.10052322      -0.00679231       0.00457555       0.00346601
O        8.61716661       3.29001556       9.12060331      -0.00390697       0.00134391       0.00395441
C        6.75958468       2.27036478       7.50619735      -0.00899039       0.00233313       0.00588918
C        6.35328293       4.59527757       8.78240636      -0.00050354       0.00632280       0.00096855
H        7.17314754       1.26482321       7.47046108      -0.00816631       0.00298782       0.00586440
H        7.18852302       2.90000997       6.72472379      -0.01249211       0.00148106       0.00266920
H        5.67638572       2.20516818       7.40651073      -0.00935782       0.00142147       0.00978135
H        5.27347714       4.47212163       8.86789864      -0.00107217       0.00796436      -0.00116070
H        6.62716541       4.92421891       7.78004918       0.00153565       0.00432974       0.00053737
H        6.73454503       5.29448385       9.52508236      -0.00096290       0.00634288       0.00020595
S        2.94827770       4.67840834       7.07177895       0.00281179      -0.00405568       0.00091207
O        2.49126389       5.07179901       5.70029190       0.01372576       0.00849777      -0.00026560
C        1.87622569       3.37523095       7.68250593      -0.00365025      -0.00702453      -0.01918411
C        2.37227407       5.94898746       8.20899434      -0.00487700      -0.01306808       0.00653246
H        2.17295962       2.44487652       7.20264762      -0.00448108      -0.00202498      -0.02884760
H        0.83631301       3.61532481       7.45374249      -0.00236869      -0.00137199      -0.01869790
H        2.02282682       3.31160847       8.76200877      -0.00610455      -0.02040171      -0.01952513
H        2.67379555       5.64474076       9.21055177      -0.01671036      -0.02455884       0.00676797
H        1.28733065       6.03999545       8.15422125      -0.00389698      -0.00969366      -0.00463119
H        2.84823968       6.88588091       7.92386892       0.00057163      -0.01146729       0.02079291
S       10.80417224      14.03452367       9.72106735      -0.00459039       0.00562127      -0.00425708
O        9.99335896      14.45906341      10.94450415      -0.01026255       0.00093675      -0.00607705
C        9.93765616      14.57571911       8.25868406      -0.01086593      -0.00589948      -0.00437921
C       10.58673038      12.27747262       9.47434472       0.00622112       0.00439519       0.00126044
H        9.75438154      15.64134622       8.38912051      -0.01790041      -0.00684212      -0.00771704
H        9.00136908      14.03414300       8.14420995      -0.00689614      -0.01364966       0.00223697
H       10.62086596      14.38607109       7.42823640      -0.01195543      -0.00508861      -0.00587732
H       11.12500270      12.03588023       8.55745358       0.00555610       0.00182105       0.00130259
H        9.52586208      12.04710955       9.38862113       0.00647566       0.00315395       0.00436860
H       11.04256440      11.76191760      10.31478140       0.00872128       0.00963936       0.00286223
S        7.64991475       6.59986010       5.07652319      -0.01027691       0.00106370      -0.00980586
O        7.67068976       5.12850093       5.36098028      -0.00363572       0.00458586      -0.00795439
C        7.07939832       7.43339276       6.57033036      -0.00604901       0.00187027      -0.00846303
C        6.19693156       6.93154240       4.08121890      -0.01787877      -0.00352831      -0.00145343
H        7.78573817       7.19813242       7.36520103       0.00001374       0.00673785      -0.01212666
H        6.09071100       7.05574345       6.83105407      -0.00200354      -0.00557166      -0.00437228
H        7.03404476       8.50453612       6.37550526      -0.01410894       0.00101325      -0.00933033
H        6.07091782       8.00901248       3.98107346      -0.01840108      -0.00444910      -0.00741246
H        5.33148350       6.48394767       4.57089071      -0.01439855      -0.00056516       0.00713457
H        6.34931936       6.47459247       3.10703819      -0.02464950      -0.01111303       0.00072855
S        4.16816135       3.31112503       2.24324465       0.01200092      -0.00386238      -0.00033204
O        4.68927288       4.59756218       1.66264816       0.00579399       0.00004816       0.00098366
C        2.48625434       3.63610324       2.81017883       0.01027578      -0.00956282      -0.00093207
C        4.90451365       3.13815334       3.87110776       0.01077801      -0.00170583      -0.00034940
H        1.88588792       3.88686463       1.93826460       0.01028238      -0.00798022      -0.00016746
H        2.48055710       4.44874456       3.53512006       0.00745720      -0.01081342       0.00151330
H        2.09933886       2.72972322       3.27614465       0.01146105      -0.01115830      -0.00360906
H        4.52404698       2.22993525       4.33965127       0.01569101      -0.00474352      -0.00248299
H        4.66430017       4.02194795       4.46085040       0.00541438      -0.00396445       0.00142627
H        5.97814255       3.03036471       3.73442856       0.01161437       0.00507312       0.00093139
S       13.71631583       7.61145354       4.01505296       0.00219032       0.02331305       0.01214716
O       13.73239552       6.26393440       3.37013393       0.01151398       0.02874136       0.00015384
C       13.99810563       7.38693122       5.77270820       0.00614678       0.00972179       0.00968820
C       11.97870691       8.09698212       4.08763911      -0.00137120       0.00777809       0.01856840
H       14.94457206       6.84956159       5.83552909       0.01285562       0.02134310       0.00453919
H       13.20110202       6.77973276       6.19941518       0.01334754      -0.00444579       0.00321579
H       14.06404551       8.35862385       6.26409709      -0.00593857       0.00523643       0.02049727
H       11.87644684       9.02977041       4.64033462      -0.00875867       0.00498700       0.02170736
H       11.40747530       7.29378333       4.55414180       0.00582471       0.00009325       0.01459745
H       11.65945555       8.23067640       3.05457401      -0.00300937       0.01246497       0.01998915
S       13.16701299       5.04652858      10.39613824      -0.00015795      -0.00665021      -0.00665411
O       12.31376224       6.17386694       9.89687559       0.00574565      -0.00110650      -0.00255582
C       12.11075519       3.60004906      10.54670935      -0.00706691      -0.00148666      -0.00681485
C       13.36988215       5.36916375      12.16139397       0.00576495      -0.01207075      -0.00627357
H       11.92425185       3.26535315       9.52785757      -0.00879887      -0.00071971      -0.00668997
H       11.18124453       3.87505845      11.04449891      -0.00580741       0.00338529      -0.00694512
H       12.63857136       2.82343923      11.09974773      -0.01101550      -0.00374120      -0.00646032
H       14.00425462       4.60407453      12.60473626       0.00503907      -0.01535289      -0.01088390
H       12.39051781       5.41293083      12.63847763       0.00751337      -0.01093136      -0.00277842
H       13.86005670       6.33720194      12.23133279       0.00867370      -0.01369388      -0.00495682
