196
Lattice="13.46579327134956 0.0 0.0 0.0 13.46579327134956 0.0 0.0 0.0 13.46579327134956" Properties=species:S:1:pos:R:3:forces:R:3 energy=-130458.1328125 stress="-0.00016750156646594405 0.00039703007496427745 -0.0007082538213580847 0.00039703007496427745 -0.0017056766664609313 -0.001038377231452614 -0.0007082538213580847 -0.001038377231452614 -0.00015355049981735647" pbc="T T T"
Li      10.62086368      12.79118904      -0.46002286      -0.00070406      -0.00170416      -0.00230827
Li       5.04739101      12.96503319       3.02184361       0.00379902       0.00555999      -0.00877285
S       12.30042458       0.17695952       0.94954321      -0.01216304       0.00331447       0.01131178
S       13.39847268       1.35736329      -0.22260116      -0.00956063      -0.00016189       0.00828221
O       12.46434752       7.13312086       3.33108782      -0.01254898       0.00760782       0.00617117
N       12.27037913       8.49800838       1.50739800       0.00226810      -0.00220650      -0.00157751
C       11.24586913       7.69636741       0.86929230       0.00345495      -0.00256152      -0.00255536
C       12.74281446       9.66506989       0.79333899       0.01005989      -0.00789902      -0.00429602
C       12.78694719       8.13633656       2.70822628      -0.00537230       0.00117171       0.00389832
H       11.57868444       7.35649677      -0.11593896       0.00885403      -0.01131707       0.00258347
H       10.33655773       8.29078235       0.73273910       0.00734782       0.00021614      -0.01341635
H       11.02383021       6.83452721       1.49454802      -0.00441737       0.00309697       0.00206217
H       13.35742131       9.38961090      -0.06934111       0.01387170      -0.01490723       0.00067493
H       13.33223937      10.30258530       1.45069530       0.00844398      -0.00646769      -0.00440796
H       11.89913253      10.25138052       0.42579704       0.01413783      -0.00766219      -0.01237463
H       13.52209742       8.85891596       3.09431103      -0.00416157       0.00073740       0.00327113
O       14.22545631       1.48894967       4.45511065       0.01803535       0.02033144       0.00307786
N       12.85760781       3.10531033       3.58073612       0.00080590       0.00630997       0.00774086
C       12.45391974       3.64180770       4.86004138       0.00649289       0.00810050       0.00834659
C       12.39968216       3.80978553       2.39809953      -0.01613899      -0.00425126       0.00928533
C       13.70275910       2.05614074       3.49778132       0.00835979       0.01197326       0.00602949
H       11.36125070       3.67373953       4.91765716       0.00691208      -0.00374822       0.01819219
H       12.83286153       4.65955380       4.98498771      -0.00444824       0.01285547      -0.00129747
H       12.84944409       2.99972094       5.64348263       0.02045907       0.01757355       0.00821768
H       11.30782310       3.85344220       2.37289894      -0.01641765      -0.01603799       0.01901332
H       12.75488138       3.29331962       1.50573417      -0.01673683      -0.00352801       0.00906725
H       12.76593011       4.83994763       2.41522520      -0.02766787      -0.00041360       0.00206319
H       13.88172700       1.75263346       2.45754601       0.00329637       0.00968170       0.00507903
O        8.30927432       2.11804997       6.53003646       0.00462750       0.00107089      -0.00056326
N        8.69521247       1.76151036       4.30196676       0.00176045      -0.01053517       0.00111988
C        9.76604712       0.81395758       4.51465873       0.00594522      -0.00474777       0.00462417
C        8.36204206       2.06960097       2.92976425       0.00086976      -0.01585374       0.00025339
C        8.05012999       2.31230396       5.34802352       0.00206661      -0.00587440      -0.00149918
H       10.66741858       1.13226805       3.98434320       0.00453308      -0.00276299       0.00333783
H        9.47807502      -0.17325598       4.13860617       0.01108235      -0.00744870       0.00843180
H        9.95617795       0.74788140       5.58156864       0.00599283       0.00037553       0.00501403
H        9.22066471       2.50974518       2.41966688      -0.00016686      -0.01524913      -0.00093059
H        7.54487630       2.78493304       2.89068848      -0.00136434      -0.01844189      -0.00134221
H        8.07172326       1.15847338       2.39681488       0.00380521      -0.01818103       0.00269422
H        7.24161671       2.98962269       5.02599407       0.00005683      -0.00983790      -0.00363591
O        4.99894829       1.10449958       3.76802827      -0.01056853       0.00406587      -0.00267444
N        3.98458505       2.03738282       1.94979297      -0.00102769      -0.00421083      -0.01059167
C        4.91058828       1.48679591       0.97047821      -0.00044248      -0.01385751      -0.00292155
C        2.83830295       2.73635472       1.40388462       0.00612363      -0.00009078      -0.01622718
C        4.11168603       1.82470471       3.25250516      -0.00207870      -0.00023439      -0.00513911
H        5.26466124       2.27841753       0.31195842       0.00635213      -0.01782367      -0.00428271
H        4.41179721       0.72604569       0.36640466      -0.00293246      -0.01290748      -0.00242724
H        5.78724087       1.09054283       1.48038299      -0.00420865      -0.01618365       0.00045684
H        3.17331081       3.53940776       0.74791691       0.01353520      -0.00396699      -0.01699695
H        2.24928262       3.14644595       2.21838948       0.00451643       0.00569230      -0.02072038
H        2.20656036       2.04964115       0.83234004       0.00464730       0.00145590      -0.01662932
H        3.35363689       2.31012630       3.87554779      -0.00507426       0.00744931      -0.01210625
O        8.83000842       5.26771555       2.56835856       0.01512843      -0.00154167       0.01917911
N        7.13676549       6.28925590       3.72982355       0.00685171       0.00293867       0.00208880
C        6.09397930       5.38190797       3.29882375       0.01149705       0.00045194      -0.00295727
C        6.77532492       7.28231073       4.71186054      -0.00206799       0.00603755      -0.00420198
C        8.42022764       6.12893039       3.32818867       0.00913060       0.00246632       0.01337731
H        5.22317037       5.95838712       2.97607476       0.01427455      -0.00186230      -0.01387222
H        5.78720305       4.72951504       4.12418406       0.00471066       0.00374445      -0.00316209
H        6.45982380       4.78304265       2.46838209       0.01884411      -0.00266168       0.00289094
H        5.93016891       7.87924140       4.35663373      -0.00134282       0.00172062      -0.01215716
H        7.62266252       7.93855741       4.90390007      -0.00540379       0.00941180      -0.00147709
H        6.48261746       6.81117954       5.65572156      -0.00664283       0.00868206      -0.00440091
H        9.08405657       6.89184517       3.77123009       0.00612411       0.00372002       0.01477261
O       10.74394511      -0.22146478      11.16664231      -0.01234774      -0.01808363       0.00337857
N       11.38431664       1.28755573       9.56350387      -0.01088547      -0.01459871       0.00883524
C       12.80139262       1.28610080       9.87802925      -0.01136413      -0.01872737       0.01037495
C       10.97247872       2.17448929       8.49089260      -0.00893927      -0.01550344       0.00788093
C       10.49319387       0.55917302      10.23800318      -0.01199564      -0.01540220       0.00547302
H       13.08726819       2.25357432      10.29633077      -0.00802971      -0.01821810       0.00623560
H       13.37031182       1.11628686       8.96258155      -0.01087993      -0.02559264       0.01211962
H       13.01771328       0.52575468      10.61989172      -0.01507493      -0.01608402       0.01404363
H       11.19669397       3.21120685       8.76059065      -0.00592428      -0.01575610       0.00555696
H        9.90942534       2.07366696       8.28632415      -0.00945690      -0.01300006       0.00981685
H       11.52520714       1.93099108       7.58060357      -0.01119553      -0.01928709       0.00756519
H        9.46624830       0.71351914       9.88060083      -0.01161808      -0.01477613       0.00556995
O        6.09099149       1.63178673      11.33140900       0.00961006      -0.01307678       0.01062417
N        8.17149951       2.55950046      11.55280204       0.00275737       0.00261378       0.01013725
C        8.49904521       1.83231184      12.76132899       0.00334695       0.01197957       0.01514176
C        9.04727244       3.66141755      11.21545602      -0.00384267       0.00705273       0.00673358
C        6.95395553       2.42899949      10.98547146       0.00748992      -0.00769389       0.00685901
H        8.44735418       2.50675007      13.61641101      -0.02696422       0.00941816       0.01370692
H        9.51239804       1.43300039      12.68635136       0.01276317       0.03778860       0.02876728
H        7.77989454       1.02674176      12.89015005       0.02474593      -0.00681233       0.00708192
H        9.05700127       4.40018298      12.02088126      -0.01100072       0.01146905       0.00255328
H        8.70612329       4.15154006      10.30624690      -0.00492406      -0.00029659       0.00352708
H       10.06811768       3.29742603      11.06953017      -0.00104716       0.01366444       0.01106337
H        6.81043599       3.12151733      10.13778389       0.00441264      -0.01624492       0.00219792
O        9.34718094       8.86871370       7.18536966      -0.00042653       0.00361907      -0.00772265
N        9.47513450       6.59911776       6.90088755       0.00088105       0.00313234      -0.00337223
C       10.80953676       6.59277374       6.33691434      -0.00045443       0.00367058      -0.00606695
C        8.83649337       5.31539123       7.08289895       0.00215659       0.00272909      -0.00177763
C        8.87898631       7.73888306       7.28853412       0.00074070       0.00308096      -0.00380278
H       10.80260902       6.20979433       5.31482577      -0.00167964      -0.00039372      -0.00430518
H       11.46080802       5.95457071       6.94004393       0.00240245       0.00776149      -0.00485696
H       11.20302640       7.60404626       6.32908850      -0.00306816       0.00452542      -0.01110828
H        8.72572679       4.80199698       6.12588392      -0.00109056       0.00310312      -0.00162506
H        7.85683911       5.45159505       7.53633625       0.00377895       0.00187026       0.00178008
H        9.42967293       4.67791682       7.74146382       0.00491199       0.00249667      -0.00453737
H        7.88467256       7.55381435       7.72542875       0.00232047       0.00328249      -0.00059140
O        2.71262561       8.69471858       4.17370681       0.01041675      -0.01428330       0.00432390
N        2.42401473       7.31637887       2.37627143      -0.00091746      -0.00437863       0.00490354
C        2.49003433       8.37231077       1.39170877       0.00744280      -0.00206874       0.00736929
C        2.34810628       5.96271711       1.88974268      -0.00900666      -0.00213528       0.00351138
C        2.52772412       7.58522501       3.69600179       0.00472814       0.00170052       0.00869000
H        1.77601324       8.16641938       0.59479287       0.01070118       0.00067683       0.00387943
H        3.48587536       8.44649842       0.94341334       0.00953212      -0.00448048       0.01268032
H        2.23217540       9.31748814       1.86149399       0.00764842      -0.00242533       0.00763884
H        1.46619934       5.81631170       1.26120810      -0.01167536       0.00302229       0.00654452
H        2.28400048       5.28527580       2.73756561      -0.00892914      -0.00327327       0.00267282
H        3.24120250       5.71389088       1.30688663      -0.01224703      -0.00495426       0.00017849
H        2.42565893       6.68213013       4.31852798      -0.00181934      -0.00637215       0.00508842
O        4.50255453       9.33508861      10.44224173       0.00154066       0.01081216       0.00736989
N        5.58925448      11.34765750      10.38499451       0.00403294       0.00797755      -0.00069790
C        4.37789271      12.14584790      10.37163100       0.00571308       0.00953637       0.00057723
C        6.85155817      12.05116652      10.32469751       0.00501958       0.00519344      -0.00507062
C        5.52551498      10.00283288      10.41908321      -0.00037974       0.00646645       0.00315056
H        4.33685695      12.74871630       9.46127240       0.00209720       0.00415996      -0.00289300
H        4.36593774      12.82616626      11.22394883       0.01181731       0.01524097      -0.00383773
H        3.52230544      11.47760492      10.41353523       0.00468120       0.01176840       0.00877121
H        6.93203679      12.61706083       9.39164786       0.00499198       0.00128427      -0.00738093
H        7.67003974      11.33452784      10.37819325       0.00416511       0.00437890      -0.00318883
H        6.92714517      12.76246836      11.14864218       0.00621029       0.00819305      -0.00803441
H        6.53191617       9.54067785      10.42803349       0.00038564       0.00575282       0.00210653
O        2.69323501      12.03473132       0.31743856      -0.00888872      -0.00394449       0.00361681
N        3.77310879      11.58251367       2.29672363      -0.00932211       0.00771722       0.00188184
C        2.60601122      11.95523230       3.12283970       0.00078773      -0.00106715       0.00710857
C        4.72630166      10.65677444       2.91198460      -0.00192954       0.00380120       0.00592774
C        3.62190033      11.55431020       0.91702774       0.02572918      -0.01872774       0.00002408
H        2.91172606      12.59899110       3.95172634      -0.00233167       0.00078492       0.00463289
H        2.14182901      11.05899353       3.53929210      -0.00386648       0.00292569       0.00245132
H        1.89982371      12.49863471       2.49989345      -0.00169358       0.00366516       0.00285962
H        5.33995679      11.13928136       3.69348581      -0.00310150       0.00981583       0.01099409
H        5.39350827      10.26677144       2.14542801       0.00222836       0.00599484       0.01111780
H        4.18937536       9.84340573       3.40447065       0.00124583       0.00383192       0.00932057
H        4.47898994      11.07126512       0.41173731      -0.01377624       0.00585601       0.01502213
O        1.82953731       9.34067425       7.95737812      -0.01320827      -0.00098723       0.02433598
N        4.02251789       9.11729262       7.33194369      -0.01991884       0.00393543       0.00955977
C        4.00540014       7.67510853       7.33437909      -0.01838075       0.00356218       0.00714284
C        5.28434842       9.76261289       7.07747061      -0.02349610       0.00491033      -0.00013204
C        2.90908234       9.81762468       7.66315993      -0.01483119       0.00343868       0.01756546
H        4.72215732       7.28957530       8.06633622      -0.01507762       0.00427929       0.00389779
H        4.25706450       7.29003534       6.34274169      -0.01944721       0.00759554       0.00560620
H        3.00598636       7.34651263       7.60390531      -0.01659057      -0.00082938       0.00893378
H        6.05969412       9.38882885       7.75431050      -0.02035692       0.00572874      -0.00475165
H        5.19007108      10.83682240       7.23475807      -0.02332786       0.00488839      -0.00172501
H        5.62641035       9.58907073       6.05068028      -0.03271808       0.00263156      -0.00143930
H        3.09193651      10.90727387       7.62971481      -0.02128533       0.00457305       0.01408791
O        9.01541896       6.80964218      10.14198208       0.00931403       0.00882471       0.00739141
N       10.96778680       8.00368504      10.18208688       0.01276183       0.00274644       0.00079682
C       11.83001093       6.84944679      10.05047639       0.00766668      -0.00056042      -0.00156327
C       11.60332368       9.30205095      10.25220820       0.01980895      -0.00045028      -0.00501610
C        9.63023279       7.86744622      10.21010549       0.01187217       0.00636327       0.00439783
H       12.44679576       6.72464986      10.94457033       0.00748032      -0.00399017      -0.00193092
H       12.49325043       6.97867693       9.19324139       0.00768645      -0.00073981      -0.00135610
H       11.20682846       5.96888591       9.91906825       0.00487003       0.00180924      -0.00322044
H       12.21002512       9.38995380      11.15724178       0.02440847      -0.00445676      -0.00714827
H       10.83939507      10.07663329      10.26543585       0.02394457       0.00268735       0.00507120
H       12.25398481       9.45607622       9.38879903       0.00985008      -0.00279645      -0.01408046
H        9.11777579       8.84044967      10.29906869       0.01421688       0.00774944       0.00473441
O        9.68366221      11.77089393       0.94713898      -0.01166755      -0.01095720      -0.03342035
N        9.55053740      10.46242896       2.81571311      -0.00523932       0.00718856      -0.02245368
C        8.17593072      10.08042472       2.59763227      -0.00360247       0.00012334      -0.02001575
C       10.23636065       9.81095865       3.91868698      -0.00416124       0.03026435      -0.01179203
C       10.17786627      11.29866813       1.98354716      -0.00907484       0.00081283      -0.02994359
H        7.62300845      10.20510725       3.53165062      -0.00706843       0.01381014      -0.02453580
H        8.10545273       9.03022776       2.29744391       0.00065633      -0.00445625      -0.00320766
H        7.75815457      10.71061013       1.81697145      -0.00229143      -0.01447706      -0.03128986
H        9.71192538       9.97818965       4.86214117      -0.00619374       0.04602588      -0.01636922
H       11.25281287      10.18537920       3.99953733      -0.00635043       0.03661068      -0.01914706
H       10.28868600       8.73361550       3.73763053       0.00106236       0.02783996       0.00826830
H       11.19962928      11.54150542       2.30296234      -0.00928509       0.00691402      -0.03390455
O       13.25841740      10.28061390       5.24201372       0.00704527       0.00567734      -0.01660454
N       12.14253598      11.64382616       6.70178927       0.01158153       0.00156471      -0.01141663
C       12.82522071      12.84831817       6.28586345       0.01333938       0.00183998      -0.00797699
C       11.11204392      11.75845107       7.70911356       0.01624440      -0.00147012      -0.00695272
C       12.47459456      10.45093539       6.16509415       0.01067615       0.00267965      -0.01785189
H       13.30548651      13.32534963       7.14348399       0.02070282      -0.00546920      -0.00813037
H       12.13026246      13.56020143       5.83788001       0.01279077       0.00702454       0.00167820
H       13.58233969      12.59629394       5.55179932       0.00770253       0.00408882      -0.01410440
H       11.53279358      12.03021539       8.68154888       0.02069932      -0.00359350      -0.00826550
H       10.57679481      10.81423411       7.79654002       0.01702148      -0.00170821      -0.00652693
H       10.39147145      12.53055266       7.41920620       0.01481438      -0.00108540      -0.00176513
H       11.91731045       9.62423427       6.63725352       0.00899708       0.00175208      -0.01861122
O        6.68446811       4.12454056      13.72859341      -0.03293836      -0.00544941       0.01113230
N        6.16360289       6.20413496      12.92443528      -0.01007141      -0.00468952       0.00011231
C        7.45359558       6.80175410      13.20459425      -0.00911534      -0.01385722       0.01367092
C        5.19475928       7.03141518      12.23957281       0.00630084      -0.00012584      -0.01647949
C        5.91946554       4.90916406      13.18155161      -0.02202213      -0.00074810      -0.00074238
H        7.32680822       7.64985891      13.88389309      -0.01114239      -0.00247578      -0.00254416
H        7.90110337       7.15225389      12.27243602       0.01125807      -0.03299772       0.01738864
H        8.09704331       6.06187291      13.67362022      -0.02602147      -0.01310581       0.03568980
H        5.07718626       7.98362448      12.76034212       0.00313018       0.00125022      -0.02107202
H        4.22969714       6.52786839      12.21379572       0.00436449       0.00533728      -0.03149436
H        5.49933886       7.25561384      11.21761568       0.02453229      -0.00489683      -0.01162741
H        4.91271583       4.60554977      12.84266212      -0.01866934       0.00301735      -0.01210517
