200
Lattice="14.25135174833993 0.0 0.0 0.0 14.25135174833993 0.0 0.0 0.0 14.25135174833993" Properties=species:S:1:pos:R:3:forces:R:3 energy=-1070743.625 stress="-0.0004323893808759749 0.0005799117207061499 -0.0007344756741076708 0.0005799117207061499 -0.00048332312144339085 5.125918676185393e-07 -0.0007344756741076708 5.125918676185393e-07 -0.0015013169031590223" pbc="T T T"
Lu       6.85515666      12.48972485       0.13882136      -0.01476640      -0.00021886       0.00197729
Lu       4.09776926      16.71416793       2.70766200      -0.00448930       0.01471019      -0.00916818
S        8.04058418       9.18723804       9.65004774       0.01271135       0.01637006      -0.00404659
S        5.63637841       6.92256242      12.77500238       0.00791866       0.00418100      -0.00998890
S        6.87650482       7.26425841       9.63494164       0.01028100       0.01782119      -0.00579230
S        7.23043753       6.37056538      11.38809287       0.01167250       0.01375450      -0.00818980
O        8.67234665       9.22760149      10.95914208       0.00537646       0.01952878      -0.00106168
O        4.41479882       6.26352684      12.33399821       0.01063704       0.00340933      -0.01591063
O        7.00358288      10.18962363       9.44408108       0.01373792       0.01570058      -0.01199114
O        8.94708112       9.02670803       8.52823129       0.01818919       0.01525763       0.00041556
O        6.22590053       6.31619831      13.97016386       0.00563568       0.00146002      -0.01055562
O        5.57293007       8.37047498      12.76650760       0.00315760       0.00385332      -0.00331178
S        4.74531378      14.03723338       2.58877819      -0.02012572       0.01123297      -0.00309682
S        7.61033551      10.08971116       1.84717333       0.00879359       0.01483750       0.00375988
S        9.38036132      12.34385378       0.06849704      -0.01598269       0.02797237      -0.00325558
S        8.76688623      11.95530182       1.97006275      -0.00722110       0.02826014       0.00129637
O        5.39981133      15.21043178       3.38527829      -0.01196836       0.00951546      -0.00739995
O        8.39981075       9.05367234       1.25847577       0.00385422       0.02417690       0.03324717
O        3.60673781      14.84448429       1.87689134      -0.01076666       0.01816803      -0.01015756
O        5.72394348      13.71139007       1.48982909      -0.02227858      -0.00348172       0.00009769
O        7.13427677       9.96443174       3.19551882       0.00195473       0.03035721       0.01536369
O        6.51808211      10.55053248       0.89858985       0.00881010       0.00085239       0.01212317
S       14.64968819       8.49335549       5.14458662       0.00531799      -0.01270533       0.00071841
S       11.23156372       4.98529318       5.21738496       0.00527416      -0.00936377       0.00447065
S       13.34841143       7.35641461       6.51512008      -0.00036943      -0.00478077       0.00064358
S       11.53935420       7.10455624       5.70473529       0.00260404      -0.00732470      -0.00557925
O       14.14230622       9.85237273       5.13159776       0.00978023      -0.01121879      -0.00588495
O       11.27588548       4.26065282       6.47799611       0.00692436      -0.00370586       0.00749552
O       14.64119482       7.79687528       3.87323991       0.00718883      -0.01735389       0.00316501
O       15.86354453       8.32431682       5.94652354       0.00291324      -0.01279574       0.00427532
O        9.89469004       5.15059294       4.65655759       0.00470495      -0.01367880       0.00412077
O       12.26400970       4.59927063       4.27479729       0.00542021      -0.01221865       0.00598979
C       12.41163515       0.86621387       4.33212514      -0.00366661       0.00058744      -0.00070128
C       12.35347637       0.81105256       2.94453010      -0.00624281      -0.00108834      -0.00038264
C       11.33191025       1.35346707       5.05704239      -0.00176132       0.00242507       0.00060877
C       11.20626852       1.22601686       2.27883026      -0.00654864       0.00015409       0.00119425
C       10.18535280       1.77188166       4.39321564      -0.00222880       0.00325109       0.00228547
C       10.12156936       1.70042725       3.00738416      -0.00438413       0.00271951       0.00252768
H       13.30224819       0.53583592       4.85271044      -0.00312299       0.00050107      -0.00166859
H       13.20134876       0.44258172       2.37884030      -0.00807595      -0.00341039      -0.00150654
H       11.39112329       1.44172684       6.13309319       0.00066184       0.00435073       0.00024489
H       11.16019226       1.18740565       1.19813837      -0.00896589      -0.00153241       0.00145456
H        9.36105735       2.18611626       4.95798637      -0.00053674       0.00511798       0.00323389
H        9.23068745       2.03497348       2.49026644      -0.00418016       0.00412891       0.00350302
C       10.08467505       5.28219243       1.10683285       0.00249644       0.01005119       0.00189402
C       11.44366551       5.13194526       1.35399151       0.00211638       0.01267567       0.00471951
C        9.61639033       6.35029166       0.35147051       0.00263584       0.00525356      -0.00459741
C       12.34005771       6.06470437       0.84818217       0.00199035       0.01067969       0.00073393
C       10.51804633       7.27316302      -0.16840386       0.00243559       0.00318176      -0.00865930
C       11.87778894       7.12940673       0.08211104       0.00216495       0.00583686      -0.00589577
H        9.39089087       4.56782144       1.53360985       0.00252718       0.01178434       0.00476373
H       11.79382109       4.31860202       1.97317567       0.00189552       0.01684856       0.01021531
H        8.55554081       6.48128730       0.17868150       0.00281113       0.00301868      -0.00729074
H       13.39624875       5.97278467       1.06932925       0.00156339       0.01317914       0.00322421
H       10.14840102       8.10641268      -0.75113966       0.00274567      -0.00158361      -0.01539974
H       12.57736907       7.85771876      -0.31097352       0.00224376       0.00374229      -0.00944677
C       13.88377368       6.97624964      10.15432843       0.00381456      -0.00377338       0.01184255
C       13.35529777       5.94345453       9.38868777       0.00607374      -0.00258516       0.00862187
C       13.05865253       8.01441937      10.57516344       0.00146460      -0.00599714       0.01268379
C       12.00531760       5.94200066       9.05478971       0.00649177      -0.00330834       0.00657327
C       11.71115470       8.02519785      10.22778417       0.00203435      -0.00674026       0.01052072
C       11.18749602       6.98499722       9.46822063       0.00416386      -0.00529517       0.00702644
H       14.93805259       6.98627238      10.40321734       0.00338572      -0.00284902       0.01433042
H       13.99657752       5.15135798       9.02227297       0.00657854      -0.00168045       0.00751654
H       13.47044857       8.82964309      11.15811813       0.00050379      -0.00750834       0.01564048
H       11.61134549       5.15669309       8.42274329       0.00792088      -0.00256777       0.00494671
H       11.06175924       8.83563773      10.53162638       0.00137267      -0.00782478       0.01163399
H       10.14718242       7.02018910       9.17325074       0.00478888      -0.00514471       0.00406794
C        2.31875046       9.63641466       1.22669528      -0.00234756       0.00398025       0.00149901
C        3.09518267       8.56719594       0.79665171       0.00894319       0.01506867      -0.00523743
C        2.47363403      10.13769524       2.51495709      -0.00901087      -0.00375248       0.00525966
C        4.02890319       8.00152916       1.65821288       0.01356697       0.01894720      -0.00762431
C        3.40014667       9.56547162       3.37654261      -0.00420193       0.00073249       0.00299075
C        4.17745121       8.49612927       2.94747007       0.00688024       0.01179808      -0.00391489
H        1.58662698      10.07690193       0.55976462      -0.00626579       0.00034028       0.00332414
H        2.99642388       8.17780388      -0.20871207       0.01380656       0.02105761      -0.00810044
H        1.85249847      10.95597504       2.85775513      -0.01934309      -0.01430978       0.01041287
H        4.66429470       7.19979436       1.30455631       0.02204415       0.02745664      -0.01138473
H        3.50960066       9.93668157       4.38661631      -0.00939397      -0.00463178       0.00574265
H        4.91100744       8.06672309       3.61883740       0.00983368       0.01463526      -0.00548448
C        7.03949424      13.57740492      11.89460551      -0.01617446      -0.00422144      -0.00374016
C        7.41713579      12.23652048      11.75193089      -0.01911402      -0.00496724      -0.00217491
C        5.76301948      13.89687004      12.37641254      -0.01460764      -0.00080934      -0.00205743
C        6.52759756      11.21567822      12.09839245      -0.02105322      -0.00224200      -0.00011916
C        4.85647412      12.87314227      12.68930174      -0.01621193       0.00181657       0.00120633
C        5.24191670      11.53313794      12.55359189      -0.01939821       0.00086148       0.00194778
H        7.72998906      14.36818213      11.62769617      -0.01461432      -0.00613256      -0.00513527
H        8.39548045      11.96777004      11.37638826      -0.02034990      -0.00827608      -0.00258878
H        5.46648126      14.93159074      12.48988052      -0.01199181      -0.00015710      -0.00274320
H        6.83560959      10.18260122      12.03206254      -0.02409998      -0.00300997      -0.00009057
H        3.86597677      13.12547768      13.04506964      -0.01462047       0.00465528       0.00349097
H        4.57413722      10.72156054      12.81241973      -0.02092721       0.00299561       0.00429896
C        2.83955684      10.75007962       8.72556991      -0.00344285      -0.00530393      -0.01515183
C        2.26870125      11.07051307       7.49837808      -0.00303376       0.00356526      -0.01293831
C        4.13034641      11.16488077       9.02835767      -0.00293390      -0.00899078      -0.01233545
C        2.99030071      11.82464815       6.58169271      -0.00215821       0.00930383      -0.00732565
C        4.85207394      11.91806423       8.10811876      -0.00228590      -0.00273947      -0.00673245
C        4.27881844      12.25253930       6.88703557      -0.00230202       0.00675334      -0.00396281
H        2.29232906      10.13855766       9.43347246      -0.00453860      -0.00986508      -0.02011672
H        1.28723914      10.70843983       7.22893070      -0.00342110       0.00641187      -0.01522050
H        4.60474448      10.86354104       9.95131337      -0.00316112      -0.01599921      -0.01451485
H        2.55100520      12.04703647       5.61708844      -0.00108461       0.01668989      -0.00599834
H        5.87324688      12.19102848       8.33888100      -0.00208102      -0.00569556      -0.00431383
H        4.84646853      12.81848287       6.15699619      -0.00280953       0.01259297       0.00016005
C       12.58904377       2.51815600      12.49826309      -0.00212307      -0.01952271       0.00958437
C       11.30093090       1.99440481      12.43488520      -0.00217837      -0.01928635       0.00641453
C       12.79208756       3.88009403      12.31628157      -0.00091603      -0.01975981       0.00940147
C       10.22460202       2.83969290      12.18887019      -0.00157309      -0.01914725       0.00332599
C       11.71714103       4.71768544      12.05478335       0.00004187      -0.01962253       0.00611065
C       10.43205552       4.19930068      11.99299972       0.00012021      -0.01952553       0.00294311
H       13.43212100       1.86733003      12.69682538      -0.00277673      -0.01939003       0.01294594
H       11.13780067       0.93333364      12.58061256      -0.00189796      -0.01909709       0.00731092
H       13.78807241       4.29870749      12.38397267      -0.00092906      -0.02015858       0.01185786
H        9.21872972       2.44205301      12.14164553      -0.00277235      -0.01703249       0.00312133
H       11.87816387       5.77455671      11.90743907       0.00045126      -0.01967433       0.00653946
H        9.59553099       4.85909764      11.79971944       0.00111672      -0.01909713       0.00042375
C       10.34955551       9.42496768       3.84511443      -0.00197272       0.00698736       0.00424655
C       10.27196135      10.58956801       4.59511461       0.00279558       0.00639648       0.00525108
C       11.33692430       9.27956847       2.87811145      -0.00230059       0.00344551       0.00449161
C       11.17774075      11.62064734       4.36667455       0.00790170       0.00220156       0.00733048
C       12.24196074      10.30465113       2.65504428       0.00357579      -0.00133124       0.00746122
C       12.15892465      11.47697012       3.39632275       0.00852618      -0.00179012       0.00875303
H        9.63618952       8.62784494       3.99686368      -0.00613610       0.01054455       0.00230063
H        9.49804618      10.69351279       5.34698524       0.00305614       0.00897558       0.00507194
H       11.40202179       8.35879185       2.31766157      -0.00769937       0.00478011       0.00182243
H       11.11492533      12.54073498       4.93372960       0.01179501       0.00162472       0.00832221
H       13.02665569      10.17893787       1.91962774       0.00299615      -0.00384202       0.00741994
H       12.86658726      12.27711589       3.22912238       0.01318090      -0.00553870       0.01092858
C        6.81170340       2.54626280       7.66425038      -0.00385335       0.00029211      -0.00271889
C        7.28480498       1.25243090       7.85383336      -0.00281452       0.00069353      -0.00344522
C        7.55673718       3.63474446       8.10393945      -0.00465359       0.00072578      -0.00291009
C        8.50896853       1.04806817       8.48331960      -0.00222373       0.00149734      -0.00429259
C        8.78419733       3.42989157       8.72052607      -0.00407577       0.00163086      -0.00399719
C        9.26032034       2.13837568       8.90898883      -0.00301594       0.00199974      -0.00460826
H        5.85069826       2.70404543       7.18882259      -0.00413474      -0.00046137      -0.00229529
H        6.69795408       0.40627848       7.51769558      -0.00300620       0.00090644      -0.00348820
H        7.18825243       4.64359578       7.97310234      -0.00580318       0.00027762      -0.00255835
H        8.87368178       0.03982801       8.63997599      -0.00100843       0.00193201      -0.00459225
H        9.37045316       4.27703940       9.05047571      -0.00436832       0.00203894      -0.00473049
H       10.21724624       1.99328333       9.39347731      -0.00261293       0.00274134      -0.00517508
C        3.44923922       1.63166834      10.50310568      -0.00350588      -0.00969595      -0.01076447
C        2.14840166       2.10517862      10.63044962      -0.00286780      -0.00837878      -0.01089673
C        4.49991258       2.52827345      10.32740706      -0.00148749      -0.01043763      -0.00072436
C        1.89880597       3.47323348      10.57888755      -0.00037633      -0.00766598      -0.00050151
C        4.25205586       3.89522488      10.28824360       0.00118388      -0.00985585       0.00934667
C        2.95007351       4.36616085      10.41567254       0.00173772      -0.00850359       0.00949988
H        3.64455218       0.56628881      10.53078300      -0.00533038      -0.01007263      -0.01833628
H        1.32740998       1.41065463      10.76117418      -0.00418483      -0.00801937      -0.01926795
H        5.51360395       2.16406390      10.21124359      -0.00201227      -0.01146446      -0.00092151
H        0.88325530       3.83798002      10.66148428       0.00021529      -0.00623798      -0.00014535
H        5.06844407       4.59693798      10.17803572       0.00247298      -0.01032606       0.01699132
H        2.77156014       5.43284726      10.40448138       0.00453534      -0.00815168       0.01716774
C        1.50550866       2.39359233       5.64163366       0.02217145      -0.01466112      -0.01108586
C        0.86042860       3.21626734       4.71784268       0.01672478      -0.01288101      -0.00552051
C        2.24490992       2.95526202       6.68190484       0.01867296      -0.01658664      -0.00739895
C        0.96407132       4.59841626       4.82789392       0.00766815      -0.01308483       0.00327826
C        2.36346010       4.33691170       6.77125980       0.00913919      -0.01641302       0.00144984
C        1.72909991       5.15626882       5.84303275       0.00307123      -0.01478098       0.00736972
H        1.37794364       1.31798084       5.59597400       0.03034264      -0.01504999      -0.02132200
H        0.20332534       2.78939841       3.96992620       0.01897676      -0.01174171      -0.00804044
H        2.70063408       2.32293602       7.43440927       0.02501550      -0.01761510      -0.01227382
H        0.41656956       5.24793899       4.15786576       0.00521609      -0.01265948       0.00607678
H        2.93118125       4.77465282       7.58324551       0.00914590      -0.01762648       0.00198357
H        1.80339950       6.23454490       5.91768380      -0.00426407      -0.01499265       0.01442839
C       11.28349094      12.54341372       8.06284031       0.00072150      -0.00788892       0.00522730
C       11.74533282      13.32839229       9.11367696      -0.00017232      -0.00192538       0.00099724
C       11.91503884      11.34336833       7.75993424       0.00203472      -0.00859156       0.01125979
C       12.84380005      12.91436663       9.85894147       0.00028460       0.00310710       0.00303496
C       13.01498045      10.93348141       8.50029830       0.00272016      -0.00340742       0.01307935
C       13.47973218      11.71827063       9.54844227       0.00188515       0.00267282       0.00886747
H       10.43455773      12.86919683       7.47379270       0.00017773      -0.01201617       0.00391129
H       11.25724437      14.26438919       9.35337809      -0.00090621      -0.00121406      -0.00377954
H       11.56405867      10.72768433       6.94463956       0.00208052      -0.01288374       0.01461054
H       13.20351785      13.52717802      10.67662127      -0.00073816       0.00725168       0.00020453
H       13.49943659       9.99904889       8.24870564       0.00403646      -0.00398754       0.01791726
H       14.34407323      11.40207354      10.11846101       0.00242101       0.00704940       0.01046690
C        6.44092081       8.84737450       6.38166650       0.00283573      -0.00157964      -0.00032212
C        7.40135398       7.89773636       6.05099693       0.00054470      -0.00441134       0.00141716
C        5.12509970       8.46179408       6.59755686       0.00128374       0.00235516      -0.00275274
C        7.05224214       6.55805692       5.93420258      -0.00365315      -0.00322177       0.00011563
C        4.77256342       7.12075262       6.49523073      -0.00267088       0.00347234      -0.00305748
C        5.73364333       6.17199126       6.16677649      -0.00509204       0.00078785      -0.00192175
H        6.72309476       9.88490448       6.49370827       0.00574618      -0.00243768      -0.00009544
H        8.43154975       8.19688503       5.91885652       0.00171274      -0.00756457       0.00353827
H        4.37071595       9.19305254       6.85604064       0.00314540       0.00466746      -0.00428917
H        7.81861459       5.83188398       5.68456819      -0.00579423      -0.00576916       0.00115462
H        3.74578528       6.83570720       6.67309521      -0.00388549       0.00687175      -0.00480644
H        5.45523181       5.12370238       6.10979497      -0.00824453       0.00178201      -0.00311144
C        3.11106609       4.72702535       2.11294494       0.00029303       0.01839388      -0.00514924
C        3.56951987       4.21286317       0.88797669      -0.00201383       0.01848817      -0.00640407
C        4.02007100       4.95193791       3.16544499       0.00189297       0.01590686      -0.00617924
C        4.93374781       3.92801347       0.71080188      -0.00261487       0.01674276      -0.00909883
C        5.38752407       4.67874071       2.97831386       0.00081557       0.01213446      -0.00783885
C        5.84084174       4.16306372       1.75566796      -0.00185755       0.01230848      -0.00891638
H        2.07303752       5.00624587       2.23980307       0.00100364       0.02079920      -0.00332084
H        2.89287993       4.08536804       0.05294196      -0.00379966       0.02058112      -0.00518978
H        3.67360209       5.39755106       4.08932268       0.00430626       0.01674071      -0.00562385
H        5.29052580       3.59713547      -0.25390661      -0.00156395       0.01786767      -0.00945802
H        6.09766895       4.91113887       3.76190414       0.00240327       0.01054466      -0.00882383
H        6.89773500       4.00031302       1.59844486      -0.00246133       0.01013278      -0.01017648
