197
Lattice="13.443872286035317 0.0 0.0 0.0 13.443872286035317 0.0 0.0 0.0 13.443872286035317" Properties=species:S:1:pos:R:3:forces:R:3 energy=-2357541.5 stress="-0.0006455631228163838 0.0004014782316517085 0.0007591691974084824 0.0004014782316517085 -0.00038706252234987915 -0.00014941178233129904 0.0007591691974084824 -0.00014941178233129904 -0.001236639218404889" pbc="T T T"
Md      10.05483324      11.59661976      -0.78701655       0.00121716      -0.00449291      -0.00584441
Md       5.38604125      11.84081549       3.84295873      -0.00974036      -0.00625713      -0.00196756
O        7.43548099       8.56462754      11.20545125       0.00241041       0.01302272      -0.01518050
O        4.70290862       9.19253212      11.06475680      -0.00100040       0.00090386      -0.00195080
O        5.72841354       7.26080437      12.74886943       0.01603660       0.00741798      -0.00521755
O        5.65413033       6.85214007      10.16956666       0.00510949       0.00464141      -0.00391316
Cr       5.93399187       7.92216864      11.31739771       0.00553149       0.00574958      -0.00802891
Cr       4.61373665      10.70779005      11.91732782      -0.00710392       0.00247288      -0.00369617
O        3.34638450      11.51758915      11.43385637      -0.00676739      -0.00511134       0.00080079
O        4.51798166      10.41444830      13.51409967       0.00211075       0.00254086      -0.00352871
O        5.97412170      11.54948679      11.63139712      -0.00654328       0.00755346      -0.00840348
O        9.02035494      11.40489146       6.32198960      -0.00950158       0.02470887       0.00788650
O        6.26591995      11.98402548       6.39517754      -0.01395927       0.01047079       0.00643198
O        7.62293979      11.97966092       4.11572280      -0.01138357      -0.00319493       0.00531453
O        8.13974301      13.86013015       5.91735875      -0.02065653       0.01760077      -0.01514752
Cr       7.87049146      12.29591755       5.71241706      -0.01354229       0.00861871       0.00176495
Cr       5.05312812      10.71342877       6.69735100       0.01705307      -0.01228964      -0.00826848
O        3.76170645      11.43395173       7.24796159      -0.02329075      -0.00366652       0.01180893
O        4.79736915      10.14656042       5.15032931       0.00304171       0.00166789       0.01295769
O        5.55635738       9.57544273       7.67126601       0.00501966       0.01204956       0.00595248
O       13.53543024       7.74081580       1.93728593      -0.01371813      -0.01058048       0.02123547
O       11.92016325       9.92286388       2.46667636       0.00063714      -0.00002709       0.00375622
O       12.15173772       7.75016568       4.17098297      -0.04117266      -0.00283170       0.00502086
O       10.94384242       7.37919529       1.85567160      -0.01455700       0.00878966      -0.01061475
Cr      12.14149510       8.12517495       2.61212129      -0.01841474      -0.00098801       0.00516623
Cr      11.69515437      11.61184686       2.36957387      -0.00723533      -0.00100368      -0.00001681
O       10.32157821      12.01770479       3.09990890      -0.01285040      -0.00691023      -0.00737691
O       12.90092796      12.39813566       3.02598421      -0.01387954       0.00429046       0.00236195
O       11.56455083      12.02247566       0.74338174      -0.00317513      -0.00511238      -0.00129175
O        8.75497142      11.75521483       1.05935118      -0.00721064       0.01151357      -0.01324081
C        7.35643294      11.42754665       0.95792416      -0.00658512       0.00547489      -0.00518838
C        7.04634268      10.19236237       1.77986715       0.00356850       0.00462019      -0.00301093
C        6.57252534      12.70170792       1.21986676      -0.00901634       0.00205427       0.00297832
H        7.20121452      11.16761992      -0.09020280      -0.01240650       0.00628826      -0.00438517
H        5.99232239       9.92856257       1.69175112       0.00283054       0.00375329       0.00825720
H        7.60940801       9.34444328       1.38630362      -0.00063691       0.00454110      -0.00866815
H        7.34554494      10.31215231       2.81891491       0.01367856       0.00594542      -0.00604825
H        5.49939865      12.54056472       1.13088065      -0.00908017      -0.00142390       0.00956838
H        6.84587589      13.44097418       0.46467917      -0.01682968       0.00519666       0.00351802
H        6.83297265      13.13621089       2.18766388      -0.00414766      -0.00030641       0.00256447
H        9.11271151      11.83294494       1.98533407      -0.00306582       0.00463393      -0.01357222
O        5.72975277       0.76920864       4.29517491      -0.01273537      -0.00314341      -0.02011743
C        4.58744662       1.61688422       4.57925856      -0.00599540      -0.00109598      -0.00329965
C        3.59336870       0.87282046       5.44861029      -0.00040984      -0.00449675       0.00084966
C        5.04041074       2.92932748       5.18185829       0.00628118      -0.00880218       0.00247526
H        4.14336878       1.80244179       3.59682357      -0.01555610       0.00907588       0.00300491
H        2.69081873       1.47032401       5.59388595       0.00680183       0.00044771       0.02242428
H        3.27782216      -0.06963256       4.98869771      -0.01462018       0.00466684      -0.00780788
H        4.01687553       0.64564848       6.42730587       0.01174395      -0.02150975      -0.00837931
H        4.18909412       3.60521535       5.27145080       0.00972700      -0.00808364       0.02456105
H        5.79196355       3.40922660       4.55529361      -0.00353056      -0.00294679      -0.00503434
H        5.46116072       2.78149029       6.17843260       0.02396003      -0.02146826      -0.00693300
H        6.45599869       0.93143881       4.92797675      -0.00517160      -0.00411636      -0.02696133
O        8.66828435       4.47269611       2.40341966       0.00095528       0.00245583      -0.00644335
C        7.56572717       3.74330789       1.86808704      -0.00156659       0.00711729      -0.00745547
C        6.33138034       4.61186015       1.68564495       0.00199956       0.01215822      -0.00618323
C        7.95686809       3.04918321       0.57380626      -0.00463128       0.00689176      -0.00830543
H        7.36182348       2.97979999       2.62632227      -0.00446121       0.00688607      -0.00850463
H        5.48801020       3.99833610       1.36076109      -0.00052378       0.01630744      -0.00722674
H        6.06215429       5.10379653       2.61946482       0.00420849       0.01178515      -0.00540547
H        6.48761549       5.38084342       0.92490419       0.00538215       0.01256782      -0.00498924
H        7.14083369       2.42831215       0.20035358      -0.00783908       0.01175688      -0.00932689
H        8.83254238       2.42051203       0.73428057      -0.00813477       0.00181351      -0.00920185
H        8.18904356       3.79284378      -0.19181224      -0.00061320       0.00650701      -0.00737806
H        8.86509660       5.22022401       1.82714900       0.00106241       0.00479928      -0.00319558
O       13.75084270       2.74043467       7.09191354       0.01189953      -0.00726783      -0.01150721
C       12.82447496       1.63726101       7.02077244       0.01374060      -0.00896463      -0.01005977
C       12.97782337       0.75726411       8.24774264       0.01442669      -0.00584671      -0.00802052
C       11.39858417       2.11467258       6.83726131       0.01321566      -0.01146686      -0.01253348
H       13.14373665       1.08527643       6.13439735       0.01529323      -0.01021618      -0.00860107
H       12.27608884      -0.07572470       8.20001294       0.01695931      -0.00793031      -0.00653737
H       13.98870767       0.36288512       8.33933561       0.01542053      -0.00327936      -0.00658347
H       12.75249857       1.33839584       9.14843881       0.01235442      -0.00478825      -0.00938562
H       10.73379789       1.28830473       6.58093356       0.01486640      -0.01372607      -0.00926489
H       11.33587415       2.86415193       6.04888016       0.01250182      -0.01502515      -0.01587747
H       11.01037623       2.56467488       7.75305517       0.01218588      -0.00782491      -0.01488948
H       13.49787570       3.29506669       7.83888722       0.01367366      -0.00923581      -0.00954640
O       10.85443748       0.23653597      11.80745104       0.01316579      -0.00771173       0.00243825
C       11.24483883       1.47330092      12.46694491       0.00547529      -0.00835399       0.00791648
C       12.74215435       1.50853795      12.63870446       0.00488657      -0.00366111       0.01128785
C       10.69685713       2.64035810      11.67073523       0.00295424      -0.00819200       0.01021612
H       10.76038811       1.41415325      13.44259927       0.00354154      -0.01328119       0.00666159
H       13.04067841       2.41563602      13.16499422       0.00012684      -0.00537570       0.01681790
H       13.07108486       0.64215358      13.20994528       0.00663908      -0.00529370       0.00757909
H       13.25545047       1.51184842      11.67624361       0.00661845       0.00253517       0.01229210
H       10.92200602       3.58323164      12.17000585      -0.00372954      -0.00905313       0.01464863
H        9.61691612       2.56490862      11.54592908       0.00379315      -0.01254869       0.00588148
H       11.15872366       2.67475788      10.67911168       0.00700724      -0.00210322       0.01230118
H       10.98468313       0.32939125      10.85756987      -0.01229188       0.00591697       0.00035709
O        8.81022289       3.96502899       7.40855784       0.00774536      -0.00654703      -0.00645411
C        9.24497045       4.82882719       8.46915758       0.00646152      -0.01289660      -0.00087550
C       10.56574875       5.49084242       8.12150164       0.00463134      -0.00734666       0.00234735
C        8.16503969       5.82984430       8.83785025       0.00434822      -0.01818419       0.00697385
H        9.38959126       4.14476686       9.31390370       0.00892017      -0.01845163      -0.00590581
H       10.94654933       6.06919572       8.95994525       0.00913229      -0.02060533       0.00953253
H       11.31711981       4.75761160       7.83145674       0.00291961      -0.00316472      -0.01255936
H       10.45076058       6.18924336       7.29134842       0.00153422       0.00524543       0.01352827
H        8.38582759       6.32365920       9.78382888       0.00594636      -0.02171178       0.00843020
H        7.20130766       5.33600418       8.94898172       0.00617957      -0.02162847       0.00738578
H        8.06812692       6.61310469       8.08242078      -0.00021431      -0.01497144       0.01102345
H        8.85761817       4.46709951       6.58928165       0.00408340      -0.00053452      -0.00254807
O       -0.10577341       4.89649229       5.27561289      -0.00976223      -0.00690709      -0.00228620
C        0.45821468       4.92524904       3.96917021      -0.00834519      -0.00231247      -0.00147885
C        1.67368716       5.83864807       3.92207730      -0.00937378      -0.00095487       0.00185191
C        0.78337137       3.51727329       3.48984478      -0.00603294      -0.00070441      -0.00468670
H       -0.30679342       5.36266467       3.32068358      -0.00823265      -0.00160700      -0.00097018
H        2.03435327       5.94758758       2.89790921      -0.00913913       0.00251403       0.00236724
H        1.40524578       6.82921212       4.28467098      -0.01027262      -0.00230230       0.00460718
H        2.47830938       5.43898753       4.54500113      -0.00921826      -0.00215023       0.00085496
H        1.17759839       3.53589992       2.47194658      -0.00842274       0.00190613      -0.00550811
H       -0.09972970       2.87685133       3.50971088      -0.00451234      -0.00265209      -0.00342852
H        1.54399628       3.06504357       4.13486099      -0.00330656       0.00004160      -0.00730106
H        0.19311122       4.10213544       5.74200638      -0.00361964      -0.00463349      -0.00277591
O        8.41946191      11.81609286      10.99006587      -0.00505701       0.01622762       0.00362623
C        8.35200020      12.09160354       9.56173304       0.00171009       0.01380229       0.00284484
C        7.17283121      13.00566635       9.28693439       0.00756437       0.01958248      -0.00180020
C        9.66170764      12.70542030       9.12772647       0.00557947       0.00741863       0.00532767
H        8.21324611      11.13392391       9.04871087      -0.00163083       0.01395065       0.00435573
H        7.21114242      13.37752316       8.26538211       0.00676280       0.01106453      -0.00463395
H        6.22698102      12.48889971       9.43653854       0.00460897       0.02666354       0.00544360
H        7.20651985      13.85730195       9.96900343       0.01535929       0.02483977      -0.00913048
H        9.72021161      12.71255399       8.04158887       0.01112660      -0.00204051       0.00564545
H       10.51396610      12.12110189       9.49056963       0.00258425       0.00874233       0.01449994
H        9.72534140      13.74165621       9.46949636       0.00644431       0.01053084      -0.00389835
H        7.47171862      11.63137496      11.27729197      -0.00499371       0.01532215      -0.00022390
O        3.74608137      11.36471884       2.29431119      -0.01005816      -0.01219842      -0.00102663
C        2.42172928      11.90434714       2.00486879      -0.00884658      -0.00845199       0.00228283
C        2.54903286      13.13716671       1.12756604      -0.00740553      -0.00087810       0.01349193
C        1.59923313      10.81159169       1.35576698      -0.00970107      -0.00149703      -0.00803894
H        1.99718492      12.17410139       2.97354118      -0.00993618      -0.01642792       0.00412220
H        1.56948208      13.60293144       1.01186336      -0.00673008       0.00155073       0.01848662
H        3.22689600      13.87112953       1.57324736      -0.00614224      -0.00600429       0.01991975
H        2.91607679      12.87015202       0.13449521      -0.00807797       0.00752561       0.01101831
H        0.63583911      11.20845224       1.04485939      -0.00968903       0.00223328      -0.00340107
H        1.43377250       9.97755739       2.03561513      -0.00992655      -0.00790782      -0.01604545
H        2.11129874      10.44260140       0.46702121      -0.01049417       0.00761615      -0.01226927
H        4.05835308      10.94045655       1.43071993      -0.00837041      -0.00632957      -0.00269515
O        2.21317441       2.69556560      11.91050520       0.00654574       0.00168943       0.00779909
C        2.35976892       4.00768274      11.34958912       0.00615697       0.00170195       0.00839289
C        1.11379573       4.84605822      11.59710438       0.00575888       0.00094447       0.00805636
C        3.61446292       4.68560434      11.85936566       0.00593191       0.00207657       0.00844195
H        2.45403802       3.82429186      10.27751252       0.00662239       0.00156705       0.00836909
H        1.20422793       5.82007197      11.11454972       0.00531077       0.00121051       0.00861108
H        0.22689657       4.34379518      11.20620337       0.00625056       0.00053604       0.00762375
H        0.96979173       5.01748890      12.66646990       0.00530773       0.00036318       0.00806892
H        3.78960191       5.63820033      11.36115709       0.00678512       0.00129583       0.00721158
H        4.49013150       4.05899532      11.69007888       0.00564867       0.00133307       0.01017614
H        3.53212814       4.89174047      12.93035397       0.00511441       0.00338309       0.00807126
H        2.38674163       2.76056656      12.85406394      -0.00356874       0.00371370       0.01007460
O        2.79965588       8.00032323       8.33669044       0.00214732       0.00591314       0.00415611
C        2.85645445       6.89223252       7.44433577      -0.00146711       0.00527138       0.00395635
C        4.17375422       6.85459930       6.68661378      -0.00352204       0.00418109       0.00107193
C        2.61886672       5.58183600       8.18343091      -0.00174361       0.00594777       0.00498849
H        2.02702439       7.04734642       6.74960501      -0.00303781       0.00683773       0.00641888
H        4.22303947       5.97420245       6.04337556      -0.00713759       0.00541125      -0.00124484
H        4.29394004       7.74314773       6.06701643      -0.00306508       0.00500664       0.00255774
H        5.00575358       6.80153624       7.39482485      -0.00166377       0.00087674      -0.00143446
H        2.55983358       4.74508148       7.48200163      -0.00328009       0.00571133       0.00506029
H        1.68199594       5.63370953       8.73862693      -0.00069419       0.00673160       0.00640131
H        3.43670332       5.39620382       8.88325766      -0.00083847       0.00510900       0.00362276
H        3.65239106       8.08796589       8.77989224       0.00248268       0.00323842       0.00391765
O        9.56431328       9.32758706      12.40147792      -0.00038058      -0.00157674      -0.00990164
C       10.72274653       9.16593500      11.56541575       0.00084424      -0.00490198      -0.00765732
C       11.92475389       8.98417962      12.46602378      -0.00086081      -0.00336979      -0.00505680
C       10.53228848       8.07493594      10.54555361       0.00136037      -0.00866097      -0.00377357
H       10.86099315      10.12381454      10.99743965       0.00261884      -0.00701070      -0.01031707
H       12.84120190       8.94566886      11.87646308       0.00002159      -0.00663955      -0.00340515
H       12.02965887       9.80490620      13.18234738      -0.00067245      -0.00097820      -0.00782017
H       11.82494524       8.06907067      13.05003307      -0.00327696      -0.00116679      -0.00203939
H       11.40105160       8.01425057       9.89099951       0.00109710      -0.01004858      -0.00397941
H        9.65078361       8.26191726       9.93393525       0.00105751      -0.01164217      -0.00412187
H       10.40382360       7.12166230      11.06077315       0.00265660      -0.00691243      -0.00036702
H        8.71585441       9.02267279      11.91990945      -0.00134999       0.00232798      -0.01231845
O        7.72643786       8.21838750       6.22716956       0.01327160      -0.00673521       0.01477927
C        8.20402362       7.26785598       5.27577350       0.00546486      -0.00034177       0.00585258
C        7.28557683       6.05991534       5.17252970       0.00208825       0.00224471       0.00215826
C        8.42200643       7.90017349       3.91415632       0.00121395       0.00698352       0.00835907
H        9.18186661       6.96023594       5.66064397       0.00652230      -0.00567988      -0.00062487
H        7.73215931       5.30752258       4.51870940      -0.00154805       0.00363129      -0.00169523
H        7.07754284       5.62467287       6.15041534       0.00313808      -0.00091615       0.00096387
H        6.33266262       6.35963444       4.72725315       0.00188644       0.00681987       0.00590280
H        9.02712469       7.25219818       3.27934610      -0.00436120       0.00851783       0.00169608
H        8.94780744       8.84976508       4.01669662       0.00478537       0.00470440       0.01066940
H        7.46168329       8.07321788       3.42547566      -0.00029731       0.01360647       0.01399068
H        6.76372590       8.22749089       6.23309339       0.01293856       0.00978968       0.00604066
O       12.17311313       8.28089377       7.09710453       0.01622467      -0.00073099      -0.02022059
C       12.02657948       9.69420957       7.21480855       0.00668693      -0.00395739      -0.00442261
C       12.97511808      10.17044720       8.30408486       0.00941676      -0.01343140      -0.00316906
C       12.27410939      10.39531437       5.89195913      -0.00305855       0.01239726       0.00277132
H       10.99264811       9.91480224       7.52438053       0.00663769      -0.01246540       0.00222030
H       12.87933662      11.24898942       8.44034917      -0.00086267      -0.01734726       0.01917187
H       12.75079107       9.68742900       9.25628585       0.02166750      -0.03576189      -0.01203075
H       14.00912831       9.93584886       8.04915735       0.01023278       0.00195283      -0.01461782
H       12.15920024      11.47570404       5.99221800      -0.00281760       0.01109578       0.01553162
H       11.56089936      10.05754934       5.14167513      -0.00850962       0.02025612       0.00460514
H       13.27996668      10.17753132       5.52743058      -0.00527236       0.01705525      -0.00554584
H       12.14150073       8.03406130       6.15975153      -0.00657105       0.00486237      -0.02156213
