199
Lattice="19.396305297599522 0.0 0.0 0.0 19.396305297599522 0.0 0.0 0.0 19.396305297599522" Properties=species:S:1:pos:R:3:forces:R:3 energy=-2034118.125 stress="4.385190550237894e-05 3.67392240150366e-05 -9.540377504890785e-05 3.67392240150366e-05 -0.00014007146819494665 3.9862783523858525e-05 -9.540377504890785e-05 3.9862783523858525e-05 -7.401645416393876e-05" pbc="T T T"
Na      -0.13324483      15.75411296      11.27211380       0.01191473       0.00021915       0.01569620
Na       9.58111747      15.32864684       6.48117304      -0.00357263      -0.02654963      -0.00350891
S       17.17558200       2.71350384       0.70168912       0.00421862       0.00472796      -0.00007279
S       17.85286046       0.96495703       0.50716782      -0.00172413      -0.02594594      -0.00163322
Cl       5.04298459      13.35110402       5.95280697      -0.00067578      -0.00181746       0.00503178
Cl       4.99305333      12.31157899       3.24192164      -0.00334917      -0.00054954       0.00398603
Cl       5.44266513      10.52439899       5.48217310       0.00113436      -0.00140506       0.00257896
Cl       7.49748881      12.41541133       4.69391884      -0.00207326       0.00099942       0.00070247
C        5.73216540      12.14135596       4.83222953      -0.00183457      -0.00081747       0.00311500
Cl       6.60669212       8.81412723       2.37773280       0.00108340       0.00088714      -0.00118905
Cl       4.84467222       9.70106192       0.25075578      -0.00138843      -0.00628519      -0.00202671
Cl       6.99331157       7.83722409      -0.32847384       0.00368937      -0.00053912      -0.00067973
Cl       7.60066367      10.59735835       0.31829752      -0.00318903       0.00113887      -0.00220022
C        6.50719881       9.23661714       0.65467532      -0.00001645      -0.00114294      -0.00161059
Cl       0.70459148       5.82606658      17.41280567      -0.00033283       0.00246389       0.00546420
Cl      -0.74399617       8.33876822      17.49878433       0.00123646       0.00456887      -0.00328016
Cl      -2.06916098       5.92619484      16.57617132       0.00515091       0.00569683      -0.01025687
Cl      -0.01645078       7.17567956      14.94656104       0.01780988       0.00444145       0.00254121
C       -0.53091000       6.81858674      16.60513221       0.00580072       0.00459417      -0.00176337
Cl      12.31420608      19.42746621       2.57474798       0.00198653      -0.00412190       0.00253890
Cl      12.37618722      16.95040320       1.07088201       0.00385353      -0.00284071       0.00005123
Cl      14.19089745      17.33312832       3.30173155       0.00464432      -0.00243656      -0.00081450
Cl      14.57506211      18.83606152       0.84759531       0.00120792       0.00049785      -0.00013989
C       13.37022577      18.13654990       1.94580338       0.00213921      -0.00268537       0.00105929
Cl       2.36294514      19.50630542       2.93630464       0.00706614      -0.00670063       0.00094946
Cl       3.43868334      16.81102424       2.97301663      -0.00083280      -0.00839335       0.00812428
Cl       1.21232828      17.51025576       4.69800820       0.00245963      -0.00256808      -0.00138386
Cl       3.86295045      18.57477788       5.23963405       0.00411645      -0.00695203       0.00790298
C        2.71995530      18.09872243       3.96208989       0.00549407      -0.00401798       0.00552604
Cl       7.62657898       2.90764689       3.07432958       0.00682269      -0.00001446       0.00149700
Cl       6.52372866       3.99145706       0.62777481      -0.00150172       0.00355485       0.00661932
Cl       5.55426421       1.45154615       1.65827160       0.00220588       0.00233522       0.00590187
Cl       8.21825594       1.63449296       0.52708662      -0.00100577       0.00401707      -0.00200927
C        6.98367158       2.49659737       1.46701296       0.00182777       0.00247300       0.00314026
Cl      16.12288369       2.18451148       9.27872199      -0.00119908      -0.00673239       0.00453991
Cl      16.11401189       4.12511870      11.43439578       0.00302973      -0.00285925       0.00097209
Cl      14.54511897       1.69173729      11.65845878      -0.00612453       0.00292370       0.00393130
Cl      13.74240747       3.75985921       9.79661833       0.00397980       0.00243030      -0.00125825
C       15.13183565       2.94175716      10.54444249       0.00009849      -0.00138813       0.00241641
Cl       6.27472538      -0.56111457      16.72144591      -0.00520243       0.00423849      -0.00176030
Cl       8.25698802       1.26211382      15.63743720      -0.00612986       0.00511610      -0.00196161
Cl       5.77228962       2.29367787      16.72580516      -0.00465108       0.00422433       0.00197807
Cl       5.76405041       0.82498086      14.21945891      -0.00805640       0.00683426       0.00046113
C        6.51930854       0.95592383      15.82829364      -0.00589503       0.00513471      -0.00046728
Cl       1.48017151      11.44489425       1.88979177      -0.00334777      -0.00099593      -0.00209376
Cl      -0.22460368       9.49406778       3.19126066      -0.00168073       0.00602098       0.01144739
Cl       1.50542724      11.20029754       4.78298058       0.00613162       0.00680794      -0.00122336
Cl       2.64476066       9.09831257       3.14246933      -0.00266066       0.00029722       0.00011705
C        1.35073146      10.30037481       3.24589150       0.00009391       0.00317985       0.00173315
Cl       2.52221442       4.74420343       5.51621115       0.00246695      -0.00516436       0.00031427
Cl       3.64173066       5.61607501       8.04492167      -0.00111796       0.00157815      -0.00118104
Cl       1.84327731       7.35472825       6.57990122      -0.00015533      -0.00279757      -0.00643874
Cl       4.51579456       6.85382531       5.56657036       0.00111166      -0.00325887      -0.00330773
C        3.12264195       6.13980227       6.43161293       0.00077938      -0.00219744      -0.00287176
Cl      15.86306969      14.94227323       0.52139340       0.00271276      -0.00467017       0.00153571
Cl      18.65148598      14.26539384       0.10209955       0.00405338      -0.00220874       0.00671968
Cl      17.05438028      12.72156150       1.97367662       0.00291891      -0.00159878       0.00631642
Cl      17.81036855      15.44814734       2.61676338      -0.00094069       0.00014177       0.00383332
C       17.34673808      14.33955862       1.30160752       0.00209961      -0.00228570       0.00464684
Cl       3.78461123       8.77863668      13.91342415      -0.01197365      -0.00303791       0.00260365
Cl       4.45300021       7.26654668      16.29620071       0.00335827       0.00203773       0.00264002
Cl       2.66682739       9.54314582      16.47887188       0.00072739       0.00206961       0.00272982
Cl       5.48816059       9.95698170      15.94418537      -0.00026220       0.00025263      -0.00563221
C        4.09757273       8.88470614      15.65612443      -0.00158784       0.00002452       0.00058187
Cl       7.88365272      16.79852345      10.96957712      -0.00533775       0.01551231      -0.01104310
Cl       5.88565883      17.15872574       8.89559023      -0.00100910       0.01399936      -0.02074801
Cl       7.75005218      14.92967387       8.75817028      -0.00869501       0.00661299      -0.00493956
Cl       8.68924141      17.65189904       8.31865279       0.00603999      -0.00642019      -0.01080982
C        7.54204652      16.65067983       9.26104346      -0.00479093       0.00842334      -0.01081359
Cl      16.59655148       9.66929645      10.37189388       0.00726148      -0.00097100      -0.00001047
Cl      15.35609714       8.08495308      12.45982482      -0.00259033       0.00949904       0.00218064
Cl      14.98586562       7.35954537       9.67208428       0.00480020      -0.00099349       0.00409886
Cl      13.71224235       9.73743546      10.72678990       0.00614178       0.00560027      -0.01003493
C       15.16515679       8.70309435      10.80804285       0.00383453       0.00353578      -0.00096751
Cl      10.33490290      10.22470560       9.42779174      -0.00695764       0.00578196       0.00165716
Cl      10.47140343      12.39317627       7.50686955      -0.00250797       0.00225728      -0.00111805
Cl       7.89569507      11.56616109       8.62252667      -0.00695016       0.00113717      -0.00051773
Cl       9.29792370       9.84039659       6.75582615       0.00236145       0.00910443      -0.00479700
C        9.48035067      10.98054975       8.08237881      -0.00549527       0.00421703       0.00018433
Cl       0.98544613       1.24532334       6.70714236       0.00457618      -0.00737058       0.00888446
Cl       0.83383582       3.19834463       8.84136537       0.00571527       0.00144631       0.00104862
Cl       3.07824977       1.36757495       8.70874080       0.01059702       0.00683288       0.00158530
Cl       0.43062232       0.39594284       9.42859392       0.01564026       0.00298774       0.01368636
C        1.34027735       1.56101394       8.40735547       0.00914780       0.00103412       0.00666274
Cl      15.74079040       2.93028008      14.92796551       0.00053364       0.00589167      -0.00247285
Cl      13.58950686       1.13458010      15.67336342      -0.00108880       0.00937212      -0.00315920
Cl      14.53500787       3.13404042      17.55540084       0.00453883       0.00191391       0.00085521
Cl      16.20436412       0.86037992      16.91109073       0.00134513       0.00242963      -0.00694790
C       15.01452470       2.01641156      16.26449277       0.00068510       0.00530117      -0.00359172
Cl      13.17717597      13.37150880       2.43134127      -0.00507840      -0.00767006      -0.00441477
Cl      10.51060612      12.65413854       3.31890700      -0.00285786      -0.00654335       0.00334248
Cl      12.21151459      14.34699903       4.97936344      -0.00349306       0.00221734      -0.00659420
Cl      12.83749905      11.52802922       4.63844446       0.00157252       0.00215821       0.00426951
C       12.18936794      12.94445950       3.81887674      -0.00209276      -0.00284742      -0.00084782
Cl       5.82841724       5.38665588      12.56147872      -0.01062885       0.01088277      -0.00450359
Cl       8.71282778       5.20606446      12.32837914      -0.01013029      -0.00589487       0.00398621
Cl       7.50452545       7.34875655      13.87705851      -0.00253718       0.00436175      -0.00330633
Cl       7.28212262       7.34737265      10.98694395       0.00245007      -0.00260925      -0.00370720
C        7.33807609       6.31940590      12.43739761      -0.00474242       0.00143628      -0.00106211
Cl      10.40015235      16.42748834      16.08473383       0.00648797       0.00063211      -0.01368185
Cl      11.85743343      14.19198456      14.94003959       0.00349599      -0.01086336       0.00531802
Cl      12.96397581      15.64932774      17.19434210       0.01160118       0.00689728      -0.01213390
Cl      12.83662565      16.89844937      14.57991607       0.00125845      -0.00786571      -0.01719931
C       12.01179398      15.78222018      15.70436612       0.00552961      -0.00377756      -0.00971362
Cl      15.08055989      12.38413800      12.64575068      -0.01195945      -0.00204362       0.03633258
Cl      17.69334132      13.47895701      12.05654985      -0.00595179      -0.02021176       0.00410235
Cl      16.05878260      14.65836237      14.15876829       0.01252613       0.00326531       0.00560167
Cl      15.27512251      14.98128185      11.38489792       0.00631694      -0.01645630       0.00221842
C       15.98318470      13.87799332      12.57725294      -0.00069299      -0.01022604       0.01237051
Cl      15.10255630       7.40969294       2.95087447       0.00278951      -0.01332236      -0.00661969
Cl      17.25826503       6.57106987       1.20182851       0.00471762      -0.00588611      -0.00399717
Cl      16.21259885       9.27073126       1.03477407       0.00127611      -0.00793359      -0.00465365
Cl      14.60923465       7.02657404       0.11760573       0.00401986      -0.00701933      -0.00765422
C       15.79054988       7.56989502       1.32883720       0.00303329      -0.00841607      -0.00578642
Cl      11.48137576       4.67713636      15.68898414       0.00268666       0.00265387       0.00204849
Cl      13.75876785       6.48053759      15.60442257       0.00077039       0.00462760      -0.00306311
Cl      11.22298702       7.29020023      14.45969649      -0.00224069       0.00098580       0.00075511
Cl      12.79971887       5.22931614      13.16586351      -0.00095390       0.00307089      -0.00101864
C       12.31454858       5.92215854      14.72983887      -0.00006573       0.00257621      -0.00055707
Cl      15.38384119       9.60467577      16.75393802       0.00412917       0.00054133      -0.00447223
Cl      12.91391422      10.55380728      15.56527140       0.00798965      -0.00060873      -0.01223111
Cl      14.81197976      12.43788617      16.70608703      -0.00077310      -0.00027090       0.00259381
Cl      13.28286066      10.69316600      18.43995986      -0.00492620      -0.00803663      -0.01010501
C       14.09679284      10.81865724      16.86685870       0.00185415      -0.00208218      -0.00581115
Cl      16.74510986      -0.28491748       5.85183649       0.00358052      -0.00195271       0.00292598
Cl      15.47073688       1.41105355       3.86499928       0.00792214      -0.00065453       0.00057918
Cl      18.34722167       1.11273779       3.87923447       0.00771269      -0.00412746       0.00500643
Cl      17.03242177       2.59903332       5.98997468       0.00613899      -0.00264013       0.00317115
C       16.89434532       1.21616960       4.89963683       0.00599372      -0.00242987       0.00373149
Cl      17.82878949       5.53405184       7.72855227      -0.00423525      -0.01046550       0.00278687
Cl      18.01495778       5.93628484       4.85955469       0.00155523       0.00143555       0.00391206
Cl      17.43459996       8.17268129       6.59975297       0.00544249      -0.00567335       0.01381475
Cl      15.43911787       6.10064254       6.19893994       0.00036567       0.00054871       0.00044227
C       17.18431278       6.43323728       6.33989656       0.00069141      -0.00340146       0.00516794
Cl       2.58441642      16.24693512      14.62774463       0.00293767      -0.00368478       0.02037138
Cl       0.49266150      14.29568116      15.09768015       0.00451062      -0.01159898       0.00185939
Cl       3.28022364      13.48914343      15.23059193       0.00657980      -0.01350779      -0.03677224
Cl       2.09189148      14.15357157      12.66814527      -0.01533576       0.03268089      -0.01212415
C        2.12488928      14.54749121      14.44419357      -0.00089796       0.00086144      -0.00472480
Cl       6.20944810      13.39795392      12.04364206      -0.01122773       0.00787953       0.00820769
Cl       9.08695530      13.28965270      12.40906263      -0.00248826       0.00108631      -0.00798135
Cl       7.48975872      10.88572220      12.74444203      -0.00233300       0.00354260      -0.02235436
Cl       7.32500544      13.02945005      14.70008572       0.00028428      -0.00726873      -0.00621641
C        7.53101014      12.63887956      12.97621343      -0.00322590       0.00178850      -0.00789070
Cl       2.86630309       4.18434399      14.47790813       0.00414146       0.00059781       0.00485998
Cl       1.82144530       5.20039127      11.97051863       0.00954675       0.00028512       0.00218907
Cl       0.12518797       3.62413616      13.72244849       0.00070006       0.01529869       0.00787044
Cl       2.31697346       2.36264723      12.29036252      -0.00758456      -0.00095731       0.00912744
C        1.78747231       3.84220806      13.11864449       0.00152039       0.00386196       0.00611999
Cl       9.02181007       2.86132083       7.91561340      -0.00250119       0.00407353       0.00881432
Cl       6.82833684       4.11253892       6.48285473      -0.00115606      -0.00001618       0.00229350
Cl       6.59220536       3.58700668       9.32352692      -0.01041768      -0.00871387      -0.00032657
Cl       6.57329166       1.38259297       7.42993476       0.00571314      -0.00361553      -0.00768346
C        7.25572322       2.99720760       7.78787313      -0.00214110      -0.00207598       0.00062082
Cl      13.58813915      18.97588696       8.27488725      -0.00829190       0.00575495      -0.01413185
Cl      14.30700723      16.49806901       6.96317755       0.00835872       0.00359647      -0.00154147
Cl      11.73843289      17.73020529       6.40820971      -0.00067209      -0.01842919      -0.00571837
Cl      12.24046819      16.49876763       8.99467331       0.01203650       0.00009335       0.00127156
C       12.99332268      17.43556556       7.67262167       0.00228290      -0.00217766      -0.00493952
Cl      10.31306317      -0.62284273      12.91721960      -0.01067337       0.00288665       0.00331897
Cl      11.02539220       0.67680164      10.42432201      -0.00415918      -0.00245948       0.00235885
Cl      10.85170736       2.22089011      12.87276089      -0.00175285       0.00136429       0.00027677
Cl       8.43977337       1.18798072      11.63829177      -0.00362745       0.00722405      -0.00070710
C       10.14901191       0.86800574      11.96422021      -0.00508830       0.00224203       0.00115987
Cl       0.69647393      14.23955990       6.50670183      -0.00186481      -0.00001641       0.00417291
Cl       1.16986520      13.84863161       9.34359030      -0.00812072       0.00194392       0.00605470
Cl       0.21915412      16.42255068       8.36969385      -0.01214607      -0.00013760       0.00280675
Cl       2.92845094      15.56865643       7.80261548      -0.00945240       0.00620002       0.01191781
C        1.26519490      15.01255298       7.96791586      -0.00849971       0.00235758       0.00548148
Cl       2.43540236       0.34141265      15.58740335      -0.01641022      -0.00053771      -0.00377330
Cl       0.46476349      -0.96560408      17.27336246      -0.02144498       0.00967111       0.01040442
Cl       0.63164378       1.93125738      17.20358483       0.00535706       0.01116419       0.00600603
Cl       2.73263750       0.39287361      18.47323285      -0.00052652      -0.00795564      -0.01114798
C        1.56957133       0.43062282      17.13723549      -0.01014733       0.00110294      -0.00118479
Cl      16.00466576      13.72201324       5.86788160      -0.00003254      -0.00513679      -0.00850523
Cl      17.06258885      13.01401077       8.47503116       0.00555944       0.00154525      -0.00859553
Cl      15.82529238      10.98933677       6.81042648       0.00318027      -0.00314265      -0.00414272
Cl      14.19395181      13.03259371       8.05369509       0.00429475      -0.00207829      -0.00522900
C       15.76326379      12.68663565       7.29520073       0.00390643      -0.00237843      -0.00599980
Cl       2.10656481      10.47061206       8.43951958      -0.00069720       0.00089996      -0.00184900
Cl       3.66562357      11.14345994      10.79539409      -0.00713503       0.00081599       0.00214356
Cl       4.70236865       9.25055454       8.86096362      -0.00111908       0.00225911       0.00381246
Cl       2.46249516       8.51609838      10.55131321      -0.00484645       0.00012174      -0.00193876
C        3.23524475       9.84042721       9.65838022      -0.00345927       0.00112656       0.00050730
Cl       8.88916590       6.74662205       4.67021268       0.00035715       0.00486869       0.01133186
Cl       9.72214651       6.19749447       1.94490050      -0.01336345       0.00301893       0.00728559
Cl      11.68171655       6.22877795       4.08537351      -0.00385314      -0.00210945      -0.00203344
Cl      10.45326888       8.70841201       3.20423465      -0.00246117       0.00107384       0.00260764
C       10.18983450       6.96662467       3.46799301      -0.00491266       0.00163025       0.00504927
Cl      15.98410967      18.40127580      13.55271085       0.01938766      -0.01084670       0.02524260
Cl      18.70338114      17.38962142      13.58231948       0.02081969       0.00833902      -0.01213771
Cl      18.19356119      20.13651143      12.82979255      -0.00132883       0.00853038       0.00162128
Cl      17.38711397      17.98929947      11.04203521      -0.00792193       0.00996549       0.00596315
C       17.54636932      18.51658681      12.77083360       0.00727579       0.00466639       0.00342691
Cl       7.06061440      16.26992967       5.09341611      -0.00683758      -0.01028067      -0.01116985
Cl       9.64532952      16.52543336       3.78795206      -0.00568575       0.00277263      -0.00184952
Cl       7.99595305      18.88356935       4.21140192      -0.00996268      -0.00146556       0.01250252
Cl       7.20348911      16.89257239       2.26244686      -0.00196624       0.01540896      -0.00621432
C        7.96050542      17.17350119       3.82344192      -0.00626633       0.00154512      -0.00156927
