187
Lattice="13.741075199774595 0.0 0.0 0.0 13.741075199774595 0.0 0.0 0.0 13.741075199774595" Properties=species:S:1:pos:R:3:forces:R:3 energy=-204649.625 stress="-2.6419942514621653e-05 0.00023168220650404692 -0.00046438490971922874 0.00023168220650404692 -0.0007612695917487144 -0.00036601105239242315 -0.00046438490971922874 -0.00036601105239242315 -0.0006656858022324741" pbc="T T T"
Na       9.20370334      12.84883563       4.82888748      -0.01247245      -0.00881785      -0.03373637
Na       1.51496214      14.95977692       3.92847311       0.01685941       0.00306129      -0.00944512
O       13.48298488       0.23006017       2.91725260       0.00468946       0.02900827      -0.01326704
O       13.44596708       1.64204678       5.27960740       0.01467359       0.01760662      -0.03054380
O       10.98139377       0.11287278       4.50828298      -0.00144148      -0.00070441       0.01220024
O       11.84127282       2.55677678       3.12222784       0.03325611      -0.01806152       0.00494778
Mo      12.36681642       1.13536126       3.96345752      -0.01103808       0.03292838      -0.02547196
O        9.44042382      10.88530119      11.11235777       0.00178545      -0.00116265      -0.00274442
C        8.41878294      11.82343681      11.37058060      -0.00189930      -0.00470388      -0.00424130
C       10.70888291      11.49134474      10.94383383       0.00062746       0.00280070       0.00347960
C        7.12358363      11.07996435      11.58854905      -0.00003466      -0.00855649      -0.00768774
C       11.69722614      10.41981997      10.55956890       0.00458261       0.00686613       0.00317430
H        8.67519189      12.42684635      12.25486097      -0.00576551      -0.00491853      -0.00298855
H        8.33137518      12.52062365      10.52147342      -0.00214590      -0.00398758      -0.00363904
H       10.65044719      12.26450272      10.16038044       0.00128853       0.00528273       0.00592953
H       11.00922075      11.99725492      11.87390993      -0.00391211       0.00014779       0.00623673
H        6.31032380      11.78177221      11.78062414      -0.00193201      -0.01086184      -0.00840722
H        6.87763113      10.48315848      10.71005596       0.00313739      -0.00839084      -0.00868087
H        7.21098410      10.41138256      12.44576573      -0.00003427      -0.00920630      -0.00809006
H       12.69052158      10.84660585      10.41930556       0.00451306       0.00968216       0.01073233
H       11.74833755       9.65649766      11.33644299       0.00219296       0.00303604      -0.00071502
H       11.39972152       9.94381207       9.62624727       0.01084553       0.01137392      -0.00097418
O        5.30534358       1.75905756      10.45239452      -0.00258121      -0.00257960      -0.00219088
C        4.62235571       0.63537393       9.92138385      -0.00070333      -0.00346104      -0.00219482
C        6.64409517       1.44606122      10.78675206      -0.00103214       0.00161541      -0.00530234
C        3.22745769       1.04717770       9.52259263      -0.00065067      -0.00608446      -0.00373762
C        7.34243510       2.69643616      11.25626950      -0.00409561       0.00272119      -0.00490317
H        5.17674358       0.24983562       9.05246403       0.00033709      -0.00210938      -0.00320739
H        4.59375011      -0.16997409      10.67043507       0.00111456      -0.00399140      -0.00346509
H        6.66318480       0.66961357      11.56761824       0.00332016       0.00027934      -0.00662127
H        7.15307150       1.02720586       9.90489948      -0.00146613       0.00455432      -0.00710353
H        2.70777354       0.21057595       9.05476550       0.00045469      -0.00623979      -0.00287828
H        2.65422935       1.36281723      10.39298027      -0.00188519      -0.00690192      -0.00218025
H        3.26336233       1.87564817       8.81455419      -0.00231706      -0.00571060      -0.00208423
H        8.39261025       2.49236771      11.46701217      -0.00271198       0.00735673      -0.00965817
H        7.29706358       3.47355486      10.49332529      -0.00991210       0.00428692      -0.00325961
H        6.88064618       3.08106841      12.16637075      -0.00300629      -0.00057898      -0.00283670
O       12.36390248       9.41658904       7.13066396       0.00523531       0.00360802       0.00262311
C       12.61014722      10.05242941       5.88895293       0.00394553       0.00152922       0.00119688
C       12.48710263       8.01032187       7.04140136       0.00312177       0.00311735       0.00421804
C       12.65617004      11.54109291       6.10087485       0.01284916       0.00141591       0.00170422
C       12.36314335       7.41832244       8.42214567       0.00482354       0.00569862       0.00559175
H       13.56251498       9.69087955       5.47447787       0.00078255      -0.00406907      -0.00153324
H       11.82497666       9.77216021       5.16645873       0.00031647       0.00533710       0.00475234
H       11.71803492       7.60358637       6.36556717       0.00172934       0.00242648       0.00645196
H       13.46220395       7.75900191       6.60027055       0.00196391       0.00135721       0.00314632
H       12.79781207      12.06169079       5.15411526       0.00971750       0.00175862       0.00057241
H       11.72350618      11.90343040       6.53429093       0.01599732       0.00766061       0.00269987
H       13.46466902      11.80559281       6.78270888       0.01620550      -0.00269869      -0.00274146
H       12.55799214       6.34760395       8.38538333       0.00501175       0.00544794       0.00709647
H       13.08617208       7.87898307       9.09590639       0.00516389       0.00700456       0.00350447
H       11.36429942       7.57470434       8.83280678       0.00529221       0.00600470       0.00645608
O        3.45421392       9.14287203       6.27409912       0.00483537      -0.00124294       0.00253999
C        3.59751217       9.87663951       5.07222498       0.00756210      -0.00378084       0.00065212
C        2.75998990       7.93095510       6.05071848       0.00407802      -0.00225842       0.00449640
C        4.43105448      11.10851233       5.33120293       0.00886884      -0.00293693      -0.00634062
C        2.58676428       7.21156386       7.36513753       0.00262938       0.00060001       0.00580931
H        4.06596076       9.25063659       4.30359076       0.00315076      -0.00990409       0.00221211
H        2.60568902      10.15540944       4.68747888       0.00817078      -0.00083965       0.00253015
H        1.78133764       8.14540584       5.59264955       0.00419247      -0.00585607       0.00220139
H        3.31932489       7.30938046       5.33403881       0.00586832      -0.00300443       0.00717834
H        4.53733460      11.67037804       4.40144278       0.00213778      -0.00366279      -0.00868222
H        3.95919500      11.74422524       6.08231548       0.01003595      -0.00191396      -0.00682579
H        5.42813218      10.83451160       5.68619761       0.00737298      -0.00114242      -0.00236691
H        2.03874852       6.27958082       7.21678445       0.00460269      -0.00097600       0.00696182
H        3.55775258       6.97663376       7.80216162       0.00254455       0.00425729       0.00740580
H        2.03232060       7.83249464       8.06969974       0.00112906       0.00220250       0.00291614
O        9.58327564       1.32671161       1.54395112       0.00093886      -0.00490564      -0.00667426
C        9.99132116       0.96770589       0.23993701      -0.00360918      -0.01034666      -0.00703371
C        8.21097310       1.19190736       1.78953070       0.00383568      -0.01276122       0.00149637
C       11.49788980       1.03917381       0.18495975      -0.00522476       0.00011718      -0.01418817
C        7.99907074       1.53948370       3.25227502      -0.00259348       0.01260731      -0.00746983
H        9.63587991      -0.04799270       0.00704117       0.00198740      -0.01412392      -0.00003930
H        9.53043958       1.64887716      -0.49228599      -0.01166065      -0.01829433      -0.00994119
H        7.62198615       1.85475913       1.13245845      -0.00366950      -0.03292763      -0.01041317
H        7.88752156       0.15793012       1.57035571       0.00978573      -0.01860270       0.02339234
H       11.84820361       0.84050393      -0.83013847      -0.00608454      -0.00126962      -0.01309432
H       11.83588758       2.02423602       0.50653190      -0.01119764       0.00330734      -0.01840313
H       11.94917197       0.31574906       0.86486832       0.00274604       0.00695403      -0.01220630
H        7.04881225       1.15739997       3.63251162      -0.00143060       0.01506472      -0.00492721
H        8.85086732       1.14481776       3.81375140      -0.00613579       0.03012220       0.00802845
H        8.02701159       2.61708024       3.41174240      -0.01459408       0.01437816      -0.02867994
O       10.69807321       3.25798192       6.31291302       0.00130007       0.00060768       0.00367123
C       11.72111793       4.19157780       6.62307727       0.00141937       0.00031736       0.00544640
C       10.26950407       2.55871270       7.45875445      -0.00473288       0.00113726       0.00117717
C       12.22316534       4.83096490       5.35430261      -0.00200607       0.00379708       0.00710559
C        9.31837453       1.47220959       7.01429444       0.00172129      -0.00507963       0.00318656
H       11.31324272       4.94367959       7.31711933       0.00529188      -0.00191864       0.01076838
H       12.54112248       3.66541140       7.13104097       0.00202879      -0.00268540       0.00284487
H       11.13697340       2.11336148       7.96741618      -0.00726217       0.00130129       0.00910904
H        9.78225074       3.24721541       8.16956982      -0.00462055       0.00201809      -0.00171444
H       13.03828171       5.51904918       5.58580113       0.00083783      -0.00026426       0.00318290
H       12.57766088       4.06363283       4.66943840      -0.01106711       0.00420114       0.00030720
H       11.43256931       5.38606137       4.85050779      -0.00393590       0.00881176       0.01402660
H        8.99796145       0.86340607       7.86187339      -0.00132161       0.00622512       0.01123872
H        8.43794054       1.90358743       6.53469423      -0.00104940      -0.01391090      -0.00273666
H        9.86525625       0.86552014       6.28866394      -0.00130843      -0.01619750       0.01406710
O        2.88000094       4.90989328      12.50209449       0.00059494      -0.00418085       0.00080192
C        4.05516321       5.25531373      11.78768590      -0.00158477      -0.00222629      -0.00155132
C        2.32829289       3.68731218      12.04763933      -0.00004435      -0.00386739       0.00076717
C        4.50592223       6.61765912      12.24877366      -0.00133246      -0.00266147      -0.00054973
C        1.03162767       3.43785143      12.77685928       0.00266844      -0.00583784       0.00452578
H        4.83107311       4.49536634      11.95802652      -0.00061795      -0.00186399      -0.00497834
H        3.84290549       5.25632873      10.70856932      -0.00430590      -0.00048219      -0.00104874
H        2.15622984       3.74771242      10.96259223      -0.00365873      -0.00243384       0.00145596
H        3.04816164       2.87123393      12.21061258       0.00104514      -0.00357610      -0.00270240
H        5.40860599       6.92456140      11.72019592      -0.00310393      -0.00080343      -0.00230911
H        3.72583024       7.35720891      12.06621482      -0.00238094      -0.00303270       0.00289315
H        4.72172835       6.60214514      13.31723031       0.00150234      -0.00422711      -0.00105484
H        0.54697839       2.53563553      12.40167777       0.00197057      -0.00541672       0.00452408
H        1.19233842       3.31028287      13.84733021       0.00578728      -0.00732649       0.00377184
H        0.35602318       4.28019845      12.63159615       0.00159703      -0.00602365       0.00772787
O        3.04407491       2.58453500       2.79639112      -0.00066822      -0.00070891       0.00325133
C        2.78089464       3.98039719       2.58753068      -0.00260457      -0.00003427       0.00833178
C        4.22913849       2.16930014       2.12488221      -0.00084173       0.00002027       0.00361137
C        1.46317406       4.33258868       3.22674568      -0.00512198      -0.00479873       0.00628775
C        4.43873554       0.69599956       2.36534123      -0.00227438      -0.00056055       0.00359929
H        3.60607766       4.55930973       3.02218693      -0.00410810      -0.00173461       0.01270752
H        2.77154784       4.17993096       1.50959990      -0.00093280       0.00360591       0.00890315
H        4.12511471       2.38178966       1.05331039      -0.00029984      -0.00041003       0.00358552
H        5.07877081       2.75721322       2.49693707      -0.00074241      -0.00147587       0.00469856
H        1.25391889       5.39161134       3.07016336      -0.00371676      -0.00359710       0.01152961
H        0.63471379       3.76416776       2.79681142      -0.00449587      -0.00151773       0.00206511
H        1.48087618       4.15092455       4.30293896      -0.00842456      -0.01005323       0.00560200
H        5.33375782       0.35100282       1.84728125      -0.00212398      -0.00083323       0.00361868
H        4.56246821       0.48578798       3.43016814      -0.00231914      -0.00133806       0.00340091
H        3.59714593       0.11561358       1.98705870      -0.00198096      -0.00045995       0.00333912
O        7.55342841       5.96344769       4.99340713      -0.00285399      -0.00112382      -0.00543351
C        8.76128583       6.54759660       4.54204021      -0.00130860      -0.00382388      -0.00496617
C        7.78918930       4.80218835       5.77309805      -0.00556922      -0.00109357      -0.00455509
C        8.43140270       7.76183760       3.70881763       0.00159530      -0.00342691      -0.00555319
C        6.45621954       4.21338702       6.16638500      -0.00726026       0.00414389      -0.00249057
H        9.38267655       6.82647076       5.40717206      -0.00164035      -0.00428155      -0.00446984
H        9.33387074       5.81501626       3.95669166      -0.00208244      -0.00485015      -0.00366426
H        8.39940549       4.08800826       5.20617842      -0.00878125      -0.00340581      -0.00402778
H        8.37719201       5.06361860       6.66533001      -0.00386760      -0.00198406      -0.00515932
H        9.34585424       8.27887787       3.41281919       0.00310756      -0.00685487      -0.00644848
H        7.88939217       7.47525435       2.80803518       0.00020444      -0.00249797      -0.00533120
H        7.80416581       8.45371729       4.27349002       0.00414118      -0.00114324      -0.00621998
H        6.59672773       3.35580640       6.82610690      -0.00908256       0.00248052      -0.00405987
H        5.85297236       4.95249138       6.69543562      -0.00333963       0.00539367      -0.00074282
H        5.90162593       3.88692227       5.28473136      -0.01003698       0.00697500      -0.00200775
O        9.97535759       5.07533209      11.94830737      -0.00067693       0.00338225       0.00745735
C        9.33597813       5.11259022      13.21216182      -0.00067842       0.00046822       0.00750554
C       11.11143529       4.22994398      11.95612054      -0.00136101       0.00231886       0.00605875
C        8.10067611       5.97120465      13.10116995      -0.00063354       0.00073925       0.00886111
C       11.81164772       4.34915355      10.62630260      -0.00060935       0.00516024       0.00644895
H        9.07547826       4.09200487      13.53000605      -0.00054036       0.00014490       0.00538769
H       10.02847042       5.51461085      13.96559061      -0.00077200      -0.00073929       0.00823519
H       11.77977456       4.51478095      12.78058398      -0.00152674      -0.00043052       0.00670537
H       10.80095743       3.19264755      12.14335600      -0.00266679       0.00237209       0.00308035
H        7.57169734       5.99421382      14.05508299       0.00010231       0.00064805       0.00902762
H        8.36074857       6.99233187      12.81912972      -0.00067425       0.00065432       0.00876787
H        7.42725739       5.57015833      12.34351798      -0.00135562       0.00114196       0.00905158
H       12.64318181       3.64621416      10.56701681      -0.00106373       0.00465880       0.00544145
H       11.12004786       4.12888193       9.81370233      -0.00021914       0.00772189       0.00566925
H       12.19781208       5.35794852      10.48446424       0.00026242       0.00509307       0.00950001
O        8.38623203       8.82314370       8.41584324      -0.00414237      -0.00065379      -0.00174865
C        8.70884372       9.48027798       7.21505091       0.00417022      -0.00016987       0.00074769
C        8.22463078       7.42748283       8.21727014      -0.00197920      -0.00058436      -0.00187701
C        8.87627007      10.95328051       7.51152568       0.00184281      -0.00044093       0.00288033
C        7.95464149       6.77739739       9.54849022      -0.00310835       0.00029251      -0.00175071
H        9.64320449       9.07203493       6.79921700       0.00663787       0.00066091       0.00647371
H        7.91415443       9.31286991       6.47012764       0.01083913      -0.00150639      -0.00588876
H        7.40750464       7.24718927       7.50361492      -0.00071406      -0.00147335      -0.00332183
H        9.14176480       7.01647974       7.76723315      -0.00081220       0.00033928      -0.00051537
H        9.31432086      11.45468743       6.64372302       0.01061195      -0.00003802       0.00750512
H        7.92739720      11.42298099       7.77460150      -0.00088766      -0.00280794      -0.00238138
H        9.57669579      11.08991720       8.33439053      -0.00611301       0.00100698       0.00852710
H        7.78315092       5.70752635       9.41795833      -0.00126787       0.00010654       0.00040245
H        8.79872016       6.90122278      10.22579480      -0.00446400       0.00299501      -0.00044948
H        7.07051953       7.21766286      10.01112251      -0.00423531      -0.00008398      -0.00341619
O        3.48166464      10.09964279       1.73698202      -0.00256942       0.00442457      -0.00163901
C        4.12289548       9.01280466       1.09300777      -0.00055879       0.00639066      -0.00352496
C        2.16577440      10.28524656       1.23184176      -0.00413644       0.00049260       0.00139661
C        5.48864062       8.79669847       1.69641790       0.00067803       0.01013300      -0.00461942
C        1.53261033      11.47517338       1.90240650      -0.00552553      -0.00026011       0.00240269
H        3.50710289       8.10623835       1.19609519       0.00209761       0.00477797      -0.00307393
H        4.20543069       9.22285096       0.01673305      -0.00208565       0.00738589      -0.00327772
H        2.21256595      10.43075529       0.14228646      -0.00716418      -0.00014033       0.00147635
H        1.57701724       9.37339447       1.41038925      -0.00110233      -0.00098959       0.00330314
H        6.00823554       8.00115809       1.16004116       0.00292280       0.01235256      -0.00558949
H        6.09019632       9.70384377       1.62884644      -0.00226618       0.01211792      -0.00461889
H        5.41802246       8.50541389       2.74445056       0.00218977       0.00952018      -0.00490671
H        0.51218498      11.63186393       1.55685322      -0.00727408      -0.00392902       0.00487749
H        1.49880919      11.34595991       2.98459323      -0.00072817       0.00042389       0.00249922
H        2.09100391      12.38361623       1.68043435      -0.00951334       0.00127305      -0.00116418
