194
Lattice="13.686425089539814 0.0 0.0 0.0 13.686425089539814 0.0 0.0 0.0 13.686425089539814" Properties=species:S:1:pos:R:3:forces:R:3 energy=-657140.3125 stress="-0.0009271945455111563 3.228091918572318e-05 0.0002082786595565267 3.228091918572318e-05 -0.0003031933738384396 0.00020873576431768015 0.0002082786595565267 0.00020873576431768015 -0.0020169143099337816" pbc="T T T"
Nd       7.24039527      14.28278551      11.91978412      -0.03878158       0.00822051       0.02905339
Nd      11.63535575      13.30761279       0.20183973       0.02822101      -0.00776190      -0.06127739
O       12.45398298      11.76892094      -0.04989263       0.00403133      -0.02163136      -0.06718694
O       14.09421625      12.22654824       3.64643815      -0.02068174       0.06025815      -0.02272046
O       12.90824536      13.87740564       2.50896900      -0.01622415      -0.03586006      -0.02291965
C       13.50633856      13.03747640       3.07971995       0.01375007      -0.03056345      -0.01749454
O        5.96942037      12.85785331       5.84618241       0.00465000       0.06053877       0.04628539
O        7.33498928      14.06479564       4.61273590      -0.01470494       0.00200474      -0.02641380
O        5.58939998      13.09871814       3.68932965      -0.03499198      -0.02595329       0.04865503
C        6.30239505      13.32723410       4.71349634      -0.01383660       0.01190168       0.02320116
O        9.39426082      12.32822615       0.81656387       0.04432699       0.07932892       0.00411231
O        7.38501135      12.98503749      -0.00708888       0.02758829       0.00727695       0.00980657
O        9.27884949      13.74885167      -0.88982840       0.00194527      -0.02104365      -0.06875429
C        8.68041668      12.96899052       0.04121399       0.02847469       0.02458882      -0.02399647
O       -0.21419071       0.96968158      12.93725615      -0.00467306       0.01205844       0.04052985
N        1.59158816       2.29951377      12.45819897      -0.01149777       0.00258392       0.02568036
C        2.27621139       1.35807400      11.58907371      -0.02725783      -0.01250839       0.02900510
C        2.28693861       3.53919377      12.75069877      -0.01034564       0.00529072       0.00325875
C        0.44789818       2.02284618      13.06618445      -0.00365949       0.01211490       0.03797102
H        3.15078511       0.95447785      12.10499696      -0.02585566      -0.01558342       0.02209678
H        2.60919538       1.88367929      10.69196215      -0.04613743      -0.02993771       0.01333700
H        1.60651356       0.54442517      11.32862693      -0.03340450      -0.00898112       0.03885850
H        3.17207306       3.33765423      13.35663077      -0.00556192       0.01200353      -0.00330810
H        1.63862580       4.20928503      13.30835624      -0.00770098       0.00783411       0.00285101
H        2.58400825       4.02273839      11.81909004      -0.02318731      -0.00628883      -0.00588411
H        0.11281168       2.82495672      13.73084682       0.00225172       0.00902921       0.04479924
O        3.45590557       4.65746428       2.37338456       0.02372724      -0.02236092      -0.06975403
N        3.70376320       2.41625144       2.79341629       0.00030702      -0.01378360      -0.01550731
C        5.03307360       2.53641556       3.35652058      -0.00093073      -0.01599739      -0.01109248
C        3.18357465       1.07753313       2.61409354      -0.00840385      -0.01210710       0.00035287
C        3.02290506       3.51257279       2.40925958       0.01309189      -0.01721215      -0.04374507
H        5.79327075       2.11392007       2.69511558       0.00108063      -0.02357921      -0.00406730
H        5.09116708       1.97127007       4.28520431      -0.00902891      -0.01001465      -0.00710842
H        5.21988770       3.58915105       3.54152369       0.00368447      -0.01615804      -0.01633917
H        3.78045731       0.51833687       1.88984062      -0.01554868      -0.02288237       0.00227669
H        2.15611932       1.14248651       2.25524084      -0.00974867      -0.00856205       0.00439083
H        3.22660063       0.52175913       3.55143285      -0.00830036      -0.00267823       0.00572875
H        1.98412810       3.27083810       2.11367534       0.01178944      -0.01499112      -0.04113819
O        8.32656765       7.45475630       1.03044224      -0.01015949      -0.01928282      -0.01599967
N        8.21222087       5.78184668       2.58646252      -0.00709228      -0.00197149       0.00175771
C        6.76825180       5.84197214       2.70395242      -0.00563192       0.00877124       0.01345845
C        8.90827683       4.72518541       3.28603790      -0.00832352      -0.00131190       0.00395520
C        8.85146767       6.60651533       1.73293831      -0.00942768      -0.01594484      -0.01240671
H        6.46485910       5.94523493       3.74645680       0.00430708       0.01177512       0.01585734
H        6.31626939       4.93401704       2.30021036      -0.01626210       0.01243949       0.01771916
H        6.41398055       6.70102078       2.14265043      -0.00438505       0.01062781       0.01559055
H        8.75149571       4.79810640       4.36448266      -0.00065645       0.00704753       0.00427577
H        9.97656973       4.80619609       3.08769968      -0.00941157      -0.00905082      -0.00404438
H        8.56165427       3.74107772       2.95421755      -0.01607423      -0.00138411       0.01280050
H        9.94616591       6.44061749       1.74052658      -0.01081443      -0.02336714      -0.02205427
O       10.28410731       3.97389731       7.90289150      -0.00313313      -0.01014602      -0.03171874
N       11.84645907       2.31684387       8.17376178       0.00514405      -0.00065057      -0.03611639
C       12.98770000       3.19658944       8.31668002       0.00035818       0.00519308      -0.03647472
C       12.08801661       0.90025745       8.27431025      -0.00374096       0.01166955       0.00412124
C       10.59640236       2.80097019       8.00133075       0.00447369      -0.00924706      -0.03529192
H       13.68461152       3.05749069       7.48676874       0.00304943       0.00275660      -0.03342843
H       13.51000516       2.96329895       9.25137695      -0.00040201       0.01700372      -0.03335819
H       12.64428816       4.22360330       8.37167919      -0.00377683       0.00416699      -0.04365928
H       12.65845965       0.53216708       7.42018800       0.05840255      -0.02775697      -0.07090589
H       11.14033533       0.36453202       8.31074750       0.01895818      -0.00541464      -0.03541854
H       12.65211568       0.67339130       9.18391149       0.00027598       0.00980648      -0.01525766
H        9.85099070       1.98595447       7.97335357       0.00788766      -0.01226783      -0.03942291
O        8.28253946       3.86195464      12.67936681      -0.02197560      -0.08215593       0.03407304
N       10.18756804       2.75552727      12.05069307       0.01279394       0.01882203      -0.01508506
C       10.97666744       3.24425255      13.15666905      -0.00214227       0.01050490      -0.00066802
C       10.80161740       1.81750643      11.14847062       0.03594644       0.04800847      -0.02901301
C        8.89675758       3.10264929      11.94165861       0.00063974      -0.03342128       0.00477198
H       11.88562265       3.71065584      12.77742006       0.00156343       0.01285143       0.01559712
H       11.24611881       2.39896342      13.81833898      -0.00812670       0.00602552      -0.00349004
H       10.39160695       3.96472287      13.71809241      -0.00854090       0.00347093       0.00203568
H       11.57224164       2.29551146      10.55110107       0.04256843       0.07283249      -0.00001462
H       10.03725217       1.39423878      10.49143136       0.05326694       0.05831616      -0.05367988
H       11.24838335       0.98216853      11.70419173       0.03388258       0.03855982      -0.04009909
H        8.42228598       2.64129530      11.02538952       0.01088446      -0.02780292      -0.00336495
O       11.00413012       9.91471676       6.03800014       0.02343071      -0.00142121       0.00813058
N       10.84095058       7.63234739       5.96361877       0.01005536       0.00047204       0.00511466
C        9.40322183       7.57617049       6.14787818       0.01004201       0.00925836       0.00641670
C       11.55124889       6.37232137       5.93227253       0.00216715      -0.00350569       0.00249648
C       11.50215601       8.80380303       5.91798105       0.01683138      -0.00390160       0.00500489
H        9.15009429       6.99128331       7.03454677       0.00737796       0.01293537       0.00803959
H        8.93343429       7.09797709       5.28258421       0.00670159       0.00952664       0.00827432
H        9.01601212       8.58793718       6.22931128       0.01609389       0.01161402       0.00429123
H       11.34484503       5.79777333       6.83651929       0.00133435      -0.00233747       0.00288492
H       12.61935166       6.56799456       5.86334742       0.00293618      -0.00992032      -0.00164692
H       11.24314051       5.77611117       5.06868179      -0.00482330      -0.00235942       0.00440323
H       12.58557604       8.66017589       5.77048263       0.01535559      -0.00976712       0.00097012
O        3.42982198      11.55656131       0.48776221       0.05642481       0.02123380      -0.02025604
N        3.88256729       9.77746256       1.86348887       0.00819550       0.01761395      -0.00628185
C        4.16271643       8.83986724       0.80229595      -0.00427024       0.00532772       0.00126007
C        4.08102788       9.29870802       3.21534165       0.01429716       0.02799606      -0.00253700
C        3.56398209      11.05699605       1.60353901       0.03838588       0.02310103      -0.01695609
H        3.61813047       7.90909384       0.98069264      -0.00175317       0.00830004       0.02104548
H        5.23411192       8.61532699       0.75806009      -0.00449961       0.00688722      -0.01097989
H        3.85879216       9.26438636      -0.14620058      -0.01898886      -0.00576544       0.00135610
H        3.51336788       8.37875414       3.37124335       0.01343110       0.03069621       0.00599381
H        3.74832102      10.05455036       3.92267755       0.01854897       0.03408648      -0.00789399
H        5.13633773       9.09292614       3.41459337       0.01468962       0.02822999      -0.00528020
H        3.43125267      11.64396738       2.52768019       0.04408246       0.02938598      -0.01901299
O        4.81971167       8.97662198      11.42419325       0.01868400      -0.01876152       0.00807360
N        5.64142644      11.03729438      10.89288565       0.00369766      -0.01446192       0.00374322
C        7.02137785      10.61462428      11.03499560       0.00592335      -0.00725953       0.00180930
C        5.36508301      12.44060582      10.88975978      -0.00622320      -0.01613986       0.00441631
C        4.63436841      10.13993301      11.15050885       0.01063460      -0.02012408       0.00859150
H        7.43053317      10.89721906      12.01212965       0.00278622      -0.02195159       0.00703213
H        7.62107443      11.05137612      10.23227537       0.00542971       0.00941941       0.01102091
H        7.05107506       9.53123901      10.95851792       0.01225757      -0.00568411      -0.01841569
H        5.39738692      12.86925017      11.92793782      -0.02372955      -0.01972935       0.00676954
H        4.36654145      12.65343846      10.50656316      -0.00320429      -0.02301757      -0.00738220
H        6.07895670      12.97079435      10.20686741       0.00022477      -0.00758262       0.01665381
H        3.63513882      10.59875197      11.07509125       0.00753891      -0.02670510       0.01354823
O        5.85602175       2.27449680      12.14727663      -0.04301065       0.01321158       0.03906262
N        5.40006487       4.51004248      12.14401171      -0.01308773       0.02079129       0.02158237
C        5.29009002       4.61329840      10.70374641      -0.00568213       0.01453529       0.02003032
C        5.27878733       5.75100388      12.89435254      -0.00814026       0.02765328       0.01409602
C        5.70201818       3.39660337      12.74862033      -0.03250184       0.01966272       0.02917141
H        6.04386762       5.30683954      10.32885668      -0.00092766       0.00821754       0.01902341
H        4.30678648       5.00759473      10.44721295      -0.00224164       0.01762195       0.01300036
H        5.42736125       3.63571337      10.25133557      -0.00846700       0.01132375       0.02680955
H        6.17071609       6.35945947      12.73720162       0.00052670       0.01741202       0.02523506
H        5.15946434       5.52160572      13.94928394      -0.02838312       0.03452660       0.01309946
H        4.41222141       6.30151831      12.53063219       0.00506845       0.03670397      -0.00248902
H        5.80718090       3.44808171      13.83051066      -0.03802571       0.02868639       0.02886401
O        4.34719244       7.15790738       5.71867287       0.00909710      -0.00287366      -0.00091708
N        4.65591299       9.29629379       6.47705741       0.00093549      -0.00082925      -0.00325787
C        6.09455104       9.19074369       6.59216771       0.00017469       0.00133575       0.00629886
C        4.05524038      10.48089250       7.04893283      -0.00530892      -0.00114750      -0.00913420
C        3.91934891       8.24572376       6.09328490       0.00499845      -0.00286555      -0.00554636
H        6.36707261       9.07308127       7.64719561      -0.00618210      -0.00554266       0.00700620
H        6.55995048      10.08020047       6.17188736       0.00056835       0.00521368       0.01541522
H        6.42256876       8.31363573       6.04184306       0.00628311       0.00681347       0.00162748
H        4.27272820      10.51769332       8.12212057      -0.02523688      -0.00554299      -0.00526446
H        2.97409858      10.43810362       6.91943526      -0.00261286       0.00385177      -0.03003647
H        4.46313006      11.37493386       6.56987517       0.00557300      -0.00060895       0.00185362
H        2.83757829       8.46703194       6.13414697       0.00453287      -0.00497995      -0.01191204
O       12.20517012       5.73027170       9.88168727       0.01521450      -0.05148733       0.05356824
N       10.69731716       6.95640518      11.08845242       0.01108170      -0.01172673       0.00375496
C        9.53772492       6.53740452      10.32817436       0.01669279      -0.01710548      -0.00098563
C       10.44725234       7.68393515      12.31365610       0.00104181       0.02103695      -0.01892324
C       11.93242118       6.52419434      10.77037621       0.01110637      -0.02554232       0.02856898
H        8.95033716       7.40895982      10.02863778       0.02399075      -0.01794878      -0.01570302
H        8.89213167       5.89635053      10.93592776       0.00634946      -0.00539279       0.00037012
H        9.85772343       5.99483154       9.44374658       0.02029473      -0.02925633       0.00803122
H        9.82499212       8.56001398      12.12488834       0.00271575       0.01106036      -0.05547269
H       11.38961613       8.00903013      12.75156537      -0.00446415       0.03448283      -0.01719666
H        9.90601380       7.06180313      13.02702725      -0.00907066       0.04366913      -0.00797716
H       12.70583215       6.96657661      11.42063367       0.00738114      -0.01175457       0.02309698
O        7.85334861      10.11460925       4.19744111      -0.02239013      -0.00721198      -0.00362682
N        9.92783958      10.44365437       3.28405744      -0.01142237      -0.00647768       0.02015721
C       10.04153385      11.81293312       3.72562310      -0.00778361      -0.01297193       0.04065016
C       11.05144085       9.82438586       2.62315964      -0.00715274      -0.00303244       0.02399388
C        8.84025610       9.71279310       3.60866511      -0.02053785      -0.00349784      -0.00424087
H       10.33436489      12.45340787       2.88924330       0.01036498      -0.00642321       0.05384989
H       10.77884750      11.88824528       4.53034700      -0.01774389      -0.03132835       0.05045965
H        9.07526026      12.15943641       4.08592389      -0.00899833      -0.00926865       0.03197376
H       11.22101704      10.24758855       1.63086005      -0.00178958       0.00135864       0.02618438
H       10.85093206       8.75987927       2.50196759      -0.00355048      -0.00275245       0.01822452
H       11.96625152       9.93787341       3.21349308      -0.01264253      -0.00642334       0.03281674
H        8.94438136       8.66768774       3.27367030      -0.02822471       0.00351661      -0.02568412
O        7.44619223       5.61889909       8.22886830      -0.00349507      -0.00962627       0.00465277
N        6.86457818       3.58180288       7.35906990      -0.00508072      -0.00749035      -0.00044137
C        6.33098829       4.12318022       6.12539967      -0.00415554      -0.00573007       0.00019531
C        6.85073582       2.14021603       7.49823530       0.00008208      -0.00814542      -0.00586557
C        7.43344036       4.39801081       8.26786855      -0.00453983      -0.00984466       0.00100498
H        5.27945806       3.85794354       6.00992255      -0.00321162      -0.00827076      -0.00207492
H        6.88176844       3.70261722       5.28180121      -0.00199375      -0.00253542       0.00005561
H        6.41698328       5.20679776       6.14657951      -0.00669121      -0.00558445       0.00257386
H        5.82646973       1.75707274       7.47330510       0.00286993      -0.01408706      -0.01338399
H        7.30064850       1.87215792       8.46240714      -0.00213252      -0.00972511      -0.00572746
H        7.39239645       1.64177122       6.68936950       0.00514475      -0.00279810      -0.00523779
H        7.87624435       3.83661340       9.10882844      -0.00402470      -0.01266897      -0.00101507
O        3.97291699       7.79210714       8.87597452      -0.01680799       0.00592351       0.00282121
N        2.91119111       5.83254603       8.37002929      -0.01082754       0.00298505       0.00335494
C        1.57819183       6.39986533       8.41188366      -0.01239605      -0.00105239       0.00925626
C        3.04453442       4.48265355       7.88761043      -0.00736602       0.00676776      -0.00633864
C        4.00291377       6.62678883       8.52717476      -0.01324850       0.00610971       0.00308999
H        0.93574767       5.88486253       9.12862924      -0.01119784      -0.01232365       0.00194952
H        1.11465258       6.32651383       7.42303913      -0.01124395       0.01113483       0.00799829
H        1.64864651       7.44682102       8.68808691      -0.01554222      -0.00467241       0.02297213
H        2.46894070       3.79247729       8.51457540      -0.01185183       0.00253198      -0.01640628
H        4.09282062       4.18578969       7.91742796      -0.00768501       0.00635294      -0.00243453
H        2.69026773       4.38690320       6.85585071      -0.00110173       0.01532208      -0.00896391
H        4.94654861       6.09674655       8.31703618      -0.01177144       0.00803602       0.00316533
O       12.88995685       8.66168102       8.83678381      -0.00087905      -0.01886338       0.01101749
N       11.64301423      10.56499871       9.01845341       0.00840224      -0.01040897       0.00219666
C       12.80077657      11.42105042       9.11655351       0.01121064      -0.01213374      -0.00217542
C       10.36511723      11.19106390       8.77872273       0.00903439      -0.00605068       0.00539230
C       11.81461460       9.23469265       8.84735657       0.00217175      -0.01247060       0.00778093
H       12.65990870      12.14792397       9.91810576       0.01214648      -0.01033810      -0.00354697
H       12.96697334      11.95120516       8.17367173       0.00800304      -0.01332526      -0.00411370
H       13.66923023      10.80717323       9.33491466       0.01033187      -0.01354742      -0.00253381
H       10.11240252      11.86009904       9.60846061       0.00924280      -0.00197491       0.00348726
H        9.59563853      10.42590817       8.69107299       0.00723301      -0.00457415       0.00764331
H       10.37647974      11.75457891       7.84151899       0.01061521      -0.01058497       0.00345740
H       10.85473185       8.70637568       8.72350118      -0.00050509      -0.00878409       0.00740381
