193
Lattice="13.059104145883833 0.0 0.0 0.0 13.059104145883833 0.0 0.0 0.0 13.059104145883833" Properties=species:S:1:pos:R:3:forces:R:3 energy=-116558.5390625 stress="0.0004675579839386046 0.00013701229909202084 -0.0002021694672293961 0.00013701229909202084 0.0016679984983056784 0.0003896758862538263 -0.0002021694672293961 0.0003896758862538263 0.0007524117827415466" pbc="T T T"
O        4.20117125      12.87608774       3.26499558      -0.00635254       0.00537938      -0.00029409
H        5.55194676      12.07943620       3.80730943      -0.00459439       0.00944393       0.00321734
H        3.90161838      13.56481230       3.86994719      -0.00214481       0.01333666      -0.00754327
H        3.40072657      12.39550785       3.02024963      -0.00853038       0.00378972       0.01009834
O        6.39045027      11.69099265       4.17752725      -0.00415397       0.01123908       0.00368093
H        9.54668294      13.14956131       4.62081232       0.03683090       0.02276754       0.00789502
H        6.18176998      11.31329778       5.12261988      -0.00357760       0.00770815       0.00339380
H        6.90743306      11.07043262       3.44492591      -0.00225097       0.01321056       0.00416262
S       12.18504429       0.42660548       2.03995191      -0.00371575      -0.01005099       0.00460224
S       11.95872141       1.97991105       3.26184645       0.00555392      -0.02319729       0.02481896
O       13.53442006       0.24211935       1.55210597       0.00675011      -0.00661591       0.00038433
O       11.13689585       0.38825009       1.02797462       0.00266260       0.01051149       0.00176358
O       11.95548592      -0.86367608       2.95616480      -0.00488293      -0.01922879      -0.01423973
O       10.80398846       1.08698235      11.45791557       0.00632104       0.00107849       0.00129153
C       10.21291466       2.35310813      11.73151302       0.00192118       0.00031599      -0.00043906
C        8.87320122       2.22980583      12.43101433       0.00149220      -0.00367256      -0.00121114
H       10.90150539       2.95080891      12.33993572      -0.00006443       0.00196573       0.00068393
H       10.09087743       2.85469160      10.76925835       0.00156010      -0.00028788      -0.00004488
H        8.43921477       3.21895700      12.59051070      -0.00092321      -0.00466354      -0.00156216
H        8.18600924       1.64744606      11.81369395       0.00351630      -0.00500605      -0.00210147
H        8.99341676       1.73695540      13.39624576       0.00201424      -0.00360148      -0.00126396
H       11.03393928       0.69823008      12.32131332       0.00593286       0.00265867      -0.00013990
O        9.66569904       3.41976503       5.69039066      -0.01026034      -0.00659365      -0.00995111
C       10.76590479       4.17188090       6.19581130      -0.01270005      -0.00847054      -0.00215737
C       10.57107264       5.66497464       6.04731811      -0.01047286      -0.00791001       0.00055103
H       10.94723061       3.91413585       7.24910116      -0.01838783      -0.01132952      -0.00200164
H       11.64130096       3.84444919       5.62977860      -0.00977990      -0.00744553       0.00161698
H       11.41792283       6.21276764       6.46516030      -0.01214139      -0.00996438       0.00643795
H       10.47527778       5.92702865       4.99354966      -0.00414370      -0.00512546       0.00060564
H        9.67738373       5.99069125       6.58827363      -0.01344901      -0.00824150      -0.00390840
H        8.85701263       3.93026335       5.80399941      -0.01143606      -0.00748627      -0.01295409
O        4.32733143       8.54688450       2.87108491      -0.00636625      -0.00484878       0.00497147
C        3.09425821       7.88310552       2.53479854      -0.00423823      -0.00671153       0.00114354
C        3.23332284       7.03720463       1.28475559      -0.00085495      -0.00384662      -0.00043708
H        2.77740428       7.28069623       3.39094953      -0.00424647      -0.00962162      -0.00069255
H        2.35338747       8.67103967       2.38916423      -0.00614065      -0.00826553       0.00233792
H        2.28474602       6.54826732       1.05222344       0.00020638      -0.00481982      -0.00312582
H        3.52428503       7.64569961       0.42603198      -0.00060214      -0.00145419       0.00134405
H        3.98839883       6.26159356       1.42804902       0.00014029      -0.00299241      -0.00100999
H        4.90104473       7.86472601       3.28415121      -0.00626639      -0.00395074       0.00628534
O        5.08656227      12.30747234       8.69432897       0.01205502       0.00423819      -0.00498809
C        5.37114793      11.38146395       9.75967238       0.00384805       0.00831354       0.00094476
C        6.78942853      11.52169532      10.25877873       0.00275779       0.00419949       0.00558977
H        4.64043136      11.52490969      10.56201068       0.00172633       0.01679615      -0.00245959
H        5.20691020      10.38683004       9.34913001       0.00042079       0.00701040       0.00555585
H        7.02344702      10.71333793      10.95379298      -0.00420916       0.00767066       0.01179788
H        7.49377048      11.47552737       9.42874598       0.00579225      -0.00522973       0.00860214
H        6.94235012      12.48039663      10.75980141       0.00594482       0.00690779      -0.00020023
H        5.15447088      13.19303194       9.07579575       0.01663138       0.00569281      -0.00976732
O        5.52717743       9.70683028       0.80949069       0.00320667      -0.00153199       0.01029077
C        5.02132501      11.03653474       0.56840772      -0.00259805      -0.00504678       0.00215986
C        3.51526375      11.07140646       0.44735517      -0.00247717      -0.01374092      -0.00239010
H        5.35641100      11.70276165       1.36975094      -0.00844358       0.00069156      -0.00029558
H        5.49650763      11.37488917      -0.35278465      -0.00163643      -0.00777408       0.00159571
H        3.16514850      12.09420807       0.29622550      -0.00725752      -0.01628132      -0.01081326
H        3.17339203      10.46497975      -0.39218923       0.00341453      -0.02144104       0.00088456
H        3.03840395      10.69463785       1.35568075      -0.00323565      -0.00901127      -0.00088453
H        4.98467659       9.27026350       1.52180501       0.00178424      -0.00158818       0.00893390
O        4.77582349       1.56535751      10.76380313       0.01428545       0.00295156      -0.01125330
C        4.95107949       1.82275109      12.16456225       0.00447780      -0.00674459      -0.00824052
C        4.94042324       3.30198559      12.48948701       0.00910296      -0.00847495      -0.00003793
H        4.17897494       1.30322125      12.74387616      -0.00248823      -0.00657147      -0.01750049
H        5.91349581       1.38056821      12.42156040       0.00045878      -0.01296870      -0.00361267
H        5.10510141       3.45696356      13.55671429       0.00078476      -0.01467098       0.00196031
H        5.72101801       3.83884125      11.94916926       0.01652771      -0.00979700       0.00932643
H        3.97854328       3.75282723      12.23289682       0.01338147      -0.00242889      -0.00610258
H        3.94258700       1.96789976      10.49730365       0.01881933       0.00990883      -0.01523689
O        5.75666397      10.88395909       6.47745905       0.00149034       0.00015253      -0.00068769
C        4.53473529      10.10268670       6.50453655       0.00239518      -0.00129253      -0.00298177
C        4.77985761       8.70256272       7.01534269       0.00232282       0.00048465       0.00212301
H        3.80904798      10.63470573       7.12193957      -0.00112951      -0.00049508      -0.00751543
H        4.15426714      10.06584879       5.48077975       0.00665650      -0.00462784      -0.00454211
H        3.84660967       8.13782616       7.02481876       0.00450900      -0.00325450      -0.00543706
H        5.47754758       8.18140717       6.36436766       0.01079576       0.00200513       0.00979847
H        5.18934841       8.70576124       8.02552715      -0.00710496       0.00349538       0.00587009
H        5.69467028      11.54832728       7.20085829       0.00113627      -0.00091273       0.00086087
O        5.64251659       8.37737330      11.28614013      -0.00742477       0.00271952       0.00927243
C        6.46896886       7.21739877      11.28891160      -0.00724542       0.00267377       0.00199589
C        7.93248646       7.53455767      11.53183947      -0.00680053       0.00201327       0.00013466
H        6.11349847       6.49667976      12.03869217      -0.00555468      -0.00100896      -0.00080028
H        6.34897173       6.74704821      10.31190824      -0.00959250       0.00720629      -0.00021029
H        8.52397565       6.61735356      11.49702963      -0.00652339       0.00229332      -0.00529475
H        8.30735627       8.22020345      10.77012304      -0.00858681       0.00571997       0.00257039
H        8.07097449       8.00018236      12.51066959      -0.00495690      -0.00243568       0.00206214
H        5.64924427       8.75287157      12.18089787      -0.00295842      -0.00022440       0.01063208
O        7.49834154      10.31234825       2.47120033       0.00206539       0.01344895       0.00601786
C        8.49141261      10.91766864       1.58755625       0.00469269       0.01505554       0.01035038
C        9.72747405      10.05967346       1.50699029      -0.00132257       0.00696263       0.00001785
H        8.02945836      11.03492477       0.60340838       0.00489095       0.02924336       0.01214898
H        8.72615730      11.90370430       1.98377286       0.01226358       0.00883505       0.02100159
H       10.44031842      10.51696548       0.81977981       0.00327295       0.01128013       0.00771528
H       10.20981561       9.99065339       2.47974467      -0.00361047      -0.00995289      -0.00032341
H        9.48860190       9.05410877       1.15715745      -0.00802743       0.01357919      -0.01388876
H        6.79022524       9.95071953       1.87583602       0.00511456       0.00955208       0.00459298
O        7.66428797       4.23755747      10.01729011      -0.00686947      -0.00426036      -0.00181758
C        7.93277082       3.84472563       8.66757810      -0.00444789      -0.00230634      -0.00202337
C        7.60124111       2.39057075       8.42610427       0.00844483      -0.00556993      -0.00071086
H        7.36216470       4.48278914       7.97959577      -0.01031834      -0.00774503      -0.00221631
H        8.99573750       4.03348609       8.50135731      -0.00604594       0.00705982      -0.00215878
H        7.82984026       2.11867863       7.39611847       0.01169698      -0.00521294      -0.00034718
H        8.17492730       1.73132768       9.07907076       0.01290531       0.00009537       0.00074153
H        6.53522781       2.22044797       8.60174305       0.00979018      -0.01417478      -0.00132807
H        6.93938633       3.68310711      10.32194907      -0.00874488      -0.00357091      -0.00501550
O        4.05155088       4.71025204       7.91862642       0.03593551       0.02867819      -0.01170194
C        3.75288646       4.69909168       9.30255507       0.01087262       0.00636953      -0.01849574
C        3.23614179       6.01800346       9.84863457       0.00249822      -0.00149101      -0.00511922
H        3.03305023       3.89872056       9.54382213       0.00608954       0.00380728      -0.04365163
H        4.69472976       4.44215527       9.79156168       0.00172561      -0.00177539      -0.00542398
H        3.21486585       5.99784045      10.94111701      -0.00952865      -0.01657109      -0.00561354
H        3.88360375       6.84145983       9.54725041       0.00538854       0.00290762       0.01371525
H        2.22029735       6.21472500       9.49983030       0.00610542       0.00295778      -0.01309969
H        3.30648812       5.03886556       7.39354422       0.03845407       0.01654373      -0.02517382
O        9.85868660      12.70530929       9.28388162       0.00651126       0.00232291       0.00127293
C       10.30419304      11.36677577       9.38390036       0.00529099       0.00183028      -0.00033244
C       11.78541788      11.21047560       9.08547795       0.00557160       0.00081841       0.00112411
H       10.07506583      10.95478178      10.37797033       0.00380534       0.00041717      -0.00098574
H        9.71619351      10.78955679       8.66253434       0.00556481       0.00335222      -0.00180006
H       12.06928603      10.15471675       9.11230619       0.00428664       0.00038278      -0.00087102
H       12.02431998      11.60863463       8.09815057       0.00701212       0.00267558       0.00222898
H       12.38305501      11.74895975       9.82307611       0.00532141      -0.00138324       0.00301352
H       10.22711549      13.20094197      10.04186788       0.00681464       0.00134419       0.00166449
O        5.73138032       6.46769862       4.02977485      -0.00281775      -0.00103977       0.00569153
C        7.17520916       6.57765316       3.99869650      -0.00312815       0.00274888      -0.00680727
C        7.69584689       7.62424415       4.95455289       0.00199096       0.00286487      -0.00972319
H        7.61249125       5.59938783       4.20677332       0.00106864       0.00359389      -0.01169853
H        7.41414520       6.83903094       2.96742022      -0.01279648       0.00458802      -0.00866851
H        8.77769098       7.71085877       4.85676743       0.00142303       0.00362770      -0.01639897
H        7.25709179       8.60179283       4.75047160      -0.00002238       0.00283197      -0.00621571
H        7.48344031       7.35178683       5.99069087       0.00871693       0.00160554      -0.00864212
H        5.44665057       6.32411359       4.94164792       0.00592910       0.00302056       0.00882715
O        1.70790794       3.60474084       4.35828465      -0.00652665       0.00013351      -0.00374091
C        2.02704789       3.99825220       3.01895590      -0.00525692       0.00315847      -0.00190321
C        2.59508677       2.85329459       2.21125710      -0.00282690       0.00580710      -0.00432462
H        1.12977024       4.39960445       2.53796463      -0.00445420       0.00410128      -0.00267850
H        2.75279447       4.80866130       3.11423866      -0.00560984       0.00341722       0.00133770
H        2.74596488       3.16278195       1.17626928      -0.00042279       0.00874143      -0.00327861
H        3.56017769       2.53156707       2.61042596      -0.00338018       0.00513852      -0.00319096
H        1.90607036       2.00788392       2.20322932      -0.00208564       0.00510505      -0.00807205
H        0.92682802       3.02674426       4.29267707      -0.00538507      -0.00374667      -0.00677876
O        0.15059168      12.49628087       5.70135777      -0.00113404       0.00257832      -0.00038643
C        1.43567016      11.94073386       5.49762039      -0.00212309       0.00059301       0.00007930
C        1.55778702      11.16165499       4.19760329      -0.00169049       0.00011787       0.00017017
H        2.20496687      12.72841897       5.54273829      -0.00033218      -0.00145054       0.00157426
H        1.60903237      11.28347356       6.35299706      -0.00449345      -0.00067523      -0.00024134
H        2.53799549      10.68074976       4.12552432      -0.00145181      -0.00021088       0.00080520
H        0.79941396      10.38049497       4.14555336      -0.00176844      -0.00007823      -0.00007939
H        1.39788708      11.81157036       3.33238368      -0.00175897      -0.00045481      -0.00036161
H       -0.09534386      13.00553709       4.91738811       0.01088737       0.02922542       0.01307803
O        9.74723071      12.22731099       4.42504443       0.01193118       0.01796758       0.00756839
C        9.78440178      11.48165199       5.66617543       0.00603506       0.01812220       0.00801829
C       10.61336251      10.23901943       5.45545368      -0.00558752       0.01041546       0.00779046
H       10.20972989      12.10600698       6.45315427       0.01226695       0.01469693       0.00736585
H        8.75841847      11.22035642       5.94764594       0.00391924       0.02785033       0.00880206
H       10.62327178       9.63828450       6.36625201      -0.00998973       0.01025785       0.00783424
H       10.19940214       9.62705785       4.65325034      -0.01223059       0.01387583       0.00821088
H       11.64073814      10.50831858       5.21314937      -0.00361148       0.00103945       0.00598478
H       11.10743491      12.26875646       3.47959842       0.00414529      -0.01141538      -0.00006367
O       12.51990615       7.23730085       8.89627495      -0.00617021       0.00649104       0.00313601
C       11.51980452       6.79792268       9.81706282      -0.00603963       0.00173965       0.00117984
C       12.05504309       5.80235815      10.82481877      -0.00423434       0.00068122      -0.00066578
H       11.07101899       7.65842621      10.32693002      -0.00866938      -0.00055292       0.00281885
H       10.74288090       6.34146689       9.20241574      -0.00423139       0.00127691      -0.00069496
H       11.26228222       5.48048025      11.50212401      -0.00410387      -0.00280425      -0.00194150
H       12.45690188       4.92055612      10.32429131      -0.00140245       0.00288625      -0.00223692
H       12.84898317       6.24907047      11.42932071      -0.00589812       0.00141639       0.00110069
H       13.19489535       7.70089859       9.40091600      -0.00600527       0.00375488       0.00537848
O        6.53157740       3.58081810       4.86532439       0.00458753       0.00580591       0.00198086
C        6.19523743       2.19641587       4.89162310       0.00086042       0.00661847       0.00143859
C        4.93887496       1.91684346       5.69695145       0.00013691       0.00979831       0.00156808
H        6.10249679       1.81158916       3.86754319      -0.00015035       0.00723861       0.00123036
H        7.05714869       1.69984237       5.33799896      -0.00036505       0.00396176       0.00098467
H        4.80935666       0.84112555       5.85397821      -0.00282365       0.01010403       0.00124626
H        5.00279274       2.39346464       6.67484144       0.00192010       0.00982219       0.00164929
H        4.04366868       2.31827433       5.20906402       0.00095974       0.01190356       0.00164281
H        5.83129119       4.06187156       4.40997946       0.00415352       0.00866184       0.00530076
O       11.53017480       5.32320379       2.78648335       0.00858267      -0.01193351       0.00814930
C       11.93208221       6.05226319       1.63828666      -0.00549269      -0.01428282       0.00211090
C       12.53567928       7.35843413       2.10293402      -0.00864567      -0.00937727      -0.00682229
H       12.66660608       5.48313131       1.05447374      -0.00712639      -0.01167628      -0.00249678
H       11.07547417       6.24706201       0.97754305      -0.01212132      -0.02092188       0.00892580
H       12.85779983       7.96889069       1.25755529      -0.01756296      -0.01047547      -0.01094933
H       11.80867118       7.93135399       2.68058715      -0.00707884      -0.01071861      -0.00300939
H       13.39676131       7.16123522       2.74208747      -0.00295283      -0.00310335      -0.01255471
H       11.44566323       4.38369316       2.56831782       0.00508832      -0.01289726       0.01099062
O        2.44337978       5.92530614       5.69916960       0.00063337      -0.02752358       0.04059920
C        1.44037015       6.59355340       6.47211893      -0.00718564      -0.01089954       0.01585211
C        1.00770872       7.91624896       5.87303333       0.00211647      -0.02001518      -0.01096767
H        0.57836878       5.93865420       6.61329535      -0.00973046      -0.00720948       0.01870819
H        1.86182032       6.78050171       7.46374727      -0.01615217       0.00482453       0.01584890
H        0.34243722       8.42956942       6.57110873      -0.00419119      -0.00754625      -0.02640197
H        1.87274978       8.55615199       5.68800276       0.00481512      -0.02350843      -0.01199126
H        0.47338316       7.77985342       4.93269102       0.01072577      -0.03362221      -0.01395617
H        2.04900068       5.13199446       5.28901124      -0.00387211      -0.01517124       0.02153917
