193
Lattice="13.731544575069403 0.0 0.0 0.0 13.731544575069403 0.0 0.0 0.0 13.731544575069403" Properties=species:S:1:pos:R:3:forces:R:3 energy=-117439.734375 stress="0.00012883900490123779 -0.0002286838789586909 1.2173504728707485e-05 -0.0002286838789586909 3.7039029848529026e-05 5.8993929997086525e-05 1.2173504728707485e-05 5.8993929997086525e-05 -0.00030329456785693765" pbc="T T T"
O        5.53733966      13.51619588       5.30355366      -0.01812333      -0.00652611       0.02052414
H        6.37756105      13.97805012       5.22460711       0.00798589       0.01516488      -0.02063959
H        4.09296593      14.05298704       4.56043391      -0.01681471       0.01127633       0.01209638
H        5.41614591      13.34111244       6.24323620       0.00575830       0.03035969      -0.02491701
O        3.22478129      14.38075668       4.22658798      -0.01468424       0.01468265       0.00963748
H       -0.48831891      13.43836975       3.21074495       0.00677937      -0.02167309      -0.01128461
H        3.12257856      15.40694516       3.22504384      -0.00240542       0.00703585      -0.00815269
H        2.67932556      13.62513138       3.98494404      -0.02769634       0.02260143       0.03415632
O       11.50401613       0.34676784       1.12995328      -0.00002527      -0.00284511      -0.00249591
O       13.21676346       2.37352966       0.92324495       0.00023748      -0.00335860       0.01134345
O       13.91395716      -0.03911401       0.10930370      -0.00494385       0.00478637      -0.01477349
O       13.69836713       0.46736038       2.83842271       0.00805123      -0.02091083      -0.00860810
Cr      13.03574604       0.79005361       1.15906905      -0.00044799      -0.00536229      -0.00284994
O       10.38082452      11.11039926      11.63219667       0.00512290       0.00506943      -0.00132188
C       10.67003710      10.05579678      10.72606650       0.00206929       0.00400123      -0.00105706
C        9.02663786      11.10561855      12.03114661       0.00641114       0.00640434       0.00382382
C       12.14311984      10.08741196      10.40085470       0.00151443       0.00263428      -0.00385198
C        8.76156680      12.32669455      12.87730397       0.01085322       0.00781840       0.00330263
H       10.38585907       9.09061708      11.17068970       0.00232832       0.00446999       0.00040203
H       10.07438028      10.18425882       9.81422203       0.00035235       0.00359246      -0.00010169
H        8.37648824      11.10133494      11.13959348       0.00334761       0.00544185       0.00616258
H        8.80531251      10.18165756      12.59033870       0.00845528       0.00681603       0.00562146
H       12.38638369       9.31713053       9.66681900      -0.00049521       0.00279409      -0.00452279
H       12.41658469      11.05780599       9.98494609       0.00161100       0.00255807      -0.00390466
H       12.74207419       9.92383643      11.29720712       0.00301862       0.00179672      -0.00497915
H        7.72375358      12.32639618      13.21470600       0.01335603       0.00846848       0.01079181
H        9.41882886      12.35347224      13.74596841       0.01814045       0.01031413      -0.00208311
H        8.94079561      13.23469818      12.30130190       0.00691751       0.00676695       0.00013097
O        4.98222816       2.46904325       8.83361052       0.00603992      -0.00516582       0.00139132
C        5.22953896       3.84248884       8.58691345       0.00263932      -0.00504974      -0.00097513
C        5.36121317       2.10095769      10.14893958       0.00605616      -0.00143009       0.00241055
C        4.73237609       4.18319962       7.20471777       0.00374472      -0.00874463      -0.00204968
C        4.98159332       0.66037899      10.37935823       0.00982754      -0.00183389       0.00497970
H        4.71429097       4.45253142       9.34506174       0.00034869      -0.00507639      -0.00257960
H        6.30634315       4.04793775       8.67987822       0.00175768      -0.00156577      -0.00096753
H        6.44370781       2.24963036      10.27877622       0.00554931       0.00193974       0.00316914
H        4.85224948       2.75588591      10.87174268       0.00351959      -0.00125572       0.00063542
H        4.91959661       5.23576407       6.98364418      -0.00217231      -0.00809622      -0.00298306
H        5.24237532       3.57740021       6.45473108       0.00825400      -0.00704038      -0.00090805
H        3.66012249       3.99642972       7.13129583       0.00401288      -0.01013775      -0.00080663
H        5.23701454       0.35788374      11.39533623       0.01076868       0.00049147       0.00542146
H        3.91051283       0.51921111      10.22972470       0.01014408      -0.00473986       0.00547421
H        5.51556879       0.00779778       9.68850403       0.01121683      -0.00167901       0.00589947
O       12.68885114       8.31212610       6.83047813       0.00036271      -0.00320836       0.00208223
C       12.72621948       9.29955343       5.81643812      -0.00263350      -0.00138879       0.00379121
C       12.57169945       7.00072748       6.31233854      -0.00118557      -0.00233948       0.00008935
C       12.87803883      10.65179481       6.46726365      -0.00289402      -0.00234547       0.00602248
C       12.57890904       6.02340009       7.46108452      -0.00106804      -0.00414002      -0.00145817
H       13.56493581       9.09542032       5.13197260      -0.00404438       0.00066759       0.00156444
H       11.80157528       9.25615086       5.22096506      -0.00379938      -0.00081931       0.00549358
H       11.64321362       6.91133390       5.72766181      -0.00177872      -0.00080723       0.00093013
H       13.40494530       6.80105559       5.61955546      -0.00201815      -0.00201164      -0.00097981
H       12.93477407      11.43039391       5.70508203      -0.00549866      -0.00086978       0.00754800
H       12.02441593      10.85873271       7.11319092      -0.00126913      -0.00477483       0.00880715
H       13.78858521      10.68350100       7.06596015      -0.00154296      -0.00296470       0.00408788
H       12.51874316       4.99936881       7.09179805      -0.00307785      -0.00337780      -0.00304783
H       13.49318898       6.12968571       8.04439683      -0.00024281      -0.00646838      -0.00241950
H       11.72800730       6.18807929       8.12091957       0.00012875      -0.00390679      -0.00006597
O        3.29157781       9.48187644       7.52886219      -0.00047779       0.00010772      -0.00018599
C        4.48972329      10.22243936       7.53351235      -0.00189438       0.00263590       0.00067504
C        3.52007699       8.10384355       7.28975790       0.00274152       0.00061557      -0.00080347
C        4.15998624      11.66015666       7.85708563      -0.00523634       0.00198641       0.00070809
C        2.19922610       7.38968989       7.38831088       0.00438523      -0.00270520      -0.00148599
H        5.17994173       9.80824353       8.28328504      -0.00161216       0.00404640       0.00102606
H        4.98944782      10.14085100       6.55524053      -0.00125667       0.00429656       0.00101596
H        3.97293000       7.97021465       6.29477549       0.00337328       0.00217771      -0.00060353
H        4.23655544       7.71571094       8.03071917       0.00334647       0.00197911      -0.00070712
H        5.07803438      12.24545191       7.95235848      -0.00635362       0.00403785      -0.00007470
H        3.52099890      12.09693117       7.08743471      -0.00552081       0.00045468       0.00021638
H        3.63312782      11.72615671       8.80875310      -0.00544310       0.00078705       0.00054967
H        2.31808958       6.32526379       7.18153640       0.00761338      -0.00261614      -0.00055072
H        1.77682160       7.50832975       8.38579517       0.00327089      -0.00310005      -0.00209263
H        1.48913778       7.81193050       6.67862402       0.00391462      -0.00529441      -0.00255266
O        9.10416125       2.21060000       2.99638315      -0.00311887      -0.00341935       0.00173854
C       10.12164456       1.64486015       3.79834698      -0.00334876      -0.00589597       0.00050765
C        9.64012625       3.13038608       2.04812518      -0.00219333      -0.00604177      -0.00007439
C        9.49847215       0.59632740       4.68689400      -0.00481045      -0.00260153       0.00315812
C        8.56522200       3.46130645       1.04560977      -0.00217786      -0.00563589       0.00008062
H       10.88706023       1.19600869       3.15722009      -0.00589719      -0.00891775      -0.00051928
H       10.61166089       2.42766501       4.39795540       0.00037618      -0.00672174      -0.00133806
H        9.97114621       4.03963605       2.57079676      -0.00015590      -0.00572377      -0.00185224
H       10.51138869       2.68452236       1.55424827      -0.00346392      -0.00875807       0.00001448
H       10.25434835       0.14793652       5.33396262      -0.00450976      -0.00489480       0.00109012
H        8.72744205       1.03857761       5.32440670      -0.00124544       0.00029501       0.00483832
H        9.05227236      -0.19148549       4.07721348      -0.00937408      -0.00171852       0.00510852
H        8.93898663       4.20065952       0.33960673      -0.00115003      -0.00821383      -0.00207893
H        8.27328043       2.56738123       0.49314246      -0.00474717      -0.00633876       0.00249397
H        7.68817698       3.87737365       1.53981048      -0.00079925      -0.00246263      -0.00024782
O       10.46867262       3.58208664       8.47862494      -0.00532492      -0.00127998       0.00266390
C       11.35041445       2.68190636       9.13245685      -0.00425670       0.00094546       0.00436485
C       10.14657584       3.13656882       7.17679806      -0.00521144      -0.00437811       0.00357130
C       11.67242687       3.21560080      10.50389541      -0.00714301       0.00281638       0.00423592
C        9.29395516       4.17427476       6.48861500      -0.00553396      -0.00635752       0.00115506
H       10.88248027       1.68847648       9.19741536      -0.00257394       0.00023058       0.00476233
H       12.26638023       2.56838085       8.53246798      -0.00368789       0.00208472       0.00513685
H       11.07193053       2.96054715       6.60673699      -0.00511995      -0.00532169       0.00390877
H        9.62100769       2.17192305       7.23539621      -0.00486785      -0.00436446       0.00583900
H       12.34801461       2.53987026      11.02893437      -0.00589287       0.00485127       0.00582997
H       12.14428111       4.19627506      10.43218826      -0.00992903       0.00417043       0.00377997
H       10.76273913       3.31716602      11.09512065      -0.00885016       0.00101617       0.00208984
H        9.01670328       3.84542575       5.48531127      -0.00475822      -0.00845554       0.00165273
H        8.38256631       4.35980076       7.06046888      -0.00607459      -0.00608792       0.00040242
H        9.83950363       5.11456279       6.39803680      -0.00627024      -0.00603119      -0.00030153
O        2.94601488       5.88734657      12.40586502       0.00109527      -0.00131196       0.00155817
C        4.29263181       6.16491346      12.74496286       0.00074995      -0.00014889       0.00241673
C        2.55882303       4.57719429      12.77400393       0.00014979       0.00027324       0.00572517
C        4.63019588       7.55839386      12.27802005       0.00078152      -0.00126690      -0.00065264
C        1.10851523       4.37312879      12.41737898       0.00142378      -0.00149233       0.00159171
H        4.42714581       6.07914817      13.83425753      -0.00044696       0.00269507       0.00285679
H        4.95270215       5.41796638      12.27534741       0.00139451      -0.00115621       0.00505593
H        3.19758382       3.84332573      12.25607817       0.00198299      -0.00182128       0.01111871
H        2.72223170       4.44060397      13.85602172      -0.00359723       0.00482960       0.00690335
H        5.67075031       7.79001374      12.51020001       0.00073576      -0.00064833      -0.00096403
H        4.48445029       7.64540023      11.20032670       0.00111484      -0.00383847      -0.00097446
H        3.99639933       8.28732054      12.78248724       0.00071216      -0.00004928      -0.00262591
H        0.76433970       3.37911662      12.70636912       0.00051653      -0.00042969       0.00430325
H        0.48547475       5.09921536      12.93893441      -0.00054616       0.00066943      -0.00383005
H        0.96285876       4.50340811      11.34439467       0.00516996      -0.00609634       0.00055227
O        2.89894720       2.34484670       2.44725845       0.00058717       0.00300306      -0.01021847
C        1.76052074       3.19287859       2.89404008      -0.00401187      -0.00421783      -0.00654673
C        2.62094830       1.47529053       1.26628986       0.00468481      -0.00073200      -0.00911573
C        2.31161708       4.24263178       3.81593065      -0.00690265      -0.00799760      -0.00035515
C        3.92504813       0.93375559       0.76057394       0.00725207       0.00349480      -0.00789060
H        1.33270084       3.59754781       1.98057008      -0.00878567      -0.00256020      -0.00332716
H        1.02564379       2.52924909       3.34991763       0.00142834      -0.01147066      -0.00842616
H        1.93534923       0.69843771       1.59699490       0.00876050      -0.00273284      -0.00526778
H        2.10083648       2.11129916       0.55660614       0.00155219      -0.00589818      -0.01127921
H        1.49561053       4.89587213       4.12690362      -0.00849034      -0.01391862       0.00706444
H        2.75177564       3.80552950       4.71314039      -0.00256432      -0.01301099      -0.00501046
H        3.06171112       4.85194331       3.31262200      -0.01101187      -0.00112413       0.00249790
H        3.70201246       0.28981213      -0.09090672       0.00962459       0.00528207      -0.00990105
H        4.59950994       1.72654668       0.43815777       0.00621606       0.00511122      -0.00593599
H        4.42913255       0.32525763       1.51349278       0.00809351       0.00281924      -0.00891213
O        8.20020460       6.18052422       3.54058233       0.00085762       0.00038919      -0.00236320
C        8.99145043       7.29959261       3.89240441       0.00105613       0.00018292      -0.00209841
C        6.97478555       6.14602670       4.24639876       0.00173983      -0.00028276      -0.00094202
C       10.27392674       7.24827168       3.09923511      -0.00010467       0.00193936      -0.00389206
C        6.18975668       4.93956123       3.79330098       0.00086221       0.00041920      -0.00134379
H        8.43929437       8.22810620       3.68243328       0.00056973       0.00037205      -0.00012344
H        9.19683942       7.28389280       4.97359492       0.00248124      -0.00106289      -0.00238794
H        7.17203905       6.09624826       5.32901868       0.00307082      -0.00161852      -0.00123107
H        6.40981170       7.07247317       4.05966594       0.00171754       0.00005046       0.00083765
H       10.91013535       8.09926059       3.34443798      -0.00000096       0.00171801      -0.00325457
H       10.82291831       6.33119318       3.31669003       0.00066493       0.00192539      -0.00577599
H       10.06061690       7.27300157       2.03095565      -0.00144617       0.00422956      -0.00356875
H        5.26339078       4.86244680       4.36159137       0.00101985       0.00061546      -0.00102273
H        5.93999093       5.01908411       2.73471491       0.00041192       0.00133494      -0.00120381
H        6.77217607       4.02808210       3.93920079       0.00029123       0.00001450      -0.00221062
O        9.86492483       6.47213229      11.67806092       0.00169113       0.00106847       0.00109479
C        8.63173256       5.78389247      11.76215170       0.00162774       0.00076801      -0.00102019
C       10.72448648       6.16036668      12.76319720      -0.00044751       0.00154859       0.00284692
C        7.78438626       6.15681964      10.57221992       0.00454223      -0.00147991      -0.00366196
C       11.95195531       7.03250451      12.67976072      -0.00107715       0.00270399       0.00572713
H        8.80723494       4.69858263      11.78476275       0.00198135       0.00087363       0.00094761
H        8.12403593       6.04973014      12.70206805      -0.00065301       0.00181992      -0.00255841
H       10.19330887       6.33013266      13.71067240      -0.00261003       0.00035168       0.00165209
H       10.99603360       5.09608986      12.73297664       0.00083382       0.00181127       0.00284418
H        6.80340937       5.68561446      10.64578618       0.00443450      -0.00144582      -0.00511277
H        7.64500286       7.23775856      10.53097976       0.00451034      -0.00155893      -0.00610465
H        8.26412759       5.82851114       9.65070140       0.00680844      -0.00318588      -0.00189896
H       12.64186212       6.78602976      13.48737934      -0.00239994       0.00283730       0.00697057
H       12.46731227       6.88310678      11.73021050       0.00082688       0.00396039       0.00671540
H       11.68492201       8.08594353      12.76341573      -0.00219337       0.00255173       0.00597973
O        8.80619264      10.25320456       7.82139633       0.00041038       0.00553746      -0.00162674
C        8.26508836       8.94305541       7.76724059      -0.00147176       0.00657856      -0.00535954
C        7.80848864      11.24623419       7.90358676       0.00178534       0.00722462      -0.00194354
C        9.39867639       7.95350311       7.85367366      -0.00299671       0.00481030      -0.00423078
C        8.47316962      12.59603170       8.02080017       0.00452378       0.00548270       0.00222164
H        7.55865817       8.80115505       8.59921981      -0.00368440       0.00602900      -0.00733978
H        7.69706876       8.81801257       6.83196129       0.00061890       0.00920419      -0.00689715
H        7.16616327      11.19922666       7.00965780       0.00360146       0.01035749      -0.00328285
H        7.16647440      11.05373355       8.77747759      -0.00029013       0.00668265      -0.00359157
H        9.03323881       6.94028856       7.68755052      -0.00408765       0.00536498      -0.00592668
H       10.15861234       8.18252799       7.10707597      -0.00126086       0.00441863      -0.00254789
H        9.87458264       7.98370047       8.83389855      -0.00490408       0.00328250      -0.00334996
H        7.72315017      13.38790293       8.09156520       0.00602297       0.00722957       0.00002769
H        9.09844784      12.63805040       8.91368405       0.00130627       0.00316245       0.00430682
H        9.09903090      12.78760424       7.14990004       0.00789101       0.00481594       0.00460333
O        3.47234124       9.35013037       1.45594178      -0.00000292       0.00108904      -0.00191381
C        2.08535067       9.29693244       1.75030512       0.00043568      -0.00108087      -0.00066466
C        3.95219939      10.67823823       1.39321401      -0.00148922       0.00181812       0.00063561
C        1.66210434       7.84944284       1.80538436       0.00203408      -0.00162858      -0.00302617
C        5.42150279      10.65218848       1.04766437      -0.00164813       0.00348524       0.00035641
H        1.89483994       9.79448115       2.71387665       0.00079516      -0.00303511       0.00042301
H        1.52066582       9.84456266       0.98306165      -0.00093862      -0.00032920       0.00090230
H        3.38089027      11.24554626       0.64308521      -0.00222501       0.00260642       0.00178441
H        3.79374962      11.17340969       2.36597220      -0.00187846      -0.00013098       0.00149059
H        0.59532484       7.77771415       2.02464273       0.00234327      -0.00313606      -0.00194735
H        1.85589789       7.35517380       0.85155029       0.00144675       0.00039995      -0.00417449
H        2.21201288       7.32529070       2.58867111       0.00337988      -0.00259290      -0.00463738
H        5.82409911      11.66563225       1.02573382      -0.00191204       0.00357741       0.00238618
H        5.97933450      10.07648432       1.78665403      -0.00180389       0.00194898      -0.00054625
H        5.57816924      10.19720338       0.06972724      -0.00129481       0.00548258      -0.00053443
