197
Lattice="18.82569330139041 0.0 0.0 0.0 18.82569330139041 0.0 0.0 0.0 18.82569330139041" Properties=species:S:1:pos:R:3:forces:R:3 energy=-1925318.25 stress="-0.0010015011066570878 5.52674555365229e-05 -8.485027501592413e-05 5.52674555365229e-05 -0.0007873750291764736 0.0001441357089788653 -8.485027501592413e-05 0.0001441357089788653 -0.0010964235989376903" pbc="T T T"
O       15.55369225      17.12874485      -0.64942597      -0.01672460       0.00889370       0.02071889
H       15.75382798      18.95372652      -0.31608222       0.01053293       0.01173207      -0.01104715
H       15.24976484      16.65277559       0.13155528       0.00073460       0.03947506      -0.00930223
H       16.49390126      16.92587477      -0.71050545       0.00603755       0.00757939       0.00522789
O       14.25248261      16.97531256      12.18061840      -0.01494366       0.00228947       0.00370470
H       13.95056337      16.37200804      11.43954466      -0.00410576      -0.00860304       0.00804275
H       14.97896957      17.63628184      11.97940003      -0.01059121      -0.00324416       0.00044009
H       14.27456640      16.55006209      13.08697474      -0.01351458       0.00873572       0.00645161
O       16.14781857       3.52679162       0.61999420      -0.00267863       0.00611353       0.01211089
O       16.12326115       1.56736814       2.49190337      -0.00844932      -0.00796792      -0.00323343
O       16.18085618       1.00706072      -0.27453479       0.00923175       0.01413146      -0.00520885
O       14.01427299       2.10210112       0.96051437      -0.00292039      -0.00277214      -0.01189950
Cr      15.59361102       2.09323926       0.95321336       0.00216478       0.00182605      -0.00220695
Cr      17.83478328       1.31400709       3.07768833      -0.00857425       0.00013053      -0.00057018
O       17.77822949       0.44724825       4.41635784      -0.00743698      -0.00646913      -0.00358939
O       18.57663386       0.49862095       1.89795232       0.00026810       0.00984704      -0.00056362
O       18.52469158       2.72738429       3.33101453      -0.01863372       0.00339055       0.00852925
Cl       3.63174301      12.05259394       4.46111784       0.00891823      -0.00424148       0.02086662
Cl       6.39024438      12.91745087       4.36063825       0.00460899       0.00436282      -0.00290897
Cl       5.58883569      10.47242603       3.03181042       0.00104956       0.00419018       0.00072563
Cl       5.65309100      10.58857858       5.92299698       0.02598770      -0.00024953      -0.00005215
C        5.31582939      11.51209408       4.44036046       0.00996714       0.00096929       0.00467395
Cl       9.46452884       3.42498386      11.59812798      -0.00514251      -0.01063955       0.00034320
Cl       9.00358369       4.33476071      14.31727085      -0.00401527       0.00623954      -0.00547040
Cl      10.41897961       6.02866829      12.43464568      -0.00516474      -0.00525302      -0.01581168
Cl      11.67671981       3.62339429      13.46057212      -0.00469992       0.00161463      -0.00254637
C       10.13733508       4.35757448      12.95440871      -0.00484505      -0.00202154      -0.00586709
Cl       7.10407303      15.51769353      -1.37509455       0.00682797      -0.00912836      -0.01050729
Cl       4.74884156      15.02674937       0.23824891       0.00872326      -0.00152211      -0.00580061
Cl       7.27956221      15.69341180       1.51017851       0.01319951      -0.01340565      -0.01099786
Cl       6.91785960      13.11476431       0.24524915       0.00124945      -0.01024437      -0.01394027
C        6.50610484      14.83507870       0.15526066       0.00746873      -0.00871442      -0.01041537
Cl       0.40721335       4.88347249      17.14845979      -0.02456135      -0.03271481       0.00115359
Cl       0.56087752       2.64515758      18.99325039       0.01310754      -0.01548523       0.01740372
Cl       2.21452644       4.99217033      19.39763707      -0.00506818       0.00330865      -0.01512253
Cl       2.75099122       3.16331682      17.19887236      -0.00613761      -0.00730070      -0.00471461
C        1.46393321       3.91106797      18.19759109      -0.00592722      -0.01330926       0.00000040
Cl      10.54309803      11.61653078      10.81553952      -0.00733437       0.00638592      -0.00055140
Cl      11.13435043       9.90215767      13.07745651       0.01263563       0.01433521      -0.00026780
Cl      11.46999914       8.90668324      10.38733474      -0.00090742       0.00863567       0.00053695
Cl       8.80759947       9.37666689      11.43820985       0.00429940       0.00222485       0.01530166
C       10.48396508       9.94935584      11.42720001       0.00223764       0.00803630       0.00403101
Cl       3.95531143       7.79393925      17.03690398       0.00193796      -0.01234469       0.01010786
Cl       4.38328787       5.88934257      14.91019486       0.00639141      -0.00176066       0.00183955
Cl       5.50584557       5.37915564      17.52278550       0.01156341      -0.00750804      -0.00141689
Cl       6.60079983       7.49249348      15.88079621       0.00086528       0.00291990       0.00516945
C        5.10929779       6.62795651      16.34075289       0.00502247      -0.00465906       0.00384287
Cl       2.55527517      14.67212052       9.60384504       0.00704817      -0.00171718       0.00109193
Cl       3.28624661      12.08255926       8.53748036       0.00349277      -0.00009429      -0.00483882
Cl       4.60030751      14.45475267       7.54963620       0.00136426       0.00106873      -0.00397594
Cl       1.83168212      13.98947709       6.88497177      -0.00033256       0.00285776       0.00257176
C        3.07006413      13.79303288       8.14447774       0.00305628       0.00044357      -0.00119267
Cl       8.32279822      10.18119221      17.96114161       0.02662009      -0.01392543       0.00584600
Cl      11.04055454       9.20561990      17.97267157       0.03347865       0.00673714      -0.01258453
Cl      10.47499836      11.91078843      18.86811836       0.01593427      -0.00598586       0.01510575
Cl      10.22846364      11.23399180      16.05993394       0.01245906       0.01888704       0.00970745
C       10.01515346      10.63354049      17.72055554       0.02209215       0.00134636       0.00442039
Cl       6.95781455       6.10131872       2.79197894       0.02231164      -0.02379400      -0.01814941
Cl       8.57380635       6.42605315       0.41239119       0.02393538       0.01527017      -0.01180404
Cl       8.63084532       8.45609060       2.47102117       0.00660798      -0.00937903       0.01307184
Cl       6.24617537       8.10120645       0.84371014       0.01270896      -0.00527140       0.00433202
C        7.61055026       7.27601203       1.63633326       0.01645124      -0.00617012      -0.00316794
Cl       1.79331744       3.53334861      13.63424075       0.00450391      -0.00282577       0.00039876
Cl       1.00011557       6.32631185      13.64742656       0.00281871      -0.00374007      -0.01310029
Cl      -0.98935689       4.24615930      13.98928372       0.00186536      -0.00354625      -0.02186666
Cl       0.28466765       4.62782723      11.41476295       0.02018633      -0.01040613      -0.01345524
C        0.52625694       4.67713560      13.17390467       0.00743501      -0.00520366      -0.01219579
Cl      13.69638769      16.17837841       2.93677406      -0.01475859      -0.01368994      -0.01594678
Cl      11.25334104      15.91914722       1.39267163      -0.01748851       0.01617929      -0.01668775
Cl      12.73132630      18.43726921       1.41267018       0.00050502       0.00521547       0.00307941
Cl      11.29635043      17.58763037       3.76810956      -0.00416479      -0.00399974      -0.00340930
C       12.24591009      17.04549427       2.36712466      -0.00890741       0.00107645      -0.00807434
Cl       3.33307527      15.22805846       3.79590970      -0.01209628       0.00414878       0.00215345
Cl       4.54503221      17.61294831       2.72028847       0.01386237      -0.00265861       0.01662850
Cl       3.88441484      17.47407725       5.53504754      -0.02122100       0.00199249       0.00802892
Cl       1.77490873      17.66351918       3.55284396       0.00376391       0.01174548      -0.01710486
C        3.36518106      17.00575366       3.89829152      -0.00400149       0.00396720       0.00237975
Cl      13.98637653       7.22062264       8.63792885       0.00182521       0.00457832       0.00045738
Cl      16.36647199       6.36218825      10.05628829      -0.00090688       0.00362721       0.00329983
Cl      16.52512407       7.02713988       7.25156662       0.00190556      -0.00432289       0.00136501
Cl      15.14665639       4.61675313       8.09536025      -0.00338665       0.00152469       0.00688837
C       15.50792365       6.30056138       8.50169036       0.00001500       0.00160722       0.00299825
Cl       7.68038053       0.75998557      13.70171815       0.00207442      -0.00837160       0.00522986
Cl       5.16880050      -0.62253312      14.13981602      -0.00634217       0.00645214       0.00147997
Cl       5.34195772       2.25065728      14.54924615       0.00911376       0.00526434      -0.00097908
Cl       6.65607628       0.43498756      16.39275750      -0.00493823      -0.00011580       0.00314629
C        6.20880717       0.70690395      14.69919017      -0.00009110       0.00082647       0.00221097
Cl       0.25580024      11.15524666       4.40834083       0.01549387       0.01253927      -0.00174221
Cl      -0.40191652       8.36307750       4.81959201      -0.01664585       0.01678529      -0.02081612
Cl       1.79813715       9.57154392       6.25851982      -0.01412985      -0.01383721      -0.00020951
Cl       2.01432941       9.06132033       3.41227255      -0.00041693       0.00057353      -0.00144988
C        0.92025826       9.53585575       4.72724830      -0.00407898       0.00359476      -0.00603765
Cl       3.78448228       4.45437609       7.58883012      -0.01767623      -0.00442785       0.00019738
Cl       2.38709349       6.84311206       8.42874579      -0.00786841      -0.00271156       0.00911003
Cl       1.67576574       5.55758660       5.93767550      -0.01460719       0.00951326       0.00512585
Cl       4.21718624       6.94769845       6.18054970      -0.00891161      -0.00171581       0.00874668
C        3.01189873       5.94160656       7.02372499      -0.01227412       0.00006282       0.00564490
Cl      19.05598111      13.95450053       2.04465305      -0.00767401       0.00326791      -0.01227629
Cl      17.54184897      16.40016546       2.38534571      -0.00097544       0.00620109      -0.00670588
Cl      18.12692168      14.74634171       4.68276805      -0.00108058       0.00234828      -0.01013434
Cl      16.24087910      13.80812067       2.69826023      -0.00613064       0.00905409      -0.00773144
C       17.74179896      14.73936282       2.94553734      -0.00395161       0.00513835      -0.00903713
Cl       4.80940370       9.71920790      13.72062359       0.00963497       0.00121389       0.00985286
Cl       2.28125500       9.79173994      12.30657761       0.00384229       0.01015413       0.01488240
Cl       4.77945521       9.76832252      10.82884534      -0.00598049      -0.00634217       0.01166093
Cl       3.99471217      12.12799537      12.32221054       0.01638738       0.00306249       0.00262898
C        3.96701032      10.35674804      12.29885165       0.00521954       0.00344044       0.01358554
Cl      14.84056776       9.34918539      11.88939026       0.00186883       0.00855228       0.00897372
Cl      14.19220734       8.81200032      14.65827726       0.00075535       0.00423066       0.00772631
Cl      16.51602482       7.58260440      13.45204979      -0.00460613      -0.00086403       0.00441861
Cl      13.84510196       6.74635451      12.65774554      -0.00756514       0.01114336       0.00208499
C       14.84408240       8.11973349      13.16576836      -0.00243090       0.00558360       0.00587596
Cl       8.15081600       7.20190368       5.87863705      -0.01267436      -0.00341639       0.01475525
Cl       8.63414613       9.28920967       7.82668261       0.00289603      -0.00396207       0.01109783
Cl      10.77760670       8.41493560       6.08600576      -0.00928897      -0.00827567      -0.00096378
Cl       9.80961065       6.65659015       8.18453956      -0.00006154      -0.00545958       0.00453570
C        9.34245422       7.88619524       6.99138106      -0.00477580      -0.00528111       0.00732267
Cl       2.79921179       2.12651033       4.93385423      -0.00498796       0.00574195      -0.01248926
Cl       4.12322914       4.37317094       3.66912553       0.00024825       0.00911570       0.00093904
Cl       3.44065218       2.02530349       2.12690336       0.02516657       0.00677654      -0.00574076
Cl       5.57346085       1.91382357       4.10218260       0.00395530       0.01378757       0.01606248
C        3.96859027       2.59873916       3.70401469       0.00612260       0.00896032      -0.00010916
Cl      14.40992796       1.47939208      13.92496404       0.00116034       0.00973372      -0.01158855
Cl      13.28017991       1.20450048      11.26448277      -0.01070646       0.00365771      -0.00512311
Cl      16.07078372       0.47581285      11.75279966      -0.01133505      -0.00572239      -0.01372352
Cl      15.24315814       3.25862214      11.78574040       0.00043901      -0.00306748      -0.02200184
C       14.71436502       1.65078372      12.19624196      -0.00521615       0.00135261      -0.01323599
Cl      11.92656085      14.76587724       6.16445738      -0.00703135       0.00270531       0.01040076
Cl       9.66274783      14.14177515       4.46951487       0.00297481       0.00067273      -0.00113645
Cl      10.45604810      12.29060086       6.55786443      -0.00156616      -0.00248629      -0.00271165
Cl      12.12166565      12.63512503       4.20663540       0.00793600       0.00792387       0.00648803
C       11.03787569      13.45825330       5.34725799       0.00047633       0.00214718       0.00314826
Cl       6.03455817       6.70188855       9.45454744      -0.00464807      -0.00290850      -0.00336576
Cl       6.78454394       6.52252178      12.24013069       0.00216126      -0.00448574      -0.00579005
Cl       5.89110825       4.15388682      10.82954247       0.00262659      -0.00409567      -0.00595669
Cl       4.00312295       6.23991376      11.48498107       0.00135553      -0.00816963       0.00106555
C        5.67824104       5.90410095      11.00099765       0.00035217      -0.00486846      -0.00361663
Cl      11.30089494      16.56773931      13.93290046      -0.00570028       0.00718433       0.01586766
Cl      13.95586983      15.89771156      14.95717355      -0.00439158       0.01302794       0.01230139
Cl      12.13772294      13.79792860      14.02582860       0.00461450       0.01014443       0.00444985
Cl      11.60463357      15.22812067      16.49246136      -0.00199615      -0.00231277       0.00976527
C       12.20589239      15.34530916      14.85557432      -0.00151983       0.00691342       0.01110299
Cl      13.31326135      12.70970451       8.79145574       0.00877040      -0.00627901      -0.00057635
Cl      12.89525696      15.16883101      10.24753597       0.00556490      -0.01012334       0.00381092
Cl      15.53362267      14.53456743       9.15826158       0.00936359      -0.01036456       0.01536646
Cl      14.50866793      13.03713396      11.41442296      -0.00365665      -0.01559685       0.00559736
C       14.10973878      13.80846306       9.88343801       0.00510561      -0.01078156       0.00633496
Cl      15.24992064       9.04455790       3.58671690      -0.03763677      -0.01304250      -0.00501043
Cl      17.10745978      10.07161838       1.60693882      -0.01818410      -0.00020531       0.01849061
Cl      14.47518437       9.14902872       0.80876821      -0.01403308       0.01594096      -0.00985035
Cl      16.48356795       7.24369681       1.67236865      -0.02746069       0.00133765      -0.00993392
C       15.83663756       8.86913449       1.91820587      -0.02420557       0.00117982      -0.00171755
Cl      12.80412447       3.42768998      17.05764105      -0.00602585      -0.00126660      -0.00622731
Cl      13.82607230       5.80810582      18.35262140       0.00796753      -0.00825384      -0.00531757
Cl      12.04584991       6.06028055      16.09288273       0.00068337       0.00285894       0.00162488
Cl      14.76240902       5.09119811      15.71951751      -0.00489241      -0.00654649      -0.01012877
C       13.35673078       5.09340531      16.81391462      -0.00047567      -0.00307319      -0.00468026
Cl      16.49746481      10.53528096      16.84317270       0.01765862       0.01435617      -0.00731480
Cl      15.77361635      13.08514705      18.01028585       0.01166625       0.01103503      -0.00520131
Cl      13.73931831      11.46835934      16.75155561       0.01475382       0.00541976      -0.00077823
Cl      15.78074706      12.73541896      15.11981632       0.00637985       0.01256514      -0.00487390
C       15.44893432      11.94604347      16.68881292       0.01266529       0.01091360      -0.00457052
Cl      14.91902451      -0.26433578       5.69232837      -0.00907917      -0.00494850      -0.00981259
Cl      16.99084260      -1.33433056       7.42243940      -0.00404835      -0.00700170      -0.01761347
Cl      14.29755594      -0.90842268       8.44024997       0.00169390      -0.00141549      -0.00681818
Cl      16.00978778       1.35967000       7.83411503       0.00294046      -0.00512353      -0.01652409
C       15.57019529      -0.27608749       7.31405951      -0.00208271      -0.00461364      -0.01264262
Cl      13.41296165       3.17243178       4.95943146      -0.00499180      -0.00873232       0.01124132
Cl      15.83691119       4.59776362       4.28383932      -0.00862050      -0.00886368       0.00022583
Cl      13.51055894       6.05768526       5.26029389      -0.00685480      -0.00848418       0.00263855
Cl      13.48575301       4.88113604       2.62274722      -0.01299369      -0.01569341       0.00604939
C       14.07034302       4.67914766       4.27679173      -0.00815541      -0.01040171       0.00489114
Cl       0.70446839      13.11171448      14.30447831       0.00720263       0.01085236      -0.01177785
Cl       3.09218759      13.79523318      15.80097671       0.00804323      -0.00669707       0.00070798
Cl       1.62348097      11.37715892      16.44069903       0.01161894      -0.01576877      -0.03054634
Cl       0.49344639      13.97486034      17.07033558       0.00965160      -0.03131217       0.00042352
C        1.47975113      13.06732494      15.90725813       0.00971206      -0.01187897      -0.01367620
Cl       7.08683311      12.64201336       9.82279286      -0.00884357       0.00690210       0.01140648
Cl       7.76530194      13.31247518      12.56444724      -0.00279451       0.00863223       0.00882888
Cl       6.15992766      15.13345881      10.98295740       0.00305966       0.01280606       0.00749397
Cl       8.96850682      14.78669813      10.36363504       0.00037920      -0.00006410       0.00542235
C        7.48680611      13.96186237      10.93751000      -0.00216421       0.00693846       0.00842223
Cl      18.72491291       9.33031757       9.35622645       0.00798315      -0.00365853       0.00612033
Cl      16.12433965      10.53597359       8.94872109       0.00653541      -0.00881402       0.00261351
Cl      18.51510137      12.07668723       8.45248189       0.00391926      -0.00685871      -0.00183898
Cl      17.80341108      11.38682353      11.17265162       0.00502254       0.00004388      -0.00036335
C       17.79706144      10.83076417       9.48038669       0.00576289      -0.00484152       0.00148299
Cl      -0.81111354      -1.90778450      14.83357862      -0.00448871       0.00178599       0.01118666
Cl       1.69975242      -0.45235632      14.99243804      -0.00516748       0.00207015       0.01682243
Cl       0.14286955      -0.89452781      17.39683150      -0.01222265       0.00536469       0.01212478
Cl      -0.80876341       0.94767843      15.37553163      -0.00604388       0.00226849       0.00663757
C        0.06214922      -0.56634407      15.65707959      -0.00718910       0.00292939       0.01167145
Cl       4.40915297      -1.12464877       9.00853513      -0.00505000       0.00264096       0.00158681
Cl       6.00007706       0.70074435      10.59297006       0.00405204      -0.00435115      -0.00081450
Cl       3.32648615       1.45620233       9.75917794       0.00230682       0.00221795       0.01169482
Cl       5.45620088       1.29164539       7.80017090      -0.00617227       0.00355271       0.00315905
C        4.79858570       0.58363208       9.28741349      -0.00116616       0.00114319       0.00384143
