194
Lattice="13.986578116289923 0.0 0.0 0.0 13.986578116289923 0.0 0.0 0.0 13.986578116289923" Properties=species:S:1:pos:R:3:forces:R:3 energy=-116579.953125 stress="-0.0015660813078284264 -0.00015014050586614758 7.426513548125513e-05 -0.00015014050586614758 -0.0006923628970980644 -0.00016370086814276874 7.426513548125513e-05 -0.00016370086814276874 -0.0036813272163271904" pbc="T T T"
O       12.59300338      13.89358200      11.24807158      -0.00634789      -0.01079392       0.00742462
H       12.43827229      12.99634243      11.55337150      -0.04249236       0.00545222      -0.00931418
H       12.30907503      14.45928668      12.00656129      -0.00867199       0.00209719       0.00127197
H       14.19026724      14.10523815      13.08389469      -0.02877219      -0.02194883      -0.01251493
O       10.22772016      12.52572234       6.52413494      -0.00820097      -0.01582249      -0.00647730
H       10.76007691      13.92825314       4.83071596       0.01156004      -0.00917995      -0.00416887
H       10.78951702      11.79181143       6.79276622      -0.01470606      -0.01855595      -0.00032946
H       10.21544866      13.10448466       7.29118056       0.01048242      -0.00150399      -0.01753134
P       12.90156753       0.87441068       0.64581446      -0.01114231      -0.01264763       0.02475056
O       13.65427324       2.15459228       1.32528464      -0.00237554       0.00748879      -0.01552069
O       12.09648579       1.38890499      -0.51847238      -0.01442128       0.00646567      -0.01496434
O       12.27572679       0.11608107       1.75591896       0.00595689       0.02416736      -0.02153206
O       14.12085439      -0.01614942       0.05110550      -0.00728929       0.00589538      -0.01121360
H       13.77621481       2.83501026       0.65627738       0.01210859      -0.00200316      -0.01621380
C        4.84553326      10.02078046       3.20672806      -0.01162523       0.01508386       0.00291630
C        4.20471046       8.78854958       3.24150250      -0.01083247       0.01498912       0.00439686
C        4.19095760      11.15758895       3.65722016      -0.01079598       0.01449569       0.00555820
C        2.91068063       8.69306720       3.72606991      -0.00885144       0.01385359       0.00924298
C        2.89216235      11.06250840       4.14982271      -0.00892828       0.01348059       0.00950962
C        2.25526075       9.82874227       4.18984757      -0.00797057       0.01330584       0.01157226
H        5.86232478      10.08716168       2.83981287      -0.01310569       0.01590692      -0.00070893
H        4.71767824       7.90140763       2.89860786      -0.01176543       0.01551567       0.00180563
H        4.69275842      12.11701532       3.62853898      -0.01176980       0.01485488       0.00433915
H        2.41905543       7.72938339       3.74398444      -0.00839034       0.01377372       0.01079660
H        2.38009495      11.94889042       4.50191115      -0.00842546       0.01298126       0.01108272
H        1.24655829       9.75101713       4.57423237      -0.00659941       0.01277165       0.01451897
C       10.87659573       3.61358441       4.87216341       0.00649649      -0.00665748       0.00904210
C       12.02940603       2.91079854       4.50783617       0.00703616       0.00037131       0.00804668
C        9.63766233       2.96339252       5.00409904       0.00710471      -0.00559941       0.00876838
C       11.95862673       1.57641862       4.21158810       0.01018184      -0.00452632       0.00537734
C        9.52295419       1.63786563       4.70010096       0.01033187      -0.00964928       0.00675702
C       10.68080523       0.87290027       4.24349194       0.01094293      -0.00359349       0.00508989
H       10.93938355       4.67967312       5.04635918       0.00450588      -0.00545003       0.01293247
H       12.97521025       3.43093373       4.42167138       0.00552851      -0.00069590       0.00788681
H        8.76804781       3.52986314       5.31289056       0.00704166      -0.01076412       0.00994778
H       12.82215210       1.02829771       3.86217626       0.01008196       0.00061829       0.00509741
H        8.56183804       1.13756536       4.77033515       0.01194202      -0.00981978       0.00780799
H       10.53257384       0.48261278       3.21382587       0.01254651       0.00449595       0.00068057
C        8.29395049      10.95823489       0.56593808      -0.00430822      -0.00151411       0.00739422
C        9.62194238      11.04060125       0.15945587      -0.00358300      -0.00280561       0.00862257
C        7.55609850      12.11719266       0.76283332      -0.00438872      -0.00187562       0.00229059
C       10.21326753      12.27919665      -0.03721629      -0.00430849      -0.00290855       0.00499068
C        8.14641047      13.35950282       0.54314200      -0.00540970      -0.00191766      -0.00134845
C        9.47462362      13.44355258       0.14511073      -0.00435453      -0.00323132      -0.00023199
H        7.83698223       9.98750824       0.72299589      -0.00365935      -0.00128549       0.01068706
H       10.20125636      10.13695296       0.01805228      -0.00316089      -0.00271031       0.01313172
H        6.52111957      12.05845142       1.07932450      -0.00473322      -0.00079012       0.00189147
H       11.26076896      12.35348702      -0.29834888      -0.00361671      -0.00382866       0.00726508
H        7.56594032      14.26254154       0.69042564      -0.00549236      -0.00227575      -0.00532100
H        9.96592073      14.39538628      -0.01714423      -0.00535123      -0.00352985      -0.00226197
C        9.83065334       3.98564633       1.83286115      -0.00269955      -0.01206282      -0.00010689
C        8.87192367       3.01881251       1.55320732      -0.00428770      -0.01010284       0.00069609
C        9.44081864       5.29383533       2.08303539       0.00014600      -0.01062143      -0.00331904
C        7.52619830       3.36422133       1.51787016      -0.00355975      -0.00718267      -0.00186008
C        8.09592475       5.64269842       2.03805412       0.00103339      -0.00783719      -0.00558589
C        7.13635246       4.67809526       1.75875682      -0.00055856      -0.00591127      -0.00505638
H       10.87749752       3.71092359       1.84733794      -0.00337367      -0.01441106       0.00174091
H        9.18592798       2.00238454       1.35564646      -0.00667129      -0.01120365       0.00369605
H       10.18753736       6.04619302       2.30592729       0.00148638      -0.01194623      -0.00459533
H        6.77591042       2.61303225       1.30122248      -0.00479751      -0.00585580      -0.00086488
H        7.79093851       6.66247720       2.23740183       0.00324254      -0.00679271      -0.00814313
H        6.08759464       4.94869094       1.73857819       0.00015040      -0.00360170      -0.00719743
C       13.23838218       5.70647362       7.14806146       0.00894770       0.00798862       0.00960551
C       13.31250926       6.94295560       6.51156590       0.01485263       0.00464663       0.00401788
C       12.00727022       5.20476962       7.55024982       0.00653861       0.01520536       0.01013966
C       12.16088644       7.68777352       6.29436862       0.01788028       0.00780888      -0.00123721
C       10.85404867       5.94670384       7.32593816       0.00964753       0.01837059       0.00519005
C       10.93565950       7.19121528       6.71778268       0.01562549       0.01461697      -0.00133676
H       14.13452591       5.12440321       7.31274192       0.00657025       0.00531236       0.01301380
H       14.26921626       7.33499659       6.18962038       0.01662664      -0.00070116       0.00341422
H       11.94237758       4.22864673       8.01546923      -0.00057278       0.01730978       0.01301499
H       12.21543641       8.65263637       5.80398772       0.02238887       0.00493658      -0.00594207
H        9.89069241       5.54999731       7.61346879       0.00812539       0.02327556       0.00595344
H       10.03710400       7.77311203       6.58563012       0.01794553       0.01682912      -0.00634050
C        2.65169527       7.23389519       0.00620373      -0.01234150      -0.00461195       0.00159426
C        3.99316056       6.87176289       0.06490468      -0.01257816      -0.00311299       0.00074636
C        2.29091461       8.57715691       0.02209593      -0.01334976      -0.00440443      -0.00032619
C        4.97222324       7.85456591       0.14154125      -0.01294371      -0.00314482      -0.00175460
C        3.26972721       9.55974461       0.10830071      -0.01369616      -0.00439551      -0.00261411
C        4.60822524       9.19539909       0.17037286      -0.01391388      -0.00293604      -0.00319123
H        1.89114824       6.46680627      -0.06823782      -0.01208224      -0.00474137       0.00366155
H        4.27306513       5.82637516       0.02815965      -0.01183449      -0.00318374       0.00189388
H        1.24698338       8.86081111      -0.02990726      -0.01319668      -0.00537636      -0.00020412
H        6.01976327       7.57593473       0.18041854      -0.01297426      -0.00196130      -0.00244085
H        2.98710437      10.60536988       0.14207146      -0.01406926      -0.00424868      -0.00432430
H        5.37148302       9.95918084       0.22897533      -0.01432250      -0.00274067      -0.00467074
C        8.04870388      10.18252113      11.29902012       0.00194749       0.01246873      -0.00045107
C        6.93426756       9.36722135      11.43480542       0.00108002       0.01345047      -0.00038599
C        7.89442703      11.55923817      11.17382890       0.00301744       0.01199439      -0.00120468
C        5.66284318       9.92690452      11.44644190       0.00192988       0.01468062      -0.00124353
C        6.62379790      12.11788828      11.20556460       0.00392502       0.01337726      -0.00239112
C        5.50696983      11.30132500      11.34485836       0.00304976       0.01443747      -0.00241865
H        9.04154248       9.75307166      11.30357797       0.00141028       0.01144855       0.00015721
H        7.05371173       8.29278831      11.52508882       0.00011083       0.01358491       0.00019778
H        8.76810177      12.19350518      11.09416474       0.00355484       0.01135773      -0.00159520
H        4.79327961       9.29085079      11.52531768       0.00131448       0.01555287      -0.00131463
H        6.50530181      13.19152973      11.13044294       0.00473305       0.01321566      -0.00327486
H        4.51296539      11.73024470      11.35890432       0.00371814       0.01544988      -0.00365827
C        5.91240799       9.89293169       8.30468310      -0.00939067       0.00630393      -0.00457424
C        5.31798701       8.66875566       8.58082189      -0.00737916       0.00619044      -0.00236812
C        5.12454122      10.98696492       7.98026891      -0.01092990       0.00404021      -0.00803120
C        3.93764350       8.53528582       8.53170946      -0.00719523       0.00360351      -0.00374772
C        3.73983994      10.85920235       7.93553730      -0.01060089       0.00137246      -0.00946582
C        3.14472822       9.63335238       8.21136337      -0.00854144       0.00133003      -0.00746140
H        6.98907958       9.99196629       8.35091607      -0.00944862       0.00898708      -0.00411590
H        5.93673423       7.81195502       8.81531512      -0.00659431       0.00778671       0.00075046
H        5.58902888      11.94282501       7.77353500      -0.01259457       0.00416157      -0.00996866
H        3.48306900       7.57283138       8.73265577      -0.00576442       0.00364663      -0.00184690
H        3.12477659      11.71421491       7.68525905      -0.01171114      -0.00050114      -0.01230963
H        2.06678320       9.53331814       8.16859429      -0.00825711      -0.00070780      -0.00839641
C       11.02099903       4.56423154      12.71551659       0.00228012       0.00033198      -0.00139505
C        9.63056169       4.57471980      12.72766181       0.00335924       0.00231607      -0.00486993
C       11.71355659       5.77011214      12.75491650       0.00492203      -0.00139798       0.00101510
C        8.93699368       5.77612131      12.79217540       0.00470705       0.00388867      -0.00637963
C       11.02276122       6.97748913      12.81816948       0.00622086       0.00003780      -0.00027155
C        9.63237694       6.97898675      12.84290151       0.00710575       0.00219716      -0.00419936
H       11.54551097       3.61373745      12.70720297       0.00104180      -0.00041163      -0.00029191
H        9.09037205       3.63834060      12.69557062       0.00155101       0.00368492      -0.00564171
H       12.79757251       5.77299417      12.74187586       0.00424320      -0.00409789       0.00414804
H        7.85362035       5.77203690      12.81771203       0.00516213       0.00530184      -0.00893120
H       11.56521290       7.91430354      12.84841014       0.00807822      -0.00122610       0.00205920
H        9.09366083       7.91658877      12.91041489       0.00813462       0.00317816      -0.00534819
C       10.73978431       8.89949707       2.57589505       0.00640814      -0.00166335       0.01274446
C       10.58765432      10.16376279       3.13564869       0.00792295       0.00065468       0.00617488
C       12.00687486       8.42252016       2.26369742       0.00550334      -0.00046125       0.00525298
C       11.70098305      10.96373043       3.35614513       0.00669441       0.00551787      -0.00774110
C       13.12394884       9.21717681       2.50323969       0.00454392       0.00403432      -0.00798597
C       12.96823855      10.49245123       3.03514168       0.00597095       0.00641286      -0.01498751
H        9.86513279       8.29839397       2.35718150       0.00676264      -0.00552864       0.02360330
H        9.59748493      10.54373805       3.35491173       0.00857638      -0.00029619       0.01248324
H       12.12169620       7.44230372       1.81623504       0.00435442      -0.00256234       0.01031791
H       11.58521514      11.96859051       3.73727393       0.00751627       0.00711945      -0.01356798
H       14.11491501       8.85134012       2.26280793       0.00393684       0.00473897      -0.01279403
H       13.82982426      11.13148408       3.17617805       0.00456692       0.00981298      -0.02556588
C        8.96638129       4.53676020       9.63424825      -0.00535225      -0.00930361      -0.01050225
C        9.49009374       3.25693992       9.48576683      -0.00898822      -0.01098778      -0.00455712
C        7.75665463       4.86833721       9.03921653      -0.00461513      -0.00920360      -0.01309681
C        8.80668775       2.31743083       8.72472767      -0.01097636      -0.01295827       0.00068774
C        7.06725470       3.92462800       8.28649592      -0.00653273      -0.01128436      -0.00782414
C        7.59677061       2.65035439       8.12351291      -0.01049643      -0.01333001      -0.00099402
H        9.50857244       5.27547700      10.20691371      -0.00453091      -0.00834683      -0.01310450
H       10.42661803       2.99692298       9.96392251      -0.00945479      -0.01124441      -0.00311381
H        7.35418358       5.86727134       9.15740246      -0.00218868      -0.00794502      -0.01841638
H        9.22117443       1.32538304       8.59714539      -0.01390783      -0.01441164       0.00545842
H        6.12342969       4.18788116       7.82673543      -0.00576286      -0.01137772      -0.00956124
H        7.07206095       1.91761250       7.52314993      -0.01227023      -0.01522627       0.00342088
C        2.94532690       3.27687772      11.40221029      -0.00490892      -0.00741626       0.00440009
C        2.34855606       4.49355708      11.08949120       0.00061309       0.00326905      -0.00044753
C        4.32935290       3.18430802      11.49209026       0.00658778       0.00223973       0.00248770
C        3.13820117       5.61643297      10.87035005      -0.00770272      -0.00741079      -0.00100183
C        5.12007769       4.30605925      11.26966978      -0.00565046      -0.00532113       0.00076283
C        4.52298674       5.52230131      10.95705972      -0.00219426      -0.00135361      -0.00212243
H        2.33450300       2.40236441      11.57984513       0.00580205       0.00209524       0.00664242
H        1.27018529       4.56650542      11.02004895      -0.00121571      -0.00527840       0.00353703
H        4.79301005       2.23604806      11.73337855      -0.00096992      -0.00023392       0.00474036
H        2.67401141       6.57085060      10.65591886      -0.00530194      -0.00483851      -0.00339613
H        6.19785378       4.22928276      11.33471220      -0.00281344      -0.00050261      -0.00111493
H        5.13412935       6.40340133      10.80005353      -0.00568727      -0.00328739      -0.00404853
C        2.97597008       3.03105794       4.90744441       0.00263465      -0.01618300       0.00315193
C        2.19510069       4.01049799       4.30367848       0.00367635      -0.01705233       0.00067270
C        3.48268140       3.23188562       6.18673989       0.00419193      -0.01238193       0.00184970
C        1.93570016       5.19726044       4.97731083       0.00624305      -0.01450068      -0.00344805
C        3.21801383       4.41811348       6.86327558       0.00657594      -0.01000297      -0.00218472
C        2.45453244       5.40454383       6.25048625       0.00748009      -0.01096688      -0.00465014
H        3.17921169       2.10779011       4.38055932       0.00087680      -0.01821229       0.00635652
H        1.78219441       3.84138623       3.31699296       0.00254281      -0.01976807       0.00170556
H        4.07876436       2.46202080       6.66095851       0.00367849      -0.01146418       0.00375630
H        1.30967407       5.95160371       4.51806042       0.00767960      -0.01481040      -0.00573770
H        3.60035163       4.57345542       7.86582282       0.00780118      -0.00693850      -0.00324257
H        2.25720999       6.33360629       6.77246647       0.00983606      -0.00900440      -0.00776812
C       11.95921895      11.16217031       9.24207865       0.01228089       0.00890632       0.00966914
C       10.78995422      10.40723188       9.21711529       0.01259898       0.00822897       0.00710939
C       13.18315668      10.53414400       9.45240870       0.01164578       0.00972884       0.01257967
C       10.84540870       9.03206501       9.41658935       0.01313576       0.00835557       0.00625236
C       13.23483741       9.15827208       9.64756764       0.01220857       0.00984848       0.01162494
C       12.06590508       8.40724795       9.63539893       0.01264554       0.00906709       0.00793379
H       11.92685294      12.24020948       9.13282710       0.01193162       0.00867714       0.00843760
H        9.83127891      10.88739606       9.05907007       0.01262903       0.00710579       0.00595545
H       14.09082500      11.12405320       9.47342371       0.01128748       0.01031863       0.01593559
H        9.93599768       8.44379996       9.39553370       0.01330790       0.00819491       0.00409130
H       14.18769082       8.66819597       9.80656230       0.01180722       0.01046470       0.01377560
H       12.10373815       7.33477363       9.77538741       0.01312735       0.00914982       0.00684991
C        5.89873611       8.22455988       5.63514441       0.00390512      -0.00649981      -0.00473135
C        7.12035574       8.78760456       5.29346345       0.00322868      -0.00536527      -0.00466698
C        5.75320567       6.84549133       5.67527064       0.00559239      -0.00643175      -0.00378089
C        8.19733087       7.96610150       4.99508653       0.00458074      -0.00451574      -0.00244853
C        6.83465135       6.02251923       5.38766730       0.00660767      -0.00537789      -0.00237195
C        8.06003056       6.58334340       5.05680282       0.00624585      -0.00429036      -0.00144339
H        5.05613052       8.86093074       5.85901896       0.00339098      -0.00726239      -0.00523858
H        7.22824195       9.86535465       5.26133093       0.00190030      -0.00555335      -0.00600058
H        4.79310122       6.41310090       5.92170914       0.00610119      -0.00740695      -0.00402907
H        9.14775442       8.40054983       4.71659243       0.00402145      -0.00366339      -0.00188792
H        6.71534613       4.94634989       5.40927238       0.00779249      -0.00528838      -0.00184226
H        8.90454734       5.94901179       4.82654454       0.00699444      -0.00365390      -0.00028825
