193
Lattice="13.758866521819398 0.0 0.0 0.0 13.758866521819398 0.0 0.0 0.0 13.758866521819398" Properties=species:S:1:pos:R:3:forces:R:3 energy=-99174.5546875 stress="0.00012726090790238231 -0.00032300641760230064 -0.00016906131349969655 -0.00032300641760230064 0.0001723623718135059 -0.00028808410570491105 -0.00016906131349969655 -0.00028808410570491105 -0.0007472544093616307" pbc="T T T"
O        4.27149417      13.63529619       4.62795820      -0.02780256       0.00744830      -0.00044203
H        3.52850654      13.11555989       4.17536146      -0.02759683       0.00737822      -0.00213385
H        4.23853809      14.57685875       4.27488714      -0.02645288       0.00779617      -0.00007731
H        5.12653408      13.23394375       4.38046800      -0.02846742       0.00748825      -0.00116563
O       13.32282446      12.73288958       5.15420745       0.03803063      -0.01512513      -0.02412893
H       12.47388833      12.48044832       5.52258149       0.03502307      -0.01693984      -0.00795206
H       12.21300328      15.22392070       3.84458109      -0.00709603       0.02444771       0.00062682
H       13.10324866      13.35232300       4.42760537       0.01594199       0.01412889      -0.01161581
O       11.20934360       1.20782829       0.95998884       0.01125026      -0.00799823       0.00267851
O       13.82424041       0.71569547       0.78019628       0.01919508      -0.03697145       0.02215874
O       12.72208173       0.86471067       3.29191105       0.00035928       0.03696336       0.02735412
O       12.95249248       3.06710616       1.63857773       0.02619755       0.00554204      -0.02152881
Cr      12.66397404       1.49384034       1.56859678       0.02198794      -0.00146085       0.01778734
C        6.68346723       5.86023862       9.76140586      -0.00003049      -0.00124347      -0.00114514
C        5.52967578       5.04857519       9.18706801       0.00081726      -0.00277650      -0.00059846
C        7.85238939       5.00308725      10.23213478      -0.00002009       0.00011665       0.00162444
C        4.36062132       5.90467986       8.71526626       0.00130983      -0.00371397      -0.00372184
C        8.96775733       5.81909796      10.87072929      -0.00069222       0.00200534       0.00035845
C        3.18081864       5.07991138       8.21842504       0.00122383      -0.00480273      -0.00190748
H        7.03626655       6.57949299       9.01106896       0.00050502      -0.00263570      -0.00245601
H        6.31698439       6.46259688      10.60189326      -0.00093107       0.00022227      -0.00288531
H        5.17495578       4.34102170       9.94488313       0.00017326      -0.00103889       0.00055134
H        5.89045092       4.43475460       8.35497383       0.00167437      -0.00457750       0.00104490
H        7.48412166       4.26067597      10.94798195      -0.00031547       0.00180128       0.00307941
H        8.24752800       4.43331885       9.38377752       0.00070505      -0.00179690       0.00320294
H        4.03595007       6.55104806       9.53806211       0.00103590      -0.00123014      -0.00578392
H        4.70646112       6.57801405       7.92215920       0.00191563      -0.00624359      -0.00547841
H        9.37127482       6.55357033      10.16975161       0.00001093      -0.00004710      -0.00137103
H        9.79180853       5.18817151      11.20534809      -0.00095482       0.00285055       0.00282706
H        8.59916836       6.36620014      11.74063070      -0.00140183       0.00444367      -0.00161985
H        3.45871946       4.47486331       7.35286894       0.00196950      -0.00900391       0.00147195
H        2.82984495       4.39747019       8.99506071      -0.00076843      -0.00082044       0.00073402
H        2.33959926       5.71030952       7.92519543       0.00242293      -0.00518698      -0.00599878
C        4.45777524      10.19102644       7.10316966      -0.00013295       0.00565737      -0.00134492
C        5.44595879      11.28382437       7.48727073      -0.00084411       0.00647667      -0.00033534
C        3.20352246      10.18810076       7.96772347       0.00186567       0.00057119       0.00110215
C        6.70837784      11.29092223       6.63672854      -0.00152671       0.00832635      -0.00136456
C        2.22082708       9.09187115       7.58644741       0.00286099      -0.00014251       0.00075384
C        7.68667596      12.39316478       7.01553645      -0.00099218       0.00706953       0.00043905
H        4.17148047      10.30396534       6.04803295      -0.00276165       0.00829136      -0.00051442
H        4.95319695       9.21486596       7.17319493       0.00160314       0.00628340      -0.00372222
H        5.72928918      11.15707130       8.53777465       0.00028822       0.00547488      -0.00065905
H        4.95179862      12.26262520       7.43018261      -0.00128695       0.00623390       0.00108614
H        3.49701762      10.07246329       9.01619961       0.00367250       0.00096696      -0.00003728
H        2.71583762      11.16592400       7.89443576      -0.00073430      -0.00012022       0.00363401
H        7.19935590      10.31707206       6.72619294      -0.00183722       0.00787595      -0.00410677
H        6.43915254      11.37366219       5.57193334      -0.00218666       0.01106603      -0.00068310
H        1.86908931       9.21789585       6.55975266       0.00011468       0.00345794       0.00213046
H        1.34637327       9.09419263       8.23730200       0.00534159      -0.00388306       0.00435808
H        2.68883692       8.10819293       7.65694135       0.00566070       0.00053008      -0.00514271
H        7.22850857      13.38227770       6.92428505      -0.00034477       0.00729898       0.00267996
H        8.00543792      12.28459682       8.05424236      -0.00059136       0.00446778      -0.00014958
H        8.57897152      12.37481756       6.38846016      -0.00116259       0.00814684      -0.00005753
C       10.10664432      11.66728075      11.11863176      -0.00084627       0.00242257      -0.00071572
C        8.58402792      11.60686597      11.13338059       0.00080889       0.00428349       0.00080204
C       10.77081876      10.29500207      11.11517387       0.00068444       0.00447881       0.00300998
C        7.93004884      12.98265920      11.20201857       0.00208223       0.00313026       0.00200929
C       12.28789044      10.37634259      11.21858021      -0.00541660      -0.01206546      -0.02220738
C        6.41460799      12.92200307      11.33648364       0.00270694       0.00481819       0.00216096
H       10.44233113      12.23566538      10.24275143       0.00142225       0.00276245       0.00197715
H       10.45003555      12.23317417      11.99151804       0.00103197       0.00145799       0.00174582
H        8.25633387      11.01077717      11.99340453       0.00020620       0.00266796       0.00028703
H        8.22447786      11.06922989      10.24619340       0.00046291       0.00439055      -0.00006127
H       10.38080684       9.70593520      11.95127813      -0.00070991       0.00100742      -0.00033259
H       10.48583350       9.75294395      10.20651871       0.00087629       0.00193276      -0.00080422
H        8.35300554      13.53208690      12.04877051       0.00227407       0.00277618       0.00273290
H        8.20070526      13.55664244      10.30920781       0.00232404       0.00447844       0.00276691
H       12.70889592      10.95239472      10.39161866      -0.00010103      -0.00107150       0.00227575
H       12.75046258       9.38743360      11.20781450      -0.00059306       0.00537205       0.00234960
H       12.58545586      10.87212785      12.14242029       0.00906891       0.02383126       0.02535281
H        5.96100302      12.39871447      10.49173871       0.00163414       0.00546259       0.00150967
H        6.12345831      12.38814431      12.24424733       0.00161438       0.00404441       0.00159799
H        5.97089967      13.91759734      11.38341842       0.00232503       0.00445151       0.00280767
C       11.13961942       8.06620496       7.44152355       0.00448179      -0.00042982       0.00144431
C       11.64899610       6.71143429       7.91880587       0.00445813      -0.00092358       0.00015000
C       12.10447845       9.20835754       7.73038626       0.00604522      -0.00133887       0.00000542
C       10.73313688       5.55587274       7.53371454       0.00400767      -0.00065906       0.00005895
C       11.54158197      10.58156212       7.38843534       0.00789908      -0.00054875       0.00032993
C       11.18611859       4.21616807       8.09670980       0.00394231      -0.00087091      -0.00035359
H       10.94083728       8.02297632       6.36604248       0.00248602       0.00008600       0.00190991
H       10.17225886       8.27377875       7.91710620       0.00546092       0.00013957       0.00339982
H       11.76914455       6.73463272       9.00857252       0.00550545      -0.00181027       0.00000590
H       12.64991384       6.53285745       7.50811434       0.00406957      -0.00090152      -0.00096858
H       12.38402778       9.18071594       8.78692960       0.00723813      -0.00130090      -0.00018537
H       13.02624661       9.04416155       7.16636840       0.00538152      -0.00296402      -0.00078604
H        9.71629204       5.77400848       7.87647476       0.00417110      -0.00065931       0.00049815
H       10.67346422       5.49744192       6.44250282       0.00366073      -0.00031840       0.00008276
H       11.31858321      10.65196940       6.32150998       0.00582051      -0.00033462       0.00032622
H       12.24736872      11.37653226       7.63741836       0.00955138      -0.00172390      -0.00064061
H       10.61285950      10.77583812       7.93208609       0.00928698       0.00164563       0.00150898
H       12.18996739       3.96366419       7.74852774       0.00429514      -0.00057948      -0.00029045
H       11.21301863       4.24002305       9.18791619       0.00369766      -0.00145330      -0.00050595
H       10.51761654       3.40655273       7.79882881       0.00433207      -0.00078923      -0.00110306
C        4.06175670       9.05685808       1.78625952      -0.00473714       0.00467440       0.00060654
C        3.80396008      10.34778968       2.55701134      -0.00737771       0.00484750      -0.00102100
C        5.42627582       8.45063146       2.07912417      -0.00331390       0.00726514       0.00008607
C        2.39941014      10.89734998       2.34070990      -0.00884941       0.00059360      -0.00354600
C        5.68595134       7.14711853       1.33790962      -0.00178099       0.00793210      -0.00066426
C        2.13407939      12.20995042       3.06390488      -0.01144555       0.00306055      -0.01025197
H        3.27958020       8.33117635       2.03577264      -0.00349565       0.00321290       0.00121786
H        3.96085032       9.25287029       0.71399597      -0.00558312       0.00303280       0.00039360
H        4.55139512      11.09768313       2.25282296      -0.00951208       0.00612842      -0.00193706
H        3.96512505      10.16129728       3.62857776      -0.00784397       0.00682379      -0.00084680
H        6.20742491       9.17874279       1.83300256      -0.00467287       0.00884935      -0.00013239
H        5.50544253       8.27365767       3.15510612      -0.00306784       0.00764917       0.00021225
H        2.22981716      11.04926972       1.27265609      -0.01057679      -0.00583038      -0.00463325
H        1.66946092      10.15277896       2.66587314      -0.00591725       0.00077406       0.00241752
H        4.93942982       6.39528207       1.60552041      -0.00083207       0.00704700      -0.00062574
H        6.67072136       6.73956963       1.57241181      -0.00130041       0.00941650      -0.00093845
H        5.63737353       7.28572169       0.25612009      -0.00254916       0.00880393      -0.00047976
H        2.22432150      12.08218012       4.15557642      -0.01680857       0.00796137      -0.00911072
H        2.79162177      12.98850553       2.65072546      -0.01056485       0.00190622      -0.01145711
H        1.12434271      12.59089549       2.91419006      -0.01084039       0.00231493      -0.01532793
C       10.56312955       8.27595566       1.00789785       0.00054169      -0.00450166       0.00046711
C        9.67410259       9.51393610       1.01539881      -0.00091851      -0.00525919       0.00130484
C        9.77734525       6.96837313       1.01790505       0.00223160      -0.00547545       0.00303861
C       10.43437417      10.82971945       1.12057717      -0.00089157      -0.00521232       0.00189079
C       10.65118701       5.72771594       0.89502431       0.00394678      -0.00399086      -0.00096649
C        9.52128558      12.04605741       1.16983264      -0.00051302      -0.00514418       0.00185133
H       11.21565853       8.30184025       0.12681747      -0.00135916      -0.00417180      -0.00081426
H       11.23346531       8.30269797       1.87504415       0.00194062      -0.00303475      -0.00061893
H        8.96645270       9.44636826       1.84739671       0.00011478      -0.00614708       0.00194943
H        9.05862490       9.52179045       0.10717150      -0.00163226      -0.00575197       0.00201637
H        9.18877527       6.91721035       1.94156604       0.00604579      -0.00680993       0.00535178
H        9.04816358       6.98989560       0.20002049      -0.00112331      -0.00628070       0.00598818
H       11.06489694      10.80946828       2.01533685      -0.00099747      -0.00637708       0.00156423
H       11.12126546      10.92089050       0.27381604      -0.00027406      -0.00460694       0.00170594
H       11.21180107       5.74158201      -0.04080779       0.00057760      -0.00359847      -0.00286734
H       10.06580861       4.80785628       0.90996417       0.00533399      -0.00494647       0.00174303
H       11.37860501       5.65825094       1.70494176       0.00733446      -0.00263152      -0.00398687
H        8.86485200      12.07615993       0.29623304       0.00019427      -0.00506236       0.00198844
H        8.87922181      12.01345439       2.05502290      -0.00089676      -0.00533218       0.00145042
H       10.08803686      12.97851423       1.19158506       0.00058542      -0.00464690       0.00218415
C        3.01884928       3.08071438      12.17313050      -0.00733846      -0.00203831       0.00086144
C        2.47082315       4.50079141      12.20711004      -0.00810200      -0.00231749       0.00135499
C        1.95137650       2.01983948      11.94031322      -0.00749081      -0.00308234       0.00635909
C        3.54202384       5.55565124      12.45214396      -0.00782269      -0.00180448      -0.00164515
C        2.51643208       0.60679201      11.91668208      -0.00635989      -0.00269777       0.00601482
C        3.00284638       6.97825924      12.39541176      -0.00864232      -0.00219178      -0.00209292
H        3.79315281       3.00372323      11.39869330      -0.01066078      -0.00208280      -0.00257415
H        3.52750687       2.87541649      13.12265771      -0.00293046      -0.00135033      -0.00146237
H        1.70502247       4.56842795      12.98633958      -0.00680941      -0.00203902       0.00325683
H        1.96116624       4.71650740      11.26076778      -0.01027972      -0.00326495       0.00277233
H        1.18982258       2.08497542      12.72234580      -0.00475329      -0.00198160       0.00906232
H        1.44379476       2.22818203      10.99209781      -0.01100731      -0.00494858       0.00794336
H        4.00850612       5.37426993      13.42528341      -0.00538159      -0.00052016      -0.00282249
H        4.34067315       5.43842228      11.71296211      -0.00950335      -0.00210367      -0.00374189
H        3.25311630       0.48295877      11.11831646      -0.00768906      -0.00174737       0.00452927
H        1.72795923      -0.13193819      11.77310504      -0.00585714      -0.00313772       0.00723544
H        3.00977746       0.37182336      12.86314277      -0.00531840      -0.00248429       0.00543720
H        2.50838077       7.16751161      11.43954033      -0.00875017      -0.00260789      -0.00195856
H        2.26907967       7.15530256      13.18433425      -0.00877951      -0.00273471      -0.00196484
H        3.79668351       7.71836157      12.50828727      -0.00913028      -0.00165394      -0.00200895
C        4.73735522       1.65652039       2.04500287       0.00301230      -0.00135446      -0.00247633
C        3.91232237       2.48725601       3.02526050       0.00356241       0.00085688      -0.00353658
C        6.24263845       1.80756864       2.24404131       0.00311013      -0.00807327       0.00227496
C        2.39742605       2.37014074       2.90636851       0.00374559       0.00258812      -0.00499299
C        7.06892376       0.88976074       1.35570421       0.00158466      -0.00185028      -0.00582603
C        1.67370400       3.37743777       3.78538930       0.00460398      -0.00483578       0.00405276
H        4.45866026       0.59256336       2.08419122      -0.00140622      -0.00011833      -0.00435011
H        4.46927623       1.96039475       1.03017704       0.00745331       0.00156501      -0.00260276
H        4.20462525       3.53760378       2.90945733       0.00461725       0.00051400      -0.00402329
H        4.22754080       2.31921630       4.08677831       0.00398623       0.00198780      -0.00352404
H        6.51460381       2.85236486       2.06321981       0.00696083      -0.00736135       0.01308437
H        6.50125469       1.62440651       3.29834241       0.00025217      -0.01981178       0.00073409
H        2.10087505       2.50716168       1.86367810       0.00435673       0.01169614      -0.00363532
H        2.05529118       1.35970334       3.16025115       0.00257011       0.00058520      -0.01496124
H        6.87025676      -0.16192843       1.58220028      -0.00346660      -0.00324641      -0.01817524
H        8.13915482       1.05575525       1.48054791       0.00206116      -0.00751308      -0.00086418
H        6.82910695       1.04364158       0.30221817       0.00520789       0.01135550      -0.00447589
H        1.92385316       3.24240703       4.84161605       0.00236654      -0.01646912       0.00287646
H        1.94456686       4.39712855       3.50428380       0.00678167      -0.00266057       0.01505730
H        0.59714978       3.27939667       3.66299848       0.00452206      -0.00208502       0.00202218
C        7.13306566       6.33042943       5.00236284       0.00036901      -0.00269721       0.00024709
C        8.23704997       7.35841524       5.20408485       0.00032735      -0.00284512       0.00132704
C        7.34331478       5.05833589       5.81241077       0.00064495      -0.00380626      -0.00156468
C        8.01832330       8.63538947       4.40699414      -0.00090945      -0.00136327       0.00380167
C        6.25012121       4.02893296       5.56917603       0.00073603      -0.00357741      -0.00286379
C        9.12745954       9.65894618       4.58791255      -0.00006655      -0.00196958       0.00361135
H        6.16676566       6.77511900       5.27237467       0.00040129      -0.00315243       0.00109541
H        7.06216717       6.07579948       3.93806546       0.00003841      -0.00108174      -0.00011235
H        9.19897360       6.91551289       4.92161926       0.00018716      -0.00206693      -0.00042449
H        8.31973046       7.60049501       6.27015998       0.00118964      -0.00474961       0.00161713
H        8.31837077       4.62767275       5.56425527       0.00063026      -0.00339429      -0.00241505
H        7.38727827       5.31316368       6.87585841       0.00077651      -0.00524873      -0.00124955
H        7.92257381       8.37881927       3.34924553      -0.00257665       0.00026053       0.00352091
H        7.05817800       9.07563888       4.69455983      -0.00019705      -0.00159504       0.00608194
H        5.26496585       4.44173288       5.79951512       0.00063176      -0.00349472      -0.00350673
H        6.38822393       3.13394518       6.18097084       0.00010696      -0.00384085      -0.00313540
H        6.24223274       3.72687671       4.52031704       0.00153816      -0.00341387      -0.00289765
H        9.25052786       9.91826448       5.64037502       0.00107700      -0.00299967       0.00372180
H       10.08415416       9.26952369       4.23233437      -0.00075969      -0.00204399       0.00221879
H        8.92610067      10.57954149       4.03661458      -0.00046370      -0.00134748       0.00480424
