200
Lattice="12.541114842664223 0.0 0.0 0.0 12.541114842664223 0.0 0.0 0.0 12.541114842664223" Properties=species:S:1:pos:R:3:forces:R:3 energy=-1041836.9375 stress="0.0034724141005426645 -0.0005262263875920326 0.0008287631499115378 -0.0005262263875920326 0.0014005390694364905 0.0002544166491134092 0.0008287631499115378 0.0002544166491134092 0.003300498938187957" pbc="T T T"
Pm       9.75096071      12.13328283       6.47593830      -0.00273162      -0.00669719      -0.00629097
Pm      10.17677979      11.83592485       2.53815656       0.00038449       0.00149824      -0.00207639
O        3.08206961      11.64441436      10.06824454       0.00026202      -0.00156188      -0.00029480
O        1.37504693      11.12804119      12.33681579       0.00171247       0.00373125       0.00217825
O        2.72964856       8.95434069      10.96759275      -0.00514194      -0.00024557       0.00337461
O        0.47379847      10.33829991       9.74081940      -0.00452167       0.00252210       0.00466168
Mo       1.89493575      10.49754484      10.77164860      -0.00153618       0.00142895       0.00364661
O        8.56466625      10.03835204       4.68993593       0.00418609       0.00511467      -0.01253343
O        7.82198107      12.04864037       2.91999944      -0.00268161       0.00097942      -0.00928164
O       10.29615430      12.31667966       4.46324307       0.00026837       0.00472903      -0.00362828
O        7.48791730      12.24834466       5.70091844      -0.00207373      -0.00009871      -0.00859827
Mo       7.25113439      11.12603975       4.37561864      -0.00132109      -0.00011339      -0.00981155
O        2.64033845      10.61711238       3.54240852      -0.01429264      -0.00508474       0.00501770
O        0.97048730      11.40272614       5.72980612      -0.00142568       0.00304872       0.01294813
O        3.95929011      11.67602364       6.03508923       0.00140569      -0.00994523      -0.00097068
O        2.57531387       9.09055283       5.88964766      -0.00901076      -0.00344139       0.00581148
Mo       2.50859731      10.70400625       5.28860311      -0.00583792      -0.00442129       0.00443396
O        5.62682290      13.41404524       7.90058722       0.00337750      -0.00178072      -0.00994317
H        5.02460083      14.00658005       8.39264103       0.00219209      -0.00279531      -0.00989168
H        5.08187956      12.67001033       7.60734778       0.00446931      -0.00199953      -0.01254470
O       11.79371770       6.14442346       5.97749805       0.00863793      -0.00796397      -0.00054330
H       12.51527212       5.90103174       5.36707938       0.00587390      -0.00570346      -0.00458887
H       12.24336071       6.64688644       6.66901321       0.01420166      -0.01610721       0.00264189
O        1.62846291       0.74783596       1.26183728       0.00514680       0.01541185      -0.01250985
H        1.74676722      -0.01565302       0.64336980       0.00374977       0.01033334      -0.00609932
H        2.50340235       1.09373621       1.50828456       0.00300844       0.01306214      -0.01133896
O        4.80071555       8.11292016      -0.02242718      -0.00565162      -0.00860704       0.00149913
H        4.06419800       8.48590993      -0.56510846      -0.00553258      -0.00717475       0.00263298
H        4.51093516       8.22927014       0.90808317      -0.00383921      -0.00730752       0.00145854
O        4.26418657      11.75323051       1.35704125      -0.00821422      -0.00674084       0.00088975
H        4.70051205      11.30781321       0.60742614      -0.00868837      -0.00571437       0.00325545
H        3.54340899      11.18466995       1.66224507      -0.01178642      -0.00707838      -0.00028988
O        7.45177353       2.10623155       3.96498717       0.00699022       0.00025870      -0.00263897
H        7.46108141       1.21423999       3.57370066       0.00517239       0.00106778      -0.00604337
H        6.60458435       2.17181137       4.46822713       0.00617529       0.00095250      -0.00395164
O        6.74125469       9.53421800       2.64994944       0.00373308      -0.00371045      -0.00922036
H        5.82986666       9.15311442       2.71662043       0.00318940      -0.00450946      -0.00671117
H        7.35940741       8.78848611       2.76752763       0.00478325      -0.00159214      -0.01056298
O        5.35695183       2.36255752       5.60020509       0.00694172       0.00546098      -0.00511068
H        5.57313308       1.80118740       6.37777220       0.00592306       0.00264820      -0.00640049
H        4.49311175       2.02913989       5.25674807       0.00643170       0.00704823      -0.00583441
O        8.15692365       3.42730989      11.32183121       0.01373535      -0.00630328       0.00165702
H        7.58697831       3.11544562      12.03440824       0.01514489       0.00088234       0.00605574
H        8.63526366       2.61683086      11.06257257       0.00368191      -0.01221034       0.00000046
O        7.64206581       8.18774863      12.10064275      -0.00390431      -0.00166920      -0.02853434
H        6.67885126       8.12608437      12.25058491      -0.01048338      -0.00522457      -0.01157357
H        7.95884982       7.33139965      11.77593130      -0.00754573      -0.00898245      -0.00637372
O        4.32597971       9.79204670       8.27212341       0.01351276      -0.00869013       0.01109242
H        3.72993042       9.39245156       7.62271334       0.01430307      -0.00748117       0.00311053
H        3.82976871      10.50169468       8.71895243       0.01263396      -0.00912746       0.00467883
O       11.28285057       3.42501340       5.35886466       0.00671013      -0.00714436      -0.01298756
H       11.51858813       4.15104297       5.95286331       0.00692047      -0.00780612      -0.01161530
H       11.78103593       2.64179479       5.65467663       0.00366602      -0.00851758      -0.01124110
O        9.15294240       1.97401718       6.16399280       0.00514644       0.00143665       0.00319403
H        9.87211390       2.58871867       5.88301004       0.00628444      -0.00460642      -0.00781129
H        8.51548229       2.00475918       5.41781767       0.00209346      -0.00182635       0.00558338
O        3.94314057       5.92955047       3.60879835       0.00776669       0.00355273       0.00579891
H        4.44562043       5.41748262       2.94955600       0.00849509       0.00350124       0.00518147
H        4.32599768       5.65904303       4.47339228       0.00782879       0.00448380       0.00602815
O       10.15739885       1.58861881       1.61375458      -0.01326163       0.00445792       0.00200503
H       10.86943714       1.90112278       1.01749818      -0.00822125       0.00486029       0.00438958
H        9.69272738       2.40190151       1.90952919      -0.01040070       0.00236793       0.00243721
O       10.49186957       9.91219113      10.77806081      -0.00024706       0.00504742       0.00965747
H        9.92279994      10.27941862      10.08880629       0.00338205       0.01798479       0.01416963
H       11.38192425       9.92536677      10.35961483       0.00018539       0.00301497       0.00921037
O        0.34493344       4.65615745       1.99848385      -0.00796570      -0.00134975       0.00159502
H        0.68493304       4.45158670       2.88919421       0.00090499      -0.00137280      -0.00033186
H        0.21678907       3.82500798       1.49598706      -0.00716245       0.00076720       0.00077621
O        2.31866957       3.82465389       6.87535693       0.00599583       0.00467971       0.00075796
H        3.18975587       4.23108802       6.63281392       0.00560098       0.00663038       0.00121365
H        2.52832064       3.25666600       7.63152591       0.00837808       0.00444464      -0.00038506
O        5.49658675      11.37952215      11.44096196      -0.00476881      -0.00040066       0.00183192
H        4.69731733      11.50460624      10.88712490      -0.00579626      -0.00275841       0.00221669
H        6.04927089      10.77374794      10.90764288       0.00171596       0.01028433      -0.00417304
O       -0.09184085       2.51842464       0.36386013      -0.01700246       0.00444034      -0.00613311
H        0.21904822       2.92883156      -0.44984282      -0.03980705      -0.00873791       0.00101119
H        0.60571591       1.85716761       0.61862381      -0.00938168       0.00434318      -0.00705081
O        5.75428297      10.08155544       5.11779084       0.00163218      -0.00473168      -0.00927686
H        5.99948039       9.16079994       5.31442876       0.00584912      -0.00249358      -0.00415381
H        4.73647289      11.05023493       5.94899921       0.00081958      -0.01006760      -0.00920241
O       10.59509037       4.62736866       9.49422676      -0.00136637      -0.01044253       0.03532079
H       10.17728583       4.85618415      10.33919710      -0.00534923      -0.00711631       0.03257819
H       11.20763427       5.38229731       9.36797855      -0.00943261      -0.00514098       0.02601764
O        2.65334223       3.86897412      12.28550137      -0.01204202       0.00027682       0.00019690
H        3.35702049       4.48680130      12.03805768      -0.01180775      -0.00033949      -0.00093956
H        2.90198339       3.02211888      11.87587664      -0.01440846       0.00075623      -0.00420994
O        1.51524166       6.41093259       7.82048829      -0.00686675      -0.00565064       0.00888887
H        1.65295592       5.48118263       7.56839944       0.00012422      -0.00360783       0.00588757
H        2.32429104       6.65703068       8.30973590      -0.00666825      -0.00011377       0.00703589
O        3.52888810      13.90757301      11.36410752       0.00420192       0.00741771      -0.01431498
H        4.14540229      13.64158051      12.05712863       0.00998953       0.01103207      -0.01621097
H        3.27029804      13.06736824      10.89519138       0.00437513       0.00523785      -0.00910865
O       -0.47905174       7.60660630      12.03297612      -0.01363941      -0.00688219       0.00372569
H        0.32914679       7.41729713      12.58743433      -0.01048692      -0.00614643       0.00000890
H       -0.77849735       8.49140835      12.26333411      -0.01059030      -0.00486344       0.00134001
O        3.45828019       2.65201185       2.08988740       0.00281256       0.00663450      -0.00336684
H        4.37818222       2.96652024       2.08165233       0.00070646       0.01066934      -0.00086205
H        3.03080847       3.21967293       1.41388843       0.00054661       0.00389569      -0.00545653
O        4.25274958       8.49306668       2.64690882       0.00034595      -0.00342737       0.00130635
H        3.61439866       9.14411988       3.00078880      -0.00146309      -0.00266023       0.00266081
H        4.09103499       7.63386400       3.09714147       0.00296044      -0.00133341       0.00291494
O        4.63165717       4.88630512       6.02858851       0.00804564       0.00545582       0.00537868
H        5.15974030       5.41043843       6.67016936       0.00682964       0.00593559       0.00672943
H        5.06915316       4.00734412       5.90929153       0.00850159       0.00621409       0.00354175
O        8.39854389      12.93740714       8.45182657       0.00173068      -0.00817406      -0.00836557
H        7.45273295      13.14133079       8.32376748       0.00237344      -0.00348269      -0.00784095
H        8.57451892      12.91163120       9.41489960       0.00398979      -0.00177262      -0.00884552
O        0.07754912      11.69284680       2.66586077       0.00361052       0.02265044      -0.00037654
H        0.68146986      11.02193051       3.01827191       0.00957408       0.02693361      -0.00355604
H        0.69353699      12.36654407       2.29397326       0.00021439       0.02529183      -0.00602530
O        8.67016843      10.62037664       0.84022830       0.00712463      -0.00270158      -0.00668353
H        7.83616065      10.38488155       1.28444265       0.00685519      -0.00895470      -0.01171038
H        8.79021793       9.93814419       0.16392415       0.01544499       0.00041971      -0.01036592
O        9.72663202       6.07543549      11.85562757      -0.01176856      -0.00807954       0.02582428
H        9.64076882       5.36806491      12.50321727      -0.00786710      -0.00890242       0.02465782
H       10.56564139       6.54471842      12.04924631      -0.00975517      -0.00799316       0.02058744
O        1.39168379       5.04287977       4.46574583       0.00995958      -0.00292437      -0.00605392
H        2.25264102       5.39035796       4.15031220       0.01029289      -0.00214734      -0.00507138
H        1.59668889       4.48046684       5.22799884       0.00962977      -0.00117210      -0.00441061
O       -0.61342441       6.99794996       9.35511170      -0.01070511      -0.00689884       0.00420879
H        0.22934526       6.86784568       8.86571107      -0.00974553      -0.00800608       0.00500208
H       -0.39883634       7.30655193      10.25825127      -0.01202018      -0.00497855       0.00380180
O        5.89901434       6.50186811       7.81703532       0.00247699       0.00610626       0.00796890
H        5.13944179       6.88178329       8.30891361       0.00102159       0.00404546       0.00834890
H        6.45906266       6.10703292       8.51704779       0.00019416       0.00109497       0.00667493
O       10.80379984       2.06163139       8.73650445       0.01574541       0.00344255       0.00067403
H       10.84108690       2.99384000       9.05176646       0.00969119      -0.00110917       0.01847628
H        9.88921845       1.96380351       8.43159074       0.02258621       0.01542754      -0.02000045
O        5.03783364       5.60260634      11.70543343      -0.00207147      -0.00916840       0.00277729
H        5.84009525       5.68640652      11.16107907      -0.00309922      -0.01153682       0.00310840
H        4.89516324       6.52024604      12.07220246      -0.00242104      -0.00714700       0.00068321
O       -0.56169043       0.96532078       6.36253566      -0.00960118      -0.00013848       0.01161042
H       -0.37310899       1.15411934       7.29113155      -0.02095787       0.02102941       0.00971232
H        0.08684884       0.28796833       6.06042199      -0.00096657       0.00071451       0.02726118
O        9.23558851       5.72173423       4.64280051      -0.00284882       0.00135598       0.01490197
H        9.91046857       5.77801588       5.33520140       0.00202107      -0.00361812       0.01072441
H        8.55386976       6.37908321       4.87114744       0.00248147       0.00580300       0.02018606
O        3.93339249       2.74832694       9.09714295       0.01194397       0.00412226      -0.00934601
H        4.38361526       3.58193462       9.26300509       0.02347477       0.00026131      -0.01253837
H        3.85132590       2.31470660       9.97867035       0.00976819       0.00699103      -0.00817126
O        2.93121466       1.66610361       4.60113396       0.00808689       0.00270517      -0.00426694
H        2.35198437       2.18900091       5.16828148       0.00560755       0.00116874      -0.00407360
H        2.94480438       2.11254936       3.72984339       0.00574008       0.00239044      -0.00443239
O        8.56399875       3.84665028       2.37555354      -0.01562593       0.01572770       0.00047613
H        8.08154480       3.21578729       2.97485687      -0.00794104       0.00823598      -0.00066683
H        8.95125417       4.46700919       3.01237250      -0.01773593       0.01591142       0.00297627
O       11.10031377       6.46500601       2.76432630      -0.01377469      -0.01066713       0.00451859
H       11.62646556       5.70583633       2.41940193      -0.01161150      -0.01210254       0.00718872
H       10.55028457       6.12628152       3.49759357      -0.01251310      -0.00607021       0.00647333
O       11.19927040      11.70739727       0.18067363       0.00442660       0.01170810       0.00025865
H       10.82454240      11.08499557      -0.48709740       0.00531875       0.00805186       0.00333207
H       12.16820969      11.55140425       0.12247466       0.00503644       0.01039415       0.00187745
O        1.61675142       6.92807039       0.99250619      -0.00847095      -0.00605704      -0.00644490
H        1.32056433       6.04239100       1.28090590      -0.00863584      -0.00491853      -0.00361902
H        1.57136044       7.46117174       1.80170775      -0.00782912      -0.00360644      -0.00746285
O        8.79698250       7.79004230       2.11029764       0.00928634       0.00612161      -0.01401357
H        8.49240980       7.85889083       1.18555408       0.01416799       0.00064116      -0.01414461
H        9.45738680       7.07423272       2.14266925       0.00943545       0.00349031      -0.00817104
O        9.36330907       7.41814231       8.51833706      -0.00396243       0.00255972       0.00345118
H        9.36657511       6.72077962       7.85398815      -0.01068189       0.01393639      -0.00851101
H       10.28861071       7.39753563       8.85687194      -0.00176096      -0.00545998      -0.00145488
O        5.66364987       4.42945604       1.73952294      -0.00183421       0.01070256       0.00796425
H        6.62067682       4.35928388       1.90250886      -0.00074640       0.01290077       0.00669092
H        5.56045232       4.78403557       0.83774518      -0.00429031       0.00569189       0.00609814
O       10.80812676       9.52145492       2.81840613       0.01474039       0.00715923      -0.00411838
H       11.65433326       9.06153835       2.96350062       0.01587202       0.00896572       0.00354013
H       10.12181158       8.85437634       2.59005259       0.01810582       0.00545971      -0.00500135
O        7.26809318       7.65968836       5.65393525       0.01189955       0.00786026       0.01559427
H        7.86640227       8.39445660       5.85132738       0.00494061       0.01225889       0.01979291
H        6.87663382       7.36172721       6.49806410       0.00546583       0.00812904       0.01334728
O        6.97421235      13.30460544       0.31740686      -0.00013885      -0.00828899      -0.00276136
H        6.44475736      12.64367858      -0.17019167      -0.00481244      -0.00630615      -0.00085803
H        7.14426716      12.90423837       1.18541727       0.00124294      -0.00901959      -0.00273145
O        5.39827051      12.35772261       3.72189516      -0.00461268      -0.00168040      -0.00163150
H        4.65887992      12.36136896       4.35168912      -0.00078255      -0.00047714      -0.00327417
H        5.02549703      12.14852557       2.82990429      -0.00844364      -0.00396689      -0.00437860
O        3.72396976       7.02580613       9.41937504      -0.00433186      -0.00301962       0.00349981
H        3.37874623       7.82942785       9.88873649      -0.00201609      -0.00203627       0.00385500
H        3.88876021       6.39451370      10.13543795      -0.00776351      -0.00463349       0.00263229
O       11.16139269      11.93633428       8.56281570      -0.01732983      -0.00813790       0.00639129
H       11.21904317      12.79946345       9.01102834      -0.01250394      -0.00446000       0.00048563
H       11.90864862      11.37921719       8.88553272      -0.00961449      -0.00158885      -0.00118537
O       11.17126764      10.09445038       6.17623274       0.00182641      -0.00400600      -0.00669611
H       12.08172704      10.43481706       6.02481172       0.00187193      -0.00174390      -0.00272741
H       10.87942826       9.76634844       5.31220556       0.00529525      -0.00471276      -0.00790973
O        9.06572843      13.28906729      11.13819009      -0.00316128      -0.00543171      -0.00427938
H        9.91147435      13.02767139      11.52652434      -0.00242914       0.00177038       0.00015925
H        8.40040224      13.17789821      11.85770014      -0.00484391      -0.00628242      -0.00521293
O        7.40355487       5.74462020       9.98816622      -0.00146151      -0.01708817      -0.00037695
H        8.18565388       6.27442658       9.74736449      -0.00415176      -0.01190057       0.00414131
H        7.75411221       4.89860898      10.34037938       0.00274897      -0.01672228      -0.00183836
O        8.80795199      10.13072371       7.76236141      -0.00904852      -0.01327589      -0.02970752
H        9.17903535       9.23422059       7.85173959       0.00219314      -0.00572921      -0.00588245
H        8.01417556      10.11721551       8.33442659       0.00327531      -0.00071656      -0.01031009
O        0.66465310       8.13573986       3.48081060      -0.01832302      -0.00632121      -0.00945026
H        1.13900693       8.14462916       4.32390727      -0.02233835      -0.00536621      -0.00613679
H        0.03708497       7.38575800       3.50498278      -0.02082221      -0.00412972      -0.01144217
O        6.68533003       9.68635410       9.54131124       0.02075185       0.02169508       0.00894624
H        6.92821940       8.87812993      10.00875746       0.02737217       0.02810866       0.02615316
H        5.84931875       9.51425760       9.05271125       0.02757096       0.00501451       0.00888593
