200
Lattice="14.309021506696542 0.0 0.0 0.0 14.309021506696542 0.0 0.0 0.0 14.309021506696542" Properties=species:S:1:pos:R:3:forces:R:3 energy=-685424.9375 stress="-0.00010304722673026845 0.0001037438960338477 0.00039137739804573357 0.0001037438960338477 0.0006401973078027368 -0.0004247353645041585 0.00039137739804573357 -0.0004247353645041585 -6.394981755875051e-05" pbc="T T T"
Pm      10.70039958      14.03806279       6.46893756      -0.01070307      -0.01464788      -0.03292416
Pm       7.92597947      14.57209184      13.41180467      -0.01840106       0.00761735      -0.01706895
P        7.63095631      12.29869784      11.82203831      -0.01852481       0.01576553       0.04143924
O        7.48640862      11.14757238      12.92453722      -0.03113604       0.00122523      -0.00350779
O        8.95491909      13.08254224      12.20280394      -0.02607274      -0.01257515       0.01407552
O        6.55972179      13.39816223      12.14985438      -0.02227533      -0.01355737      -0.02228940
O        7.58696320      11.70443968      10.47251855       0.01242791      -0.03515351      -0.03242266
H        7.47821021      11.57363481      13.81033945      -0.03639898       0.01070227      -0.00134298
P        8.26934494      13.55379716       1.75802545       0.01831421       0.02602387      -0.00234759
O        9.38699613      12.43444775       1.90506441       0.00153378      -0.00130105      -0.02360091
O        8.96628012      14.76199245       0.99490039       0.02948111       0.02261758       0.00968320
O        7.63075908      13.92964632       3.03752145       0.02418464       0.01353043       0.00841677
O        7.33058913      13.02632861       0.63050505      -0.01292974       0.04206491       0.01679474
H       10.18202527      12.81393338       2.36314852       0.00543997      -0.01529437      -0.02191150
P       11.62756320      12.59241268       4.36328771       0.00854993      -0.02384782      -0.01333854
O       12.12617396      11.12917640       4.10745246       0.02356420      -0.01883838      -0.01146469
O       10.22791077      12.54019812       5.11898614       0.00650847      -0.03475463      -0.01540065
O       11.53383375      13.40370745       3.12022703       0.00270107      -0.02085999      -0.00775380
O       12.48697311      13.26230686       5.49534658      -0.00148343      -0.01682031      -0.00721526
H       12.24911270      10.97171106       3.12444230       0.02188111      -0.02013686      -0.01278064
O       10.44142094       2.83550549       4.69406318       0.01141455      -0.00174174       0.00679839
C        9.35432029       1.92255667       4.56262957       0.00945783       0.00072657       0.00955085
C       11.56951722       2.24747309       5.27581532       0.01474497      -0.00486251      -0.00170684
C        8.29559776       2.56196865       3.70123908       0.00515920       0.00394207       0.01695317
C       12.79197586       3.10107971       5.04799931       0.00985870       0.00285494       0.00075225
H        9.69480478       0.98333505       4.09165962       0.00608553       0.00073546       0.00540401
H        8.94963452       1.67722267       5.58261056       0.01264477      -0.00065843       0.01145191
H       11.40105846       2.11630885       6.39001422       0.01879155      -0.01650967      -0.00279053
H       11.74641660       1.24982605       4.82216847       0.01668523      -0.00005859      -0.01158932
H        7.47760835       1.86112694       3.54931340      -0.00188333       0.01003045       0.02724971
H        7.94453757       3.49720525       4.13698898       0.01546335       0.00697343       0.01865591
H        8.74414119       2.77205779       2.73031186      -0.00423414      -0.00135421       0.01140000
H       13.66681543       2.64204205       5.50899754       0.01430003       0.00575625      -0.00518259
H       12.96777270       3.18125546       3.97613187       0.00525363       0.00965682       0.00041518
H       12.66476892       4.10105922       5.45982066       0.00522216      -0.00012177       0.00670730
O        2.52367996       5.95056582       1.87816659       0.00307247       0.00160352       0.00151199
C        2.09641547       7.24705220       1.49468784      -0.00022993       0.00074363       0.00226343
C        2.46729883       5.04047663       0.79945109       0.00129101       0.00079799       0.00237295
C        2.20062207       8.17422423       2.67846380       0.00255172       0.00145090       0.00146902
C        2.85702073       3.66870485       1.29393632       0.00338790       0.00153431       0.00277176
H        2.71687867       7.60664675       0.66007248      -0.00379258       0.00122245      -0.00015128
H        1.05948362       7.19366676       1.12738030      -0.00145525      -0.00101715       0.00594102
H        1.44856482       5.02332545       0.38182901       0.00042164      -0.00043146       0.00456208
H        3.14054374       5.37282224      -0.00638979      -0.00080621       0.00075497       0.00053215
H        1.81027159       9.15768943       2.41353651       0.00060990       0.00087762       0.00228100
H        1.61594180       7.78744412       3.51324140       0.00570537       0.00115436       0.00358325
H        3.23664938       8.29401368       2.99431450       0.00340089       0.00270095      -0.00162218
H        2.84258662       2.95300477       0.47061439       0.00259236       0.00097711       0.00328921
H        3.85842949       3.68815038       1.72590766       0.00429381       0.00282386       0.00059168
H        2.16238035       3.32691527       2.06129545       0.00529981       0.00154079       0.00448976
O        5.64384249       9.01398475       5.50164645       0.00228459       0.00098380       0.00010061
C        6.14644098       7.93400061       6.25642281      -0.00059023       0.00050437       0.00119275
C        6.52706708      10.13139491       5.50981791       0.00299571       0.00027567       0.00120506
C        5.19121574       6.77046991       6.13778718      -0.00130475       0.00132379      -0.00094067
C        5.93839487      11.22959353       4.66353110       0.00449061       0.00121659       0.00183311
H        7.14432600       7.65194214       5.88487733      -0.00000364      -0.00039123       0.00389680
H        6.26545806       8.23406124       7.30980878      -0.00297546       0.00058109       0.00161356
H        6.68245964      10.45731950       6.54977486       0.00236680      -0.00028914       0.00207847
H        7.50511751       9.82022220       5.11428634       0.00315791       0.00054979       0.00168914
H        5.56208881       5.91688061       6.70684753      -0.00384474       0.00130639       0.00064689
H        4.20677832       7.04066318       6.52150495      -0.00218496       0.00239465      -0.00389578
H        5.07778357       6.46740528       5.09653108       0.00136626       0.00085715      -0.00108337
H        6.61244690      12.08532170       4.60239647       0.00698739      -0.00075158       0.00104481
H        5.77177496      10.86539901       3.65110928       0.00286424       0.00150807       0.00184441
H        4.97994512      11.55788195       5.07009497       0.00576752       0.00360108       0.00296095
O        8.75230717       2.76364638      12.73932419      -0.00283594      -0.03082179       0.02292369
C       10.11302975       3.12782635      13.07059850      -0.00534023      -0.01142378       0.01574641
C        7.81541678       3.09070609      13.77769070      -0.01414597      -0.00735408       0.00696436
C       10.89679698       3.39392654      11.80785684      -0.01720992      -0.01470257       0.00870550
C        6.40590444       2.88273840      13.26240189      -0.00943935      -0.00211407      -0.00842592
H       10.09301604       4.03008389      13.68917078      -0.01414802      -0.00626570       0.00776312
H       10.55557440       2.31922631      13.66359539       0.00838867      -0.00112316       0.01896583
H        8.02664606       2.47114340      14.66716520      -0.03027124       0.00265008       0.01720217
H        7.95562312       4.13266587      14.08388407      -0.00488379      -0.00629923      -0.00345188
H       11.94187182       3.56872479      12.07011548      -0.01839329       0.00115732       0.00090390
H       10.86211035       2.54808945      11.11976426      -0.01133266      -0.02352016       0.01966780
H       10.52465204       4.28376321      11.29828067      -0.03079258      -0.02609389      -0.00066864
H        5.70023569       3.02000168      14.08164161      -0.01653327       0.01891537      -0.01834348
H        6.15788226       3.58612633      12.46977952       0.00691436      -0.01236494      -0.02186339
H        6.23512708       1.87418067      12.84827651      -0.01618869      -0.00691977       0.00455066
O       13.13982978       6.02947206       6.98988829      -0.00201553       0.00110650       0.00334875
C       12.29395490       5.35646373       7.90007453      -0.00227076       0.00283438       0.00451753
C       12.47197157       7.07392506       6.29689320      -0.00131842       0.00106275       0.00271711
C       13.10406165       4.29507039       8.60493645      -0.00256073       0.00413752       0.00673850
C       13.44043864       7.70661949       5.32977865      -0.00084558       0.00051861       0.00283247
H       11.87644434       6.07052851       8.62611833      -0.00220414       0.00437292       0.00309896
H       11.44296872       4.91109365       7.36026202      -0.00217521       0.00195485       0.00530314
H       11.59713584       6.66672639       5.76828960      -0.00128305       0.00124422       0.00255409
H       12.09825540       7.81365375       7.02123748      -0.00130562       0.00135559       0.00254500
H       12.47959433       3.73577946       9.30302778      -0.00225446       0.00710918       0.00939396
H       13.53591773       3.60015279       7.88364616      -0.00432176       0.00132118       0.00826542
H       13.92204150       4.75164526       9.16264599      -0.00128399       0.00516699       0.00398438
H       12.98000479       8.55934737       4.83035144      -0.00041382       0.00060228       0.00257125
H       14.32807679       8.05797162       5.85705982      -0.00090277       0.00046498       0.00297089
H       13.75347205       6.98443443       4.57494216      -0.00091550       0.00018620       0.00307092
O        5.25100731       9.62207007       1.74034509       0.00894541       0.01337960      -0.00447762
C        6.01045411       8.55978673       1.20263922      -0.00157666       0.00666869      -0.00528553
C        4.54662119      10.35662949       0.75081694      -0.00002301       0.00768125      -0.00269336
C        6.85252011       7.96910857       2.30946450      -0.00178531       0.00263274      -0.00719631
C        3.98359087      11.59989998       1.39412214      -0.00107674       0.00729781      -0.00264946
H        5.34296630       7.79473780       0.77340440      -0.00984317       0.01093993      -0.00032276
H        6.64094361       8.93916736       0.38984673      -0.00261012      -0.00035512      -0.00919661
H        5.22494841      10.61720018      -0.07068331      -0.00687683       0.00665800      -0.00831383
H        3.74211281       9.73181185       0.33250780      -0.00002712       0.00287038       0.00417069
H        7.43879340       7.12741354       1.93656480      -0.00462807       0.00151913      -0.00921617
H        7.53497764       8.72216730       2.70510279       0.00086581       0.00024988      -0.00720057
H        6.21991936       7.62475484       3.12734083      -0.00180699       0.00336989      -0.00690952
H        3.39493864      12.16040749       0.66727952      -0.00842525       0.00340665       0.00017890
H        3.33860656      11.34042389       2.23477686       0.00605115       0.00738823       0.00277606
H        4.79139211      12.23675903       1.75341261      -0.00174871       0.01158276      -0.00914586
O        3.63554347      10.19258241       9.17460228       0.00165910      -0.00356115       0.00218678
C        3.87477305      10.99231377       8.02590756       0.00390324      -0.00395864       0.00278848
C        2.66000762       9.20389611       8.95484696       0.00091586      -0.00316364      -0.00017631
C        4.96481468      11.97595075       8.36740003       0.00333527      -0.00357321       0.00569713
C        2.46349019       8.43884538      10.24116007      -0.00289447      -0.00286308      -0.00062811
H        4.16098822      10.35185321       7.17981053       0.00588042      -0.00370035       0.00341424
H        2.94562376      11.51300109       7.74336643       0.00454295      -0.00388184       0.00070460
H        1.71474059       9.66833953       8.63012344       0.00239837      -0.00195080      -0.00235528
H        2.97638207       8.53190621       8.14130426       0.00264917      -0.00312075       0.00069916
H        5.15334475      12.64254600       7.52352043       0.00502075      -0.00356279       0.00605233
H        4.67338397      12.57422420       9.22933024       0.00111520      -0.00376635       0.00498185
H        5.88463073      11.46123685       8.64395463       0.00277022      -0.00395057       0.00721130
H        1.71631707       7.65586351      10.10826850      -0.00346495      -0.00195305      -0.00284465
H        3.39790012       7.97356216      10.55617515      -0.00433479      -0.00405591       0.00199366
H        2.13312067       9.10930443      11.03524600      -0.00442831      -0.00261047      -0.00140688
O       10.83144808       7.55436445      12.31518091      -0.00161008       0.00460652      -0.00011030
C       11.91469190       7.97165086      11.51174055       0.00114793       0.00314057       0.00267291
C        9.62260735       8.21781514      11.95987843       0.00010717       0.00571860      -0.00220960
C       13.16163073       7.24268096      11.94637266      -0.00228527      -0.00225765       0.00314952
C        8.53261687       7.77435226      12.89856372      -0.00283188       0.00228637      -0.00746444
H       11.69289005       7.76774242      10.45186943       0.00214788       0.00629549       0.00192720
H       12.04880868       9.06066082      11.60729971       0.00453645       0.00254959       0.00522321
H        9.75758757       9.30581064      12.02100261      -0.00020293       0.00588328       0.00124582
H        9.36415411       7.97743589      10.91812963       0.00383263       0.00905797      -0.00417358
H       14.01259086       7.55871679      11.34276445       0.00026183      -0.00356491       0.00599540
H       13.38312422       7.45739328      12.99253796      -0.00398289      -0.00614274       0.00440261
H       13.03688288       6.16484955      11.83337481      -0.00626125      -0.00143443      -0.00014127
H        7.60539732       8.28663862      12.64608236      -0.00234607       0.00295088      -0.00805679
H        8.38075645       6.69454530      12.83682431      -0.00211867       0.00233623      -0.01201873
H        8.79121419       8.03146741      13.92632934      -0.00576708      -0.00156274      -0.00584473
O       12.40017546      10.70456444       1.44796543       0.01010415      -0.00817093      -0.00664195
C       11.38174647       9.80527801       0.98466757       0.00231610      -0.00302017      -0.00023979
C       12.48493575      11.88491601       0.62861631       0.01204997      -0.01124859      -0.01119541
C       11.57742487       8.46616284       1.65009005      -0.00509941       0.00220039       0.01172593
C       13.71657428      12.66820854       1.00413321       0.00854787      -0.00647819      -0.00983360
H       10.39603010      10.23245856       1.19666126       0.00601208       0.00665382      -0.00311299
H       11.47920889       9.70505337      -0.10218370       0.00109661      -0.01163894       0.00023675
H       12.53222650      11.56298071      -0.41808896       0.01687951      -0.01663123      -0.00955561
H       11.57908109      12.47936087       0.75623023       0.01012522      -0.01303244      -0.01841354
H       10.83388574       7.75976445       1.27997201      -0.00259048      -0.00072772       0.01255403
H       12.56784557       8.06777616       1.42481237      -0.00315076       0.00136247       0.02206218
H       11.47295478       8.54242191       2.73279619      -0.01235624       0.01221023       0.01035492
H       13.70416289      13.62348787       0.47637811       0.01135847      -0.01261805      -0.02177484
H       13.72266204      12.88872285       2.06945782      -0.00033940       0.00559930      -0.01225442
H       14.62730734      12.12966474       0.74193438       0.01089105      -0.00868040       0.00301830
O        4.60508080       1.68324454       8.15737982      -0.00396460      -0.00217379       0.00486240
C        4.65783428       1.24439676       9.50790722      -0.00317788      -0.00184327       0.00504538
C        5.86217032       2.11424099       7.68268511      -0.00429742      -0.00231767       0.00429451
C        3.30320124       0.69646947       9.88354429      -0.00211078      -0.00387247       0.00575799
C        5.70469013       2.60678691       6.26598984      -0.00448790      -0.00212240       0.00456017
H        5.43221377       0.47421791       9.62551303      -0.00197795      -0.00068918       0.00510271
H        4.92728159       2.09159511      10.15734598      -0.00383211      -0.00138935       0.00456670
H        6.25566720       2.91280206       8.33132260      -0.00324337      -0.00283065       0.00419268
H        6.58282256       1.28104112       7.72776599      -0.00438410      -0.00268024       0.00376454
H        3.32163288       0.32149105      10.90709662      -0.00118925      -0.00413204       0.00551838
H        2.53756213       1.46813929       9.80389193      -0.00318071      -0.00479265       0.00591327
H        3.02924018      -0.12420128       9.22072699      -0.00114984      -0.00410138       0.00547108
H        6.64399115       3.02396125       5.90535148      -0.00418532      -0.00330469       0.00407661
H        5.41199553       1.79507456       5.60012546      -0.00616790      -0.00163509       0.00481112
H        4.94219467       3.38532961       6.21762640      -0.00351027      -0.00109255       0.00501666
O        3.80156289       4.65987570      10.63131307       0.00176820       0.00349210      -0.00074601
C        4.56584654       5.14749423       9.53969199       0.00088155       0.00290029      -0.00152227
C        2.45646447       4.41737910      10.25615769       0.00252631      -0.00115809      -0.00103855
C        5.98973006       5.35113566       9.99543296       0.00063860       0.00588755      -0.00193797
C        1.70608002       3.88344582      11.45112804       0.00281918       0.00087675       0.00007629
H        4.51332794       4.42716580       8.71059566       0.00203346       0.00146917      -0.00038385
H        4.13564788       6.09295174       9.17908148      -0.00063983       0.00170046      -0.00314589
H        1.99979561       5.35131704       9.89695787       0.00057593      -0.00345099      -0.00447824
H        2.43117433       3.70472994       9.41949811       0.00514961      -0.00404936       0.00129500
H        6.59291054       5.76234966       9.18510541      -0.00002337       0.00619093      -0.00226268
H        6.02864620       6.04626194      10.83492621      -0.00057291       0.00659947      -0.00244077
H        6.43757755       4.40555482      10.30528565       0.00220550       0.00686586      -0.00116993
H        0.67079442       3.66864444      11.18154851       0.00372142      -0.00301452      -0.00024598
H        2.16368331       2.96142810      11.81064379       0.00501829       0.00338696       0.00368729
H        1.70797239       4.61192682      12.26163275      -0.00014155       0.00365466      -0.00239497
O       11.03245765      12.51113432       8.23554479      -0.00253171       0.00979495      -0.01078582
C        9.64987688      12.17939264       8.58722811       0.00304864       0.01051486       0.00560290
C       11.91559098      11.38265241       8.47274063       0.00264685       0.01310569      -0.01025360
C        8.74975823      13.35199286       8.25243494      -0.00367185       0.00136321      -0.00817943
C       13.33475783      11.85079527       8.63936598       0.00293735       0.01399904      -0.01565786
H        9.34980915      11.28521526       8.03560903       0.00187671       0.00010651       0.02337548
H        9.60060146      11.97480035       9.65235175       0.01139509       0.02634234       0.00969458
H       11.55297172      10.88703378       9.37771227       0.00656659       0.01511582      -0.00783738
H       11.80771432      10.69415935       7.62914603       0.00040964       0.01088575      -0.00758559
H        7.82558951      13.20125132       8.81513294      -0.00257945       0.00707503      -0.00753129
H        9.17482076      14.30604410       8.61315405      -0.00561876       0.00805798      -0.02376917
H        8.45558977      13.41292112       7.18748885      -0.00462487      -0.01537800      -0.00945106
H       13.97095788      10.98036398       8.80511682       0.00175391       0.01389740      -0.01045915
H       13.69238960      12.36172839       7.74600081       0.00257585       0.00733382      -0.01938915
H       13.43425772      12.50603217       9.50538889       0.00467674       0.01945984      -0.02011693
