200
Lattice="13.006204030710522 0.0 0.0 0.0 13.006204030710522 0.0 0.0 0.0 13.006204030710522" Properties=species:S:1:pos:R:3:forces:R:3 energy=-695689.5 stress="0.0020741610787808895 -0.0001214663716382347 0.001042267307639122 -0.0001214663716382347 0.0014539604308083653 -0.00032685363839846104 0.001042267307639122 -0.00032685363839846104 0.0012967655202373862" pbc="T T T"
Pm      12.25592393      13.05634002       8.03721782       0.00509107       0.00644618      -0.00331618
Pm       9.72433209      14.18628241       1.02556619       0.00439346      -0.00288272       0.00787140
S        1.65108621      11.99793513       7.80327497       0.00207543      -0.00351933      -0.01188936
S        3.27491792      13.27835152       8.30059343      -0.00388563       0.00314888      -0.00537587
S       11.61849759      12.28074828       5.24781731       0.00004841       0.00389524      -0.00087513
S       10.76269708      11.10182972       6.76521497       0.00542355       0.00304326       0.00085910
S       12.12222879      13.78210414      -0.08713478       0.00306541      -0.00698446       0.01322450
S       11.56004422      12.11547209       1.15736830       0.00211698      -0.00522938       0.01514503
N        4.04414111       7.01131141      11.07374411       0.00609808      -0.00335836      -0.00048521
H        3.49248359       7.81080747      10.76683359      -0.00276978      -0.01074874      -0.00194868
H        4.93206560       7.40033244      11.38328519       0.00927961       0.00955109      -0.01513067
H        3.57891941       6.67265694      11.91069860       0.02273233       0.00272661       0.00601545
N        5.64578793       6.65422363       8.04725460       0.00900608      -0.01096037      -0.00762510
H        6.49246681       6.19726391       8.37761565       0.00775361      -0.00894336      -0.00976737
H        5.06214217       6.78872780       8.87040145       0.00943563      -0.00986739      -0.00688791
H        5.91438078       7.57701271       7.71639513       0.00741713      -0.00905018      -0.00971261
N        0.40330424       1.33777599       9.90172072      -0.00423446       0.01556361      -0.00417906
H        0.40904006       0.84190518      10.79678758      -0.02328584       0.02857941       0.00378007
H        0.08828603       2.27589639      10.12946194       0.02899415       0.01353815      -0.03429425
H        1.38018703       1.40329627       9.59012404       0.00880712      -0.02099364       0.00882072
N        1.95736838       1.33198419       5.24773347      -0.00668001       0.00161943      -0.01066883
H        1.95889252       0.37230152       5.58631960      -0.00287403       0.00771870      -0.00531550
H        2.78310209       1.74233082       5.66922909      -0.00708681       0.01085328      -0.00948356
H        2.07617043       1.31384698       4.24004491      -0.00127738      -0.00137509      -0.01052777
N        8.71142242      12.47093267       2.64811441      -0.02403297       0.00380105       0.00079966
H        7.77325768      12.08365166       2.52690663      -0.01241410       0.02064145       0.00560041
H        8.92625177      12.51279950       3.64173991      -0.01857812       0.00952128       0.01405340
H        9.35056573      11.76305499       2.28155717      -0.02325040      -0.00516963       0.01698433
N        6.63534740       1.23709494      10.21833400       0.00711307      -0.01097101       0.00623214
H        7.20873840       1.05969341       9.39635287       0.00672238      -0.00035316       0.00627032
H        6.30641956       2.19842766      10.13049357      -0.00288740      -0.01056227       0.01085871
H        5.80802742       0.66202580      10.06653423       0.01283431      -0.01604536       0.00585385
N       -0.18976794      11.30169062       4.48730677      -0.00327492       0.00451177      -0.00800890
H       -0.00471623       9.54495785       5.26434019       0.00090712       0.00361067      -0.00787118
H       -0.32962181      11.37843632       3.47717720      -0.00308999       0.00993370      -0.00379932
H        0.76562084      11.59473571       4.70536632      -0.00015372       0.00584546      -0.00568929
N        7.94249846       2.53957146      12.77091593       0.00428915      -0.00752670      -0.00061029
H        7.46320612       2.05907160      12.00285979       0.00475875      -0.01012139      -0.00077486
H        8.34037399       3.37686911      12.35475023       0.00067320      -0.00612038       0.00071639
H        7.20808538       2.89720584      13.39325366       0.00401875      -0.00922115      -0.00019345
N       10.22541774       7.70618631       5.59283188       0.00478655      -0.00558124       0.00128719
H       10.32079874       7.10606624       6.40625046       0.01530901      -0.00462303      -0.00293392
H        9.47994809       7.31824530       5.02269607       0.00230101      -0.00433287       0.00668591
H        9.89752023       8.60658131       5.93814729       0.00122425      -0.00507522       0.00875749
N        2.25321883       6.93174037       5.32243957      -0.00200868       0.00322324      -0.00550000
H        2.88627604       7.68085727       5.60846071      -0.00326118       0.00214493       0.01889980
H        2.55616969       6.59381764       4.41512091       0.00791149       0.02182543       0.00116387
H        2.44863777       6.15722689       5.95685011      -0.00987202      -0.00368014      -0.01031712
N        3.10367331       6.13546990       1.54142696       0.00017166      -0.00356302      -0.00372192
H        2.22006048       6.63109122       1.51388147      -0.00538272      -0.01255593      -0.00714898
H        3.14672464       5.62344671       2.42376094       0.00512753       0.00373828      -0.00009280
H        3.04798268       5.40778083       0.83202804       0.00699002      -0.00900656       0.00215706
N       11.28607317      11.93602370      10.11522857      -0.00048867       0.00650063      -0.00627708
H       11.39755833      12.46056601      10.99003574       0.00390536       0.00383034      -0.00128108
H       11.81998387      11.06061188      10.22127995      -0.00138848       0.00375372      -0.00634332
H       10.31122240      11.65127763      10.05308099       0.00411332       0.01365870      -0.00794327
N        2.88974084      11.02113115       4.24268725       0.01202410       0.00643063      -0.01191363
H        3.01807739      10.36026691       3.48459080       0.00815485      -0.01782717       0.00474219
H        2.96433102      10.49417666       5.10957608      -0.00575820       0.01847382       0.00177549
H        3.68570150      11.65399700       4.21853360       0.00737131      -0.00902050      -0.01420718
N        3.30397497       4.05958299       4.05222386       0.01793430       0.00221413       0.00261465
H        2.87579105       4.11371112       4.97771600       0.00899713       0.00918853      -0.00322753
H        4.24577881       3.73187843       4.24181994       0.01502278      -0.00431387       0.01489599
H        2.84013375       3.29864299       3.56311674       0.01917620       0.00332946       0.00105020
N       10.16177168       1.48271684       8.49862440       0.00663275       0.00808012       0.00210394
H       10.02458929       1.60478521       9.49954354       0.01055102       0.00689037       0.01218277
H        9.29774598       1.04812636       8.13562148       0.00417250       0.00486974       0.01278080
H       10.20650658       2.41379684       8.08315887       0.00550594       0.00075316       0.00822949
N        8.89787856       5.81553547       1.97989377       0.00190812      -0.00655121       0.00524029
H        8.54701046       5.81128768       2.93691098       0.00607998      -0.00049447       0.00803813
H        8.10589971       6.17009028       1.44342103       0.00153705      -0.01459207       0.00668593
H        9.61296064       6.53956347       1.94483917      -0.00018662      -0.00237384      -0.00052011
N        1.23261332       5.12302970      10.10995512      -0.00584446       0.01102309       0.01314634
H        2.19909087       4.84436627      10.26172322       0.00283211       0.03009331       0.00193863
H        0.66360791       4.45685149      10.62262396       0.01534982       0.00350896       0.01027462
H        1.12591371       6.00960421      10.60425663      -0.01116187       0.00890610       0.02446648
N        7.70824779      13.08262066       7.30363860       0.00918579      -0.00056332       0.00986084
H        7.32049423      12.36677041       7.92717841       0.00381069      -0.00159726       0.00612345
H        8.29972377      12.57715296       6.64916823       0.01038629       0.00303981       0.01243386
H        6.92169141      13.46990690       6.79432319       0.01036862       0.00337123       0.00803155
N        3.40845527       9.17182578       7.12592352      -0.00288881      -0.01051979       0.01215166
H        3.22518432       8.44020966       7.80576417      -0.00372921      -0.00360464       0.02023083
H        2.81607037       9.96394653       7.39308682       0.00491630      -0.00653854       0.00518152
H        4.35854298       9.47787789       7.31066432       0.00266699      -0.01558217       0.00583038
N        6.29546556      10.92361794       9.02290496      -0.00532669       0.00177714      -0.00008558
H        6.39362322      10.22006913       8.29437317      -0.00384349       0.00062265       0.00067548
H        5.38447573      11.36653706       8.90234360      -0.00559369       0.00018953      -0.00161122
H        6.30559851      10.44730698       9.91728632      -0.00541356       0.00232147       0.00042599
N       12.60016925       5.77959502       7.29547679      -0.00458220       0.00740504       0.01180952
H       11.99182371       4.99235484       7.09327933      -0.00425717       0.00205120       0.01481104
H       13.18315049       5.50808102       8.08877279      -0.00595415       0.01437598       0.01109681
H       13.23087326       5.86451458       6.50432530      -0.00774659       0.00499739       0.00946262
N        6.07191437       7.24147385       1.18277256       0.00345841      -0.00105095      -0.00052433
H        6.32058503       7.80396417       1.98948895       0.00639571      -0.00413933      -0.00258170
H        5.07037722       7.04457581       1.25192020      -0.00136477       0.00137694       0.00308259
H        6.21561536       7.81734007       0.35771231      -0.00004211      -0.00348668       0.00002997
N        6.00077875      11.12412592       1.63432356      -0.00604856      -0.00340039       0.00614147
H        5.69467960      10.62592744       2.46532715      -0.00809422      -0.00024775      -0.00025427
H        5.76992185      10.52836186       0.84518663      -0.00893414      -0.00030065       0.00320831
H        5.39328480      11.93614632       1.58912209      -0.01144385      -0.00274122       0.00383289
N        8.52162659       2.58904341       2.84013670      -0.00513762       0.00573325      -0.00195181
H        8.97909390       3.48081399       3.01745902      -0.01010567       0.00745791      -0.01179612
H        8.36922982       2.15504296       3.74456662       0.00332287       0.00980359       0.00356764
H        7.59904987       2.86281745       2.48702430      -0.01013124      -0.00329418       0.00393166
N        8.32719972       9.10649657       3.31671771      -0.00127268       0.00193554       0.00100943
H        9.02168092       8.57000371       2.80015290       0.00034055       0.00688834       0.00179616
H        8.85839810       9.78711524       3.85414113      -0.00147712      -0.00278172       0.01396003
H        7.82632075       9.65032947       2.61978239       0.00368553       0.01099113       0.00772724
N        5.29822881       0.25118668       4.08187399      -0.01249206       0.00468260       0.01557738
H        5.18884888       0.29382333       5.09176703      -0.02669905       0.01355499       0.01123422
H        4.74569573       1.01776556       3.71030957      -0.02262881      -0.00982642      -0.00007634
H        6.26798780       0.46103696       3.87331153      -0.01477253       0.02184975       0.02335942
N        8.04334015       4.68780255       9.56190686      -0.00474120      -0.01213521       0.00466996
H        8.61127322       4.91073036      10.37232594      -0.00543404      -0.00158857       0.00515258
H        8.39565691       3.80171355       9.21236926       0.00294825      -0.01525939       0.01540719
H        7.09636538       4.49896790       9.90424062      -0.00160152      -0.01172033       0.00219129
N        7.22299974       8.09027790      11.23226651       0.00270456       0.00363579      -0.00167747
H        7.14796600       7.98612419      10.22490412       0.00730320       0.00423544      -0.00617197
H        7.43383361       7.16262270      11.58635323       0.00090764       0.00782397      -0.00289430
H        8.05040170       8.65913429      11.41493699      -0.00007558       0.00689515      -0.00098963
N        2.99500353       9.99535618      10.44761780      -0.00336072      -0.00023109      -0.00067581
H        3.92369840       9.92174199      10.04178658      -0.00137565      -0.00568605       0.00438417
H        3.13077866      10.46868870      11.33493118      -0.00508618      -0.00189649       0.00080672
H        2.51463451      10.67020401       9.84947730       0.00339468       0.00211024      -0.00263822
N        2.79920821       3.29764208      -0.02745934       0.00650477      -0.00938341       0.00622871
H        2.99271729       2.38134464      -0.44281006       0.00094375      -0.00486740      -0.00138386
H        2.09893703       3.73432083      -0.61915392       0.01082504       0.00348812      -0.00486702
H        2.32546369       3.09839991       0.84922416      -0.00074466      -0.00458144      -0.00679410
N       12.77740527       2.27291470       6.92750322       0.00374966       0.00879449      -0.00225531
H       13.18828121       2.98583073       7.52612457      -0.00652146       0.00537223      -0.01800972
H       11.98598347       2.72081759       6.47170282      -0.01265499       0.00270826      -0.00976005
H       13.50116006       2.05854403       6.20689156      -0.00771499       0.00568329      -0.01298496
N        9.65370199       4.17096973       6.66038261      -0.00375056       0.00050020       0.00876033
H        8.83982563       3.59428113       6.46430635       0.00063837      -0.00322497      -0.00633749
H        9.81497796       4.68690839       5.80035302       0.00072790       0.00863162       0.01134628
H        9.31878027       4.85479786       7.33688309      -0.01232803      -0.01062512       0.00828823
N        6.96080632       6.25619932       4.58037518       0.00938833       0.00555453       0.00430676
H        6.15956153       6.02024904       4.00237348       0.01628017      -0.00865010      -0.00310355
H        7.20639498       7.21118541       4.32321503      -0.00029959       0.00480005       0.00114014
H        6.61438776       6.27897226       5.53601618      -0.00099190       0.00442656       0.00018385
N       10.66543566       3.53288780       0.93406498       0.00640127      -0.00386673       0.00559695
H       10.03307417       4.31015294       1.17569866       0.00918067      -0.00425538       0.00346203
H       11.06938567       3.74820685       0.02650955       0.00692537      -0.00366929      -0.00034124
H       11.45593738       3.60709035       1.59111049       0.00907430      -0.00478370      -0.00019738
N       10.12461901       9.36710231      12.13363517      -0.00014120       0.00677128      -0.00066008
H       10.77252767      10.11502766      12.37721074       0.00249341       0.00374949       0.00571216
H       10.53845392       8.84584810      11.36344918       0.00234513       0.01444294      -0.00924441
H       10.12414614       8.74715910      12.93907763      -0.00232393       0.00061111      -0.01253156
N        0.00035417       3.65150358       3.01410284       0.01247913      -0.01180429      -0.00523525
H        0.66156924       4.39910758       2.82591353       0.00579467      -0.00729355      -0.00335484
H        0.50369045       2.78178395       2.85114482       0.01586506      -0.00994375      -0.00785229
H       -0.16834479       3.68267144       4.01454713       0.01334514      -0.01643160      -0.00366196
N        3.08744844       4.32801065       7.28601810      -0.00556973       0.01417528      -0.00102299
H        3.24800921       3.33363870       7.43773837      -0.01121374       0.00531307       0.00098790
H        2.47744415       4.63159315       8.04006930      -0.00792325       0.01081216       0.00069746
H        3.97450410       4.80941910       7.42542201      -0.01224110       0.00469132      -0.00400384
N        8.46264603      12.56180333      12.53598028       0.00644618      -0.00721478       0.00455973
H        9.05940804      11.80756022      12.19577713       0.00420386      -0.01278847       0.00846139
H        7.96302454      12.94991410      11.73168321       0.01456842      -0.00524870       0.00223958
H        7.75081185      12.08365638      13.08933720      -0.00004205      -0.00322196      -0.00019237
N       11.29341758       8.16088575       2.33749288      -0.00538743      -0.00085722      -0.00659052
H       11.25531084       8.15770321       3.35335366       0.00236093      -0.00496317      -0.01573730
H       11.62930831       9.07584870       2.04829787      -0.00533786       0.00088587      -0.01123261
H       12.00666423       7.49005071       2.07248863      -0.00194612       0.00057217      -0.01620170
N        2.00707815       0.86161733       2.09680177       0.00354014      -0.01059419      -0.00335827
H        1.12905330       0.78832445       1.58042624       0.01006621      -0.00961428      -0.00797637
H        2.11530745      -0.02681801       2.57978648       0.00206750      -0.00945851      -0.00077656
H        2.72710007       0.89072146       1.38209780       0.01170795      -0.01232113      -0.00025883
N        6.29762188       9.44221485       6.01061010      -0.00447439       0.00530034       0.00001448
H        5.97761470      10.38176095       5.79290833       0.00716017       0.00865507       0.00643487
H        5.59610215       8.82288096       5.61587407      -0.00852334       0.01454410      -0.00752801
H        7.13537245       9.29862974       5.45453806      -0.00294977      -0.00016432       0.00123739
N       10.91498895       6.86923215       9.79349448      -0.01103617       0.00109357       0.00808948
H       11.38334719       6.56390717       8.94116714      -0.01081037       0.00108469       0.00326157
H        9.92381637       6.69708054       9.66447540      -0.00843298       0.00207113       0.00822519
H       11.23387565       6.25757882      10.53638899      -0.00855825      -0.00036764       0.00266908
N        4.97879759       4.05520302      10.38025783      -0.00137305      -0.00892368       0.00275909
H        4.46563975       3.63737629       9.60924093      -0.00502759      -0.00788505       0.00298376
H        4.69173770       5.03580643      10.42097258       0.00294541      -0.00740302       0.00101727
H        4.61109961       3.63484437      11.23009608      -0.00163694      -0.00588052       0.00253448
N       -0.01263037       8.62724933       5.76174238      -0.00017087       0.00657130      -0.01848829
H        0.78483848       7.98387474       5.49793453       0.00146067       0.00654948      -0.00491238
H       -0.93356381       8.17529266       5.58478142       0.00424331       0.00745487      -0.00382161
H        0.04148384       8.80703655       6.76193685       0.00346643       0.01231180      -0.00047970
N        3.45958073      13.36834345      11.93698148      -0.00440343       0.00090826      -0.01071642
H        4.37657187      12.98149861      12.13346599      -0.01411697      -0.00622638      -0.00429605
H        3.35125949      13.32543860      10.91772950      -0.00242571       0.00220706      -0.00864986
H        2.77733622      12.72378424      12.32301395      -0.01690882       0.00498310      -0.01308239
N        0.86842921       7.99292091      12.19332910       0.01041391      -0.00746506      -0.02007183
H        1.01668253       8.16930000      13.18138395      -0.00027130      -0.01124479      -0.01204461
H       -0.02843395       8.41684882      11.97321896      -0.00617215      -0.01263472      -0.01219516
H        1.55739830       8.57048624      11.71308382      -0.00786439      -0.00583923      -0.00905894
N        5.83631806       3.94071339       1.60950706      -0.00667477      -0.00714934      -0.01589572
H        5.49884739       4.01963414       2.56371545      -0.01468858      -0.00638190      -0.01229247
H        4.99824574       3.74027060       1.06167548      -0.00121298      -0.00606081      -0.01625666
H        6.09320355       4.89755601       1.35926661      -0.00366617      -0.00790659      -0.00942751
N       -0.18261823       9.40583462       9.51292398      -0.00662211      -0.00099280      -0.00287938
H       -0.24946818       9.81965351       8.58965368      -0.01618585      -0.00208732      -0.00525731
H       -0.74163031       8.55582773       9.52550441      -0.00002395      -0.00168468       0.00153433
H        0.79257557       9.17945755       9.67516997      -0.00340597       0.00591739      -0.01106217
