197
Lattice="13.874239535275757 0.0 0.0 0.0 13.874239535275757 0.0 0.0 0.0 13.874239535275757" Properties=species:S:1:pos:R:3:forces:R:3 energy=-1082671.625 stress="0.00010710074275266379 -0.00036444084253162146 0.0002451328473398462 -0.00036444084253162146 -0.00012028437049593776 -8.304091170430183e-05 0.0002451328473398462 -8.304091170430183e-05 -0.00026966320001520216" pbc="T T T"
Pm       5.77371457      13.72363011       2.75969257      -0.00066185       0.00333261      -0.00793892
Pm       9.14624271      13.06986328       2.37101175       0.00217125       0.00141171       0.00277837
O       12.80410292      11.70836623       9.07963912      -0.01583058       0.00054979       0.00112075
O       14.69720894      13.51248957       7.97634392      -0.01040661      -0.00244972       0.00322955
O       12.36112390      14.46199629       9.26359585      -0.01285130       0.00125861      -0.00415850
O       12.10962603      13.21360279       6.52440569      -0.00453410      -0.00599465      -0.00334099
Mo      13.01567251      13.21932611       8.25803433      -0.01128203      -0.00102933      -0.00050080
O        7.65270852      14.56846710      15.36559788       0.00183935       0.00141627      -0.00354643
O        7.54182724      14.91340746      12.62904784       0.00766504      -0.00626504      -0.00559390
O        5.49247312      13.46393466      14.53117164       0.00880033      -0.00978661      -0.01123843
O        8.37570801      12.44438038      14.15687853       0.01344705       0.00040698       0.00757653
Mo       7.16206997      13.71950590      13.77576479       0.01005131      -0.00432667      -0.00272733
O       11.19430136      10.52429735       5.88196007       0.00844789      -0.01151824      -0.00450514
O        7.31697597      12.57315613       3.25301076      -0.00471347       0.00700760       0.00081888
O       10.64240686      12.51280332       3.89386047       0.00191301      -0.01183455      -0.00341308
O        9.27653519      12.46274726       6.39692823      -0.00109613      -0.02476963      -0.00493532
Mo      10.80185824      12.18085598       5.68004164       0.00132298      -0.01345521      -0.00368980
O        3.65539192      10.67894102       1.46098915      -0.00227597      -0.00385216      -0.00667119
O        4.25067705       9.71211665       3.35973839      -0.00400980       0.01034142       0.00084323
O        4.26194774      11.94301905       3.20121893      -0.00875029       0.00891340      -0.01414211
C        3.68110926       9.25562557       1.15083482       0.00166993      -0.00578862       0.00287163
C        3.76525975       8.61443742       2.52681894       0.00015630       0.00364655       0.00729761
C        4.06704980      10.84147897       2.70361954      -0.00515193       0.00565979      -0.00686133
H        4.56772009       9.07033650       0.54568017       0.00301671      -0.00803351       0.00553440
H        2.77966060       9.01648617       0.59408013       0.00313613      -0.01149571       0.00316034
H        2.80092970       8.30159227       2.92231245       0.00006622       0.00432641       0.00739184
H        4.49040279       7.81269158       2.59915079       0.00184235       0.00587913       0.01427412
O        4.66202178      11.05858178      12.27797326       0.02501815      -0.00388390       0.00681597
O        6.41937062      10.57924842      11.02577349       0.01055706      -0.01874094      -0.00750889
O        6.38745857      12.49539134      12.13684891       0.03669403      -0.01964557      -0.00571036
C        4.28457297       9.83509830      11.56620848       0.00621641       0.00490820       0.00251564
C        5.61635648       9.36624404      11.00823372      -0.00207648      -0.01043493      -0.00294042
C        5.84873845      11.44375126      11.83800527       0.02506030      -0.01405501      -0.00196384
H        3.55900326      10.10595634      10.80763724       0.00901958       0.01824448       0.00460881
H        3.83239356       9.15467748      12.27931469      -0.00144805       0.00894091       0.00103879
H        6.12440514       8.64042155      11.63559335      -0.00758541      -0.01556367      -0.00437653
H        5.56049905       9.01272456       9.98581540      -0.01071493      -0.00980750      -0.00245756
O        3.90104223      10.79992043       8.64940982      -0.01039643       0.00400791      -0.00517114
O        4.08027796       9.85959265       6.64783413       0.00200047       0.00720091      -0.00538954
O        3.90456323       8.56220082       8.47147166      -0.00216724       0.00460112      -0.00806463
C        3.82306639      11.91637105       7.72648319      -0.01229087       0.00424790      -0.00485685
C        4.21811340      11.28028644       6.39966881       0.00193974       0.00795116      -0.00200510
C        3.95447680       9.65401764       7.96778360      -0.00332705       0.00466692      -0.00609341
H        4.54188411      12.65870176       8.06085366      -0.02065167       0.00936145       0.00177036
H        2.80173743      12.29856370       7.74781462      -0.01552194      -0.00445336      -0.01193647
H        3.54582095      11.53814499       5.58896480       0.00945738       0.00780618      -0.00817668
H        5.25627420      11.47003824       6.12592225       0.00424403       0.01032497       0.00883895
O        9.44236140       6.21033864      12.06607080       0.00700396      -0.00174692       0.00525466
O        7.32821393       6.87217906      11.97788903       0.00236189      -0.01699232      -0.00254471
O        8.96271916       8.32981272      11.47484638      -0.00645134      -0.00780070      -0.00616983
C        8.64994418       5.01408152      12.27609545       0.01495773      -0.00613558       0.00892958
C        7.29543629       5.58925425      12.63580732       0.01016033      -0.01437898       0.00283992
C        8.61199309       7.22919961      11.80001783      -0.00004017      -0.00934547      -0.00136602
H        9.11106243       4.43388873      13.07109374       0.01523636       0.00065395       0.01359326
H        8.63471069       4.45314857      11.34513494       0.02236681      -0.01105875       0.01190442
H        6.45563031       5.02041956      12.25310657       0.01506776      -0.02261713       0.00410895
H        7.18911593       5.77661582      13.70629334       0.00657852      -0.01060346       0.00186503
O        9.23764208       8.64148765       2.56282094      -0.01070376       0.01680914       0.00176021
O        7.98462215       8.13371840       0.79783165       0.01104473       0.00182292      -0.00909034
O        8.72093971       6.49409756       2.14455562      -0.00212547       0.01540232       0.01215170
C        8.89485883       9.91759992       1.99126102       0.00281969       0.01202923      -0.01621047
C        8.18786602       9.55866389       0.68205264       0.00456712       0.00214118      -0.01476514
C        8.65946777       7.65364089       1.85602987      -0.00159788       0.00875926       0.00360045
H        9.82794203      10.47294727       1.83504570       0.00736582       0.00256772      -0.01952624
H        8.23515324      10.43174101       2.69806095       0.00316939       0.02544589      -0.02574244
H        7.21748210      10.04110958       0.58806511       0.00197920      -0.00349303      -0.01650645
H        8.78057094       9.75353153      -0.20784170       0.00338665       0.00081539      -0.01556090
O        9.44537449       4.92014214       7.20351502       0.00478183      -0.00636664       0.00570005
O        9.49166504       3.95283745       9.20024253       0.00608772      -0.00635752       0.00548881
O        8.42047032       5.91038656       8.94191908       0.00475776      -0.00704515       0.00577730
C       10.11060291       3.66836717       6.96854580       0.00593774      -0.00559434       0.00536281
C       10.24451148       3.05022275       8.36395556       0.00618577      -0.00607929       0.00522971
C        9.06630857       5.00696796       8.49331462       0.00512946      -0.00663710       0.00557497
H       11.06912298       3.88115755       6.50041751       0.00533479      -0.00537694       0.00410457
H        9.48780660       3.07893623       6.29853216       0.00507486      -0.00243473       0.00435904
H        9.79944676       2.06092837       8.44140493       0.00679991      -0.00629005       0.00586244
H       11.26830884       3.00945991       8.72882593       0.00629157      -0.00562669       0.00485878
O        4.50434799       4.89328321      10.68900857      -0.00620079       0.00762750       0.00470495
O        2.74318657       3.83037728      11.53138835      -0.00976083       0.00529748      -0.00664552
O        4.79590671       3.39368118      12.34217184      -0.01408732       0.01220858       0.01023358
C        3.35641664       5.58464948      10.14257696      -0.00335616       0.00469548      -0.00523967
C        2.22016769       4.61772720      10.44401000      -0.00492823       0.00518534      -0.00953665
C        4.07779149       3.98436772      11.58885645      -0.01039505       0.00889185       0.00362089
H        3.53769005       5.76748889       9.08660374       0.00327342       0.00119327      -0.00473300
H        3.24081374       6.52951060      10.67237978      -0.00716143       0.00630596      -0.00905961
H        1.31857274       5.11182555      10.79144256      -0.00636032       0.00596370      -0.01392537
H        1.99498296       3.94154744       9.61793765      -0.00260943       0.00623161      -0.01121041
O        7.35436420      10.79807370       8.12794541      -0.00322341      -0.01210034      -0.00657362
O        8.72977618      12.09010358       9.30056456      -0.01071942      -0.00529020      -0.00552717
O        6.76383235      12.91466491       8.59456821      -0.01100588      -0.01325154      -0.01318128
C        8.56256746      10.01646938       8.25316379      -0.00183690      -0.00872678      -0.00004679
C        9.38096276      10.80098344       9.27027803      -0.00667220      -0.00342707      -0.00015008
C        7.55823126      12.01810577       8.66317329      -0.00869805      -0.01020449      -0.00883140
H        9.04419186       9.97293672       7.27778907       0.00122458      -0.01095661       0.00163007
H        8.30417998       9.01774758       8.59939222      -0.00080164      -0.00798705       0.00278914
H        9.32558433      10.36736587      10.26690797      -0.00866834      -0.00067264       0.00088727
H       10.41950486      10.94393467       8.97298949      -0.00626177      -0.00091714       0.00274107
O        5.31027589       6.48749080       6.43926501      -0.01313269      -0.00861169      -0.00052226
O        5.76874421       6.75810185       4.28084198       0.00464657      -0.00126587       0.00433764
O        3.85742991       5.74889708       4.88964386      -0.00103211      -0.00082737      -0.01515172
C        6.52355137       7.27653450       6.41993553      -0.01200183      -0.00987273       0.01192772
C        6.96313648       7.19228724       4.96322233       0.00004792      -0.00616657       0.01556581
C        4.89036165       6.27794131       5.19102530      -0.00373709      -0.00364068      -0.00489657
H        7.23180648       6.83464433       7.11788500      -0.01805437      -0.01309305       0.01596743
H        6.26199311       8.29004282       6.72224247      -0.01337843      -0.01074612       0.01314545
H        7.26664849       8.14959078       4.54403740       0.00584516      -0.00581712       0.02086942
H        7.72879042       6.44096942       4.79203280      -0.00099593      -0.00801578       0.02015476
O        2.02472882       4.99668769       0.88753025      -0.00348972      -0.00072229      -0.01744063
O        3.83443574       6.15191726       0.30463510       0.00010593       0.00829930       0.01297148
O        1.90667437       6.47509266      -0.80833464       0.01182520       0.01306427      -0.00688267
C        3.00641214       4.71223415       1.90791169      -0.01417378      -0.00632110      -0.00857991
C        4.29903824       5.16126868       1.24758137      -0.00820488       0.00095563       0.00937936
C        2.51808872       5.91501066       0.05481539       0.00465927       0.00709990      -0.00346148
H        2.97050871       3.64751541       2.12684874      -0.01452802      -0.00786600      -0.01693436
H        2.76849016       5.28677171       2.80202423      -0.02531116      -0.01234999      -0.00790685
H        4.99731019       5.64032024       1.93154199      -0.01643877      -0.00385703       0.02090088
H        4.78209414       4.36659006       0.67555354      -0.00146188       0.00644004       0.00780845
O        2.03843983      14.27948679       3.04702860       0.00107466       0.01774853       0.00404352
O        2.30449047      14.20691920       5.24161478       0.00682649      -0.01933182       0.00169671
O        4.01261398      14.82407036       3.94544657       0.00484620      -0.00116671       0.00720129
C        0.79276893      13.70094771       3.53790627       0.00669819       0.00092500      -0.00065631
C        0.89748265      13.87100876       5.04679586       0.00309408      -0.00243565      -0.00107980
C        2.84932005      14.45760802       4.07663838       0.00516079      -0.00089861       0.00430287
H        0.77475249      12.65470346       3.23836786       0.02165767       0.00165227      -0.00373541
H       -0.02937934      14.24115317       3.07784383       0.00117305      -0.00813605      -0.00077228
H        0.30845088      14.69059782       5.44824980       0.01219571       0.00483942      -0.00216205
H        0.70870368      12.96180204       5.60150207      -0.00863205      -0.00071079      -0.00248393
O       12.21415297       6.30784309       6.23222899       0.00705325      -0.00307088      -0.00500947
O       10.58633931       7.64486027       6.93491584       0.00509603      -0.00912221       0.00184761
O       11.77624545       6.45201210       8.43170709       0.01311538      -0.00797880      -0.00287139
C       11.81885590       7.07491106       5.06739905       0.00154001      -0.00192533      -0.00200877
C       10.47641032       7.62612411       5.49434812       0.00013244      -0.00894533       0.00220855
C       11.53398660       6.77626765       7.30374681       0.00842199      -0.00658521      -0.00249845
H       11.78421478       6.41756777       4.20362596       0.00256752       0.00001845      -0.00342292
H       12.55887551       7.85934518       4.91081028      -0.00252050       0.00207475      -0.00163392
H       10.29620251       8.64003796       5.15778194      -0.00627133      -0.00983185       0.00297333
H        9.65937473       6.95922624       5.22789953       0.00283757      -0.01326773       0.00469889
O       14.17625865       8.05376967      11.21413052      -0.00777582       0.00872082       0.00009845
O       13.05438479       8.77174667      12.99045924       0.00022110       0.01055029       0.00442457
O       15.01425944       9.73328504      12.46356349      -0.00077218       0.01226854      -0.00518347
C       13.13603773       7.06615004      11.42481386      -0.00602496       0.00873423       0.00648719
C       12.19383319       7.77339119      12.38219744      -0.00162661       0.00951660       0.01045361
C       14.16493763       8.91539262      12.23873690      -0.00525212       0.00805181      -0.00147099
H       13.60207962       6.19656745      11.88679585      -0.00331455       0.00918043       0.00501907
H       12.69232629       6.82163558      10.46394477      -0.01073635       0.00737647       0.00892687
H       11.36942615       8.27828242      11.88062342      -0.00468704       0.00778458       0.01356381
H       11.81386878       7.12930961      13.17003013       0.00247648       0.01017737       0.01319924
O        6.99880630       3.17733759       7.60745547       0.00406589      -0.00697744       0.00416091
O        5.17314267       3.00975232       6.35863764       0.00121057       0.00167772       0.00708783
O        6.95363303       4.13126765       5.57503681       0.00322229      -0.00223756       0.00640625
C        6.13424030       2.27061960       8.34348313       0.00311834      -0.00726610       0.00259024
C        4.79706192       2.44654263       7.63620000       0.00220364      -0.00091239       0.00616000
C        6.42093417       3.49715155       6.44658651       0.00287876      -0.00247955       0.00587320
H        6.12806571       2.58358102       9.38394469       0.00621055      -0.01142043       0.00382134
H        6.53918344       1.26475277       8.25395199      -0.00021592      -0.00813448      -0.00249760
H        4.26391691       1.51693320       7.45480917      -0.00064224       0.00105670       0.00446493
H        4.14244638       3.16473126       8.13195564       0.00543863      -0.00059944       0.00990239
O        1.22385504       8.46930490       5.38383816       0.00428565       0.00623143      -0.00463670
O        1.08126172       9.70105934       7.22586801      -0.00141625       0.01635705      -0.01178044
O        1.18771489      10.70925908       5.21947127       0.00739477       0.00704616      -0.01736164
C        1.38277435       7.53000516       6.48145719      -0.00087062       0.01220846       0.00101452
C        0.89547219       8.33489519       7.67466253      -0.00545770       0.01901130      -0.00563282
C        1.16601754       9.71172859       5.89393420       0.00361958       0.00736195      -0.01044020
H        2.43776436       7.26942286       6.54847317      -0.00119358       0.01230217       0.00706065
H        0.78008746       6.65367730       6.26358716       0.00003514       0.01047063       0.00448589
H       -0.16111835       8.19388071       7.89774932      -0.00676125       0.02172797      -0.00991283
H        1.49300535       8.19117461       8.56924970      -0.01002455       0.02266645      -0.00201192
O        6.93346382       1.90515242       3.75558126       0.00085518      -0.00047088       0.00116631
O        8.48829667       3.19848605       2.84638238       0.00112206       0.00181913       0.00512679
O        9.08946731       1.24953342       3.75733770       0.00124162       0.00035813       0.00212608
C        6.17212440       2.92642032       3.04368422       0.00101328       0.00226021       0.00512612
C        7.24835315       3.88481073       2.54664882       0.00116605       0.00212306       0.00504124
C        8.24964274       2.07258907       3.46174877       0.00066224       0.00092909       0.00277955
H        5.46810779       3.36107582       3.74457975       0.00245772       0.00134745       0.00717792
H        5.64922703       2.42612587       2.21502748      -0.00120976       0.00472084       0.00492629
H        7.22526039       4.03651264       1.47122270       0.00102742       0.00156814       0.00493953
H        7.25763363       4.83308443       3.06842193       0.00151502       0.00246328       0.00438353
O       10.92197254      12.09232140      12.86900227       0.00814426       0.00006738       0.01934668
O       12.78989432      13.16945477      13.34381630      -0.00280720       0.02952237      -0.00602493
O       11.16622054      13.08657949      14.86662310       0.00703096       0.02852091       0.00547148
C       11.67287198      12.06245559      11.61211575      -0.00267372       0.00239998       0.01315802
C       13.02960070      12.63174519      12.00229812      -0.00329429       0.00956002       0.00208595
C       11.59080631      12.80116374      13.75100098       0.00446483       0.01999064       0.00661929
H       11.14575435      12.68548744      10.89335230      -0.01157194      -0.00088608       0.01666749
H       11.70870215      11.03581339      11.26814885      -0.00036648       0.00230205       0.01404828
H       13.81459384      11.88253257      12.08139682      -0.00253645       0.01149318       0.01262186
H       13.33211485      13.45957642      11.36682784      -0.00470746       0.00009537      -0.01056683
O       12.34580986       8.73514814       2.34058503      -0.00196704      -0.00547463      -0.01256150
O       14.50201097       8.53854891       1.82647142      -0.00314394      -0.00781283      -0.00022097
O       13.21120338       6.69749194       1.94626496      -0.00252959       0.01849294      -0.00090847
C       12.81105528      10.09130201       2.25604534      -0.00210154      -0.00547284      -0.01002577
C       14.32222514       9.94546568       2.07216731      -0.00252920      -0.00614542      -0.01119463
C       13.34070263       7.87983251       2.02299935      -0.00322790      -0.01165932      -0.00495359
H       12.53163059      10.60855426       3.17309390      -0.00118244      -0.00218101      -0.00910941
H       12.33197108      10.56311669       1.39907325      -0.00156936      -0.00009824      -0.00965229
H       14.70089016      10.49010288       1.20884765      -0.00290968      -0.00901163      -0.01560542
H       14.87002289      10.20482558       2.97884667      -0.00052725       0.00442796      -0.01351166
