197
Lattice="13.63497599094583 0.0 0.0 0.0 13.63497599094583 0.0 0.0 0.0 13.63497599094583" Properties=species:S:1:pos:R:3:forces:R:3 energy=-746522.875 stress="0.0008992429357022047 -0.0007378674345090985 -6.960431346669793e-05 -0.0007378674345090985 0.0016750472132116556 0.00038216260145418346 -6.960431346669793e-05 0.00038216260145418346 0.001571302185766399" pbc="T T T"
Pm       6.77857235      13.44737616       9.92080440      -0.00400839      -0.00621140       0.00600399
Pm       9.44894312      13.61958072       2.05744867      -0.00797039       0.00910776      -0.01066411
O       12.45702456      12.15878406       3.75741359      -0.00016066       0.02746403       0.00329334
O       11.54578699      13.81461603       1.78146665      -0.00998789       0.01988216      -0.00590271
O       12.99011935      14.77683800       3.95708458      -0.02944559       0.02744269      -0.00898251
O       10.37736461      13.85376635       3.97706223      -0.01490009       0.02161532      -0.00425261
Cr      11.98933810      13.66066916       3.44415551       0.00340867       0.04833159       0.00383121
O        9.33577061      10.73022609       8.36456296      -0.00929958      -0.00494093       0.00021552
O        9.17645264      12.85877728       6.79227022       0.00085917       0.00245100      -0.00289851
O        8.82448102      13.23808183       9.47771878      -0.00395602      -0.00970486       0.00774229
O        6.96527675      12.16015838       8.23518868      -0.00487182      -0.00250654       0.00434789
Cr       8.68394300      12.16712635       8.12188823      -0.00939196      -0.01772261       0.02199686
O        6.37013702      11.79033618       0.05650582      -0.00863761      -0.00968707      -0.00475214
O        8.94199977      12.57512765       0.07792262      -0.00956523       0.00327800      -0.00946599
O        7.28163511      14.02291980       1.25646595      -0.01441827      -0.00930065       0.00359875
O        7.07674554      13.81994612      -1.55783898      -0.01922727       0.00269455       0.00576958
Cr       7.35263732      13.03411812      -0.08170737      -0.01425347      -0.00500089      -0.00150994
O        3.41689713       0.64770653      11.00339474       0.02011502       0.00004426      -0.00585186
C        2.71726163       1.47123014      11.97523332       0.01740360      -0.00505045      -0.00273984
C        2.03009282       2.62809550      11.27607046       0.01558241      -0.00383872       0.00073352
C        1.73745234       0.64301943      12.78692367       0.01699910      -0.01038587      -0.00766498
H        3.51113883       1.84734347      12.62371744       0.01584381      -0.00572652      -0.00047180
H        1.58503789       3.30836119      12.00745177       0.01303554      -0.00796808       0.00315304
H        2.74502511       3.17745479      10.66269825       0.01457170       0.00076286       0.00359212
H        1.21371594       2.28094112      10.63522846       0.01705216      -0.00382482      -0.00115031
H        1.25735169       1.25878816      13.55087472       0.01495336      -0.01511648      -0.00332104
H        2.23627548      -0.19067245      13.28021373       0.01720694      -0.01253220      -0.01117261
H        0.94384329       0.25245613      12.14409537       0.02105312      -0.01040513      -0.01302218
H        2.73758824       0.26779472      10.43363422       0.02079317       0.00173401      -0.00799615
O        4.47097468       3.09069466       5.11073398       0.00393631      -0.01038235       0.02414942
C        3.56257934       2.01164706       5.46192129      -0.00298044      -0.01005608       0.01129970
C        2.11950893       2.41704761       5.25625857       0.00032520      -0.00171028       0.00577432
C        3.93496178       0.75638634       4.69912048      -0.00321054      -0.00427836       0.00178549
H        3.74353498       1.85654163       6.52793901      -0.00871526      -0.02057791       0.01110244
H        1.44773750       1.65560036       5.65382729      -0.00538556      -0.00341775      -0.00689652
H        1.90415328       3.36588392       5.75112577       0.00113470      -0.00739606       0.01795901
H        1.88589798       2.50367746       4.19330398       0.00689283       0.01134042       0.00391200
H        3.33677771      -0.08340688       5.05566868      -0.00946876      -0.00455613      -0.00960522
H        4.99043844       0.51408696       4.83158010      -0.00490057      -0.00985728       0.00585764
H        3.73789071       0.87812259       3.63222264       0.00361609       0.00667271       0.00195847
H        4.07794438       3.57884664       4.37865381      -0.00512514       0.01458538       0.04644911
O        8.65817235       2.31623050       2.65732825       0.00488472      -0.01531336      -0.02777930
C        8.87375929       3.34707276       3.68792618       0.00967670      -0.02848977      -0.01588508
C       10.15390424       4.08188770       3.36546597       0.01350242      -0.03264287      -0.00791971
C        7.67202541       4.27003549       3.74528655       0.01020497      -0.02951077      -0.01037445
H        8.98458546       2.81309489       4.63710155       0.00750000      -0.04226893      -0.02340978
H       10.36839644       4.79316407       4.16551557       0.01341881      -0.03691553      -0.00383867
H       10.99766663       3.39606061       3.28643792       0.01164398      -0.03518681      -0.00690862
H       10.05793276       4.63788808       2.43140362       0.02001581      -0.02801007      -0.00607057
H        7.84479282       5.05369511       4.48573480       0.00881925      -0.03245157      -0.00744294
H        6.75995655       3.74177334       4.03274303       0.01140797      -0.03305842      -0.01264308
H        7.51610640       4.76153106       2.78123787       0.00933629      -0.02654435      -0.00898112
H        7.72097376       2.29500248       2.42448568       0.00510579      -0.01012617      -0.03001327
O       12.37036152       2.24958013       9.47827690       0.00166408      -0.00203314       0.00206888
C       12.34111620       1.90438946       8.08994823      -0.00167242       0.00193787       0.00117099
C       12.82332794       0.47124100       7.97697087       0.00120495       0.00323516      -0.00406954
C       10.95177745       2.07295816       7.49867838      -0.00429183       0.00053436       0.00614947
H       13.04263889       2.55393843       7.54237424      -0.00512445       0.00481856       0.00033450
H       12.91117543       0.17816898       6.92976281      -0.00408659       0.00512372      -0.00499585
H       13.79656942       0.35730772       8.45912189       0.00417790       0.00466814      -0.00979114
H       12.11430060      -0.19783140       8.46873601       0.00551158       0.00050931      -0.00105689
H       10.94478448       1.77033436       6.44942258      -0.00631077       0.00580172       0.00469042
H       10.62289861       3.11279704       7.56446800      -0.00696485      -0.00048275       0.01224869
H       10.24317596       1.44058587       8.03741975      -0.00088939      -0.00404152       0.00532441
H       11.75882295       2.98135852       9.65396069       0.01110945       0.00589797       0.00290792
O       10.57694574       4.23605917      10.73428411       0.02400717       0.02115595      -0.00326341
C       10.24371843       3.58285780      11.97645750       0.01722466       0.01337633      -0.00949889
C       11.48395383       3.00996762      12.63913149       0.01344132       0.00938185      -0.00499943
C        9.49271358       4.53372390      12.89408464       0.01121432       0.00698417      -0.00752914
H        9.57954458       2.76469447      11.68071442       0.01952848       0.01496485      -0.01849310
H       11.23218723       2.49761157      13.57130698       0.00756737       0.00250960      -0.01036181
H       11.98227276       2.30215570      11.97778501       0.01778582       0.01382734      -0.00652611
H       12.17936254       3.81464931      12.89139291       0.01143503       0.00765689       0.00549436
H        9.16417679       4.01511659      13.79713472       0.00740646       0.00102951      -0.01235369
H        8.61680283       4.94915094      12.39494094       0.01279509       0.00868155      -0.00899051
H       10.14411875       5.35716098      13.20067754       0.00866455       0.00575200       0.00110739
H       11.08899186       5.03206902      10.93961323       0.01739921       0.02397719       0.00267185
O        9.87054910       8.21566672       6.48507538      -0.00032952       0.01258320      -0.00895411
C       10.97201326       7.33252590       6.28623874      -0.00072294       0.01292250      -0.00118858
C       12.29035102       7.97780721       6.65941012      -0.00024974       0.01557764      -0.00612715
C       10.73881984       6.01726370       7.01683275       0.00166759       0.01512659       0.00471872
H       10.98687624       7.11896127       5.20972251      -0.00218873       0.00748576      -0.00068414
H       13.12074436       7.31665197       6.40853059       0.00044668       0.01603310      -0.00462000
H       12.42620271       8.92338243       6.13355564      -0.00303427       0.01397489      -0.01018953
H       12.33070396       8.17589163       7.73600368       0.00129350       0.02058741      -0.00695978
H       11.51878179       5.29376826       6.76731904       0.00302351       0.01501871       0.00794502
H        9.77381675       5.59458030       6.73232013       0.00245129       0.01188278       0.00732788
H       10.73298884       6.16005492       8.10032344       0.00226695       0.01920998       0.00436303
H       10.08763132       8.90932010       7.12013846      -0.00991152       0.00254991       0.01091716
O       -0.00294465       5.88416728       1.57275760       0.00502373       0.00947714      -0.01155728
C        0.85127513       6.16069514       2.69189604      -0.00233966       0.00211240      -0.00393923
C        2.05816706       5.23653861       2.69935571      -0.00214654       0.00242898      -0.00249071
C        1.26337521       7.62157805       2.71479819      -0.00346762       0.00248015       0.00826804
H        0.22662585       5.94198745       3.56255819      -0.00784835      -0.00393274      -0.00950927
H        2.63432066       5.38778616       3.61662117      -0.00680973      -0.00140639       0.00113535
H        1.73827848       4.19622713       2.64808910      -0.00132595       0.00248075      -0.00902862
H        2.71370162       5.44193585       1.84915652       0.00204120       0.00648055       0.00163625
H        1.84136960       7.83968958       3.61485930      -0.00999260      -0.00220005       0.01366417
H        0.38905812       8.27128069       2.69544319      -0.00419967       0.00168874       0.00606441
H        1.89353171       7.85734576       1.85264263       0.00191525       0.00814478       0.01370202
H        0.48359861       6.12372102       0.77742968       0.01018634       0.01416820      -0.00676942
O        5.00093553       8.86001593      10.22810142      -0.00306520      -0.00445938       0.01250184
C        5.51552410      10.17802916      10.03903632      -0.00366953      -0.00480300       0.00783676
C        4.45599901      11.20265982      10.41524707      -0.00160605      -0.00354716       0.01117876
C        6.80504180      10.32390458      10.83177695       0.00019550      -0.00381106       0.00190741
H        5.71638712      10.24741452       8.97154168      -0.00872625      -0.00628731       0.00689381
H        4.78022915      12.25076637      10.28053670      -0.00562109      -0.00480888      -0.00436039
H        3.56851332      11.07174247       9.79538027      -0.00825910      -0.01122431       0.02206367
H        4.17670792      11.11992033      11.46874281       0.01000666       0.00585680       0.01486969
H        7.25516720      11.33171751      10.81366277      -0.00376154      -0.00216927       0.00630329
H        7.56687139       9.65549146      10.43823403       0.00110543       0.00108823      -0.00535210
H        6.63158981      10.10800059      11.88858648       0.00594079      -0.01055638       0.00158353
H        4.86507164       8.73198047      11.17306835       0.00321738      -0.00348163       0.01385503
O        4.19409582       9.39392725       1.29468897       0.01620916       0.01448073      -0.02220899
C        4.19234367      10.03162980       2.58132947       0.00541574       0.00226963      -0.01637229
C        5.62052557      10.22845568       3.05973576       0.00165391       0.00330272      -0.00430062
C        3.41760342      11.33645479       2.53852820       0.00005096      -0.00065356      -0.00926977
H        3.67551201       9.32694118       3.23811188       0.00426480      -0.00608757      -0.02599812
H        5.65611585      10.74188606       4.02396855      -0.00746373      -0.00486913       0.00025393
H        6.13032036       9.26924102       3.15165950       0.00365620       0.00383103      -0.00836131
H        6.16193290      10.84103943       2.33593511       0.00604710       0.01104918       0.00540057
H        3.37325754      11.79024868       3.52944045      -0.00820011      -0.00929093      -0.00575493
H        2.39788615      11.17352601       2.18994528       0.00279725      -0.00198898      -0.01731053
H        3.91242391      12.04425887       1.86831615       0.00116953       0.00708096      -0.00038585
H        4.71407548       9.96535075       0.71744650       0.01732359       0.02256125      -0.01366147
O        4.24414611       4.48058288      13.54281432      -0.00546849       0.00274840       0.00503749
C        5.42841201       4.99223435      12.92013290      -0.00446120       0.00407705       0.00763860
C        5.69815222       4.26446094      11.61584636       0.00032028       0.00249216       0.00954050
C        5.33292671       6.49571770      12.72450956      -0.00665006       0.00346136       0.00470179
H        6.22610232       4.76618946      13.63363084      -0.00607282       0.00669213       0.01056096
H        6.64163959       4.58622971      11.16980123       0.00140060       0.00331135       0.01230935
H        5.73673346       3.18668202      11.78691693       0.00066747       0.00267421       0.01046025
H        4.90533103       4.47657135      10.89227007       0.00154668       0.00101231       0.00755262
H        6.24964041       6.88629531      12.27555303      -0.00564553       0.00406436       0.00683368
H        5.15071390       7.00777418      13.66951281      -0.01079313       0.00570224       0.00264296
H        4.50913384       6.71906363      12.03908043      -0.00463881       0.00008202       0.00106266
H        3.52023738       4.60511643      12.91941883      -0.00437494      -0.00059121       0.00265262
O        4.51050233       9.53349216       6.81160985      -0.00567228      -0.00684798      -0.00085175
C        5.37784902       8.38425818       6.78012598      -0.00359502      -0.00544915       0.00043878
C        4.87126299       7.35839155       5.77812765       0.00053188      -0.00574678      -0.00157952
C        6.81238502       8.78632599       6.51371314      -0.00357747      -0.00275514       0.00388640
H        5.30239462       7.97212211       7.78857161      -0.00517186      -0.00631300       0.00001651
H        5.48270963       6.45330007       5.82024982       0.00198950      -0.00478378      -0.00027180
H        3.83901050       7.08060118       5.99111087       0.00031346      -0.00745035      -0.00411246
H        4.93379403       7.75789106       4.76151895       0.00258010      -0.00496427      -0.00128658
H        7.48080594       7.92874865       6.57225074      -0.00196278      -0.00148623       0.00600251
H        7.16090393       9.52908202       7.23143365      -0.00698314      -0.00145501       0.00423925
H        6.91757205       9.20930348       5.51138611      -0.00162014      -0.00340798       0.00362360
H        4.65966867      10.02034740       5.99533753      -0.00247025      -0.00449155       0.00110115
O       12.05725197       7.24136237      10.93690574      -0.01525490      -0.02100509      -0.00138044
C       11.23939936       8.23526715      11.58539023      -0.00744355      -0.01422560      -0.00081290
C       11.79336991       9.63331026      11.37130216       0.00156516      -0.01798886      -0.00408611
C        9.80109663       8.12139151      11.12019016      -0.00939846      -0.00520272       0.00232983
H       11.30679925       7.97312919      12.64411835      -0.00679731      -0.01293115      -0.00028121
H       11.18199797      10.37051389      11.89589662       0.00668909      -0.01365326      -0.00426182
H       12.82051343       9.71241211      11.72837537       0.00261089      -0.02194446      -0.00556984
H       11.76426630       9.89462620      10.30964169       0.00173183      -0.01955153      -0.00449035
H        9.15849048       8.76085638      11.72680504      -0.00339244      -0.00011668       0.00312006
H        9.45136612       7.09152840      11.19881927      -0.01736502      -0.00252530       0.00366841
H        9.70982252       8.44947491      10.08082579      -0.00968067      -0.00584460       0.00200512
H       12.12198390       7.48768468      10.00742326      -0.01646929      -0.02248523      -0.00205952
O        9.96148312      11.33580919       2.67656144      -0.00332907       0.02238095       0.00923964
C       10.05889496      10.00834831       2.06061285      -0.00795497       0.02337578       0.00329195
C       11.48673843       9.75460754       1.61477564      -0.00899720       0.02519393      -0.00011840
C        9.58180437       8.96718702       3.05282143      -0.01122496       0.02362406       0.00127894
H        9.38729040      10.06213125       1.20055041      -0.00873592       0.02971604       0.00481054
H       11.57881966       8.74259292       1.21558656      -0.01069865       0.02790172      -0.00767420
H       11.80315795      10.46772490       0.85419157      -0.01062627       0.03035048       0.00384796
H       12.16473922       9.83949794       2.46651873      -0.00664246       0.01914909      -0.00129922
H        9.64873532       7.97185592       2.60719118      -0.01675384       0.02371126       0.00007143
H        8.55138193       9.14546750       3.35559817      -0.01061304       0.02871696       0.00058312
H       10.20034714       8.97932850       3.95170788      -0.01200528       0.01965398       0.00199568
H       10.74410590      11.43306014       3.26395037      -0.00390810       0.02117954       0.00637560
O        4.99704040       3.65089636       7.82391684      -0.00812143      -0.00298591       0.00938189
C        6.21427453       3.12024231       8.32738580      -0.00453168       0.00430503       0.00762285
C        6.47109092       1.71470214       7.78575506      -0.00378041       0.00029734       0.01726115
C        7.39798469       4.03528958       8.06500181      -0.00742394       0.00460726      -0.00517783
H        6.05735410       3.04921897       9.41086057       0.00175113       0.01186763       0.00876272
H        7.44936963       1.32851557       8.12079888      -0.00304458       0.00362695       0.01951154
H        5.64820073       1.02707087       8.04989245      -0.00367119       0.00245684       0.02345592
H        6.52970132       1.71655838       6.69272884      -0.00492275      -0.00799505       0.01725450
H        8.30223991       3.66044536       8.55017065      -0.00497267       0.01104480      -0.00474317
H        7.19151619       5.03625769       8.44283719      -0.00848163       0.00755376      -0.01369525
H        7.59059124       4.10322769       6.99099701      -0.01109528      -0.00480729      -0.00658910
H        5.01594896       3.64190257       6.84912461      -0.01462081      -0.01421570       0.00878935
O        2.23314852       5.55755417       7.27599838       0.00868857      -0.01066828       0.00128561
C        1.65488868       6.34103137       8.32898148       0.00210384      -0.01105519      -0.00199443
C        0.82896202       5.47139081       9.25984402       0.00011617      -0.01227343      -0.00459397
C        2.71271166       7.13905957       9.06359535      -0.00244135      -0.00814420       0.00188562
H        0.99577592       7.04071219       7.81218738       0.00218546      -0.01298726      -0.00535074
H        0.37791866       6.06724667      10.05538888      -0.00401699      -0.01261045      -0.00650927
H        0.04110577       4.94592984       8.71866770       0.00305137      -0.01404022      -0.00719823
H        1.46435031       4.71969255       9.72840191      -0.00017212      -0.01089735      -0.00173870
H        2.26981555       7.71131947       9.88097483      -0.00594016      -0.01088848       0.00202408
H        3.21251697       7.84103243       8.40069718      -0.00286894      -0.00562060       0.00415505
H        3.47103253       6.47626740       9.49121679      -0.00131890      -0.00661421       0.00264938
H        2.96105022       5.04908410       7.65581783       0.01038383      -0.00636894       0.00455344
