200
Lattice="13.580463966940933 0.0 0.0 0.0 13.580463966940933 0.0 0.0 0.0 13.580463966940933" Properties=species:S:1:pos:R:3:forces:R:3 energy=-678446.375 stress="0.001498688943684101 5.550577270696522e-06 -0.00037585072277579457 5.550577270696522e-06 0.0015614792937412858 -0.00017509921599412337 -0.00037585072277579457 -0.00017509921599412337 0.00035270306398160756" pbc="T T T"
Pr       6.62055260      12.77091886       1.95077254      -0.01556814      -0.00914404       0.00585189
Pr       9.19745195      14.00813345      12.89296737      -0.00908149      -0.00290185       0.01204729
S       11.61453173      12.94105297       3.12173674      -0.00626618      -0.00468174       0.01470622
S        8.64604261      14.42130126       1.85294342      -0.01547322      -0.00712329       0.01208708
S       12.86439170      13.68259073       1.74770651      -0.00899369       0.00023684       0.01426584
S       12.00448642      14.03132448      -0.12392447      -0.01059303       0.00610137       0.01661699
S       11.21146409      12.28472802      12.68758940      -0.00252298       0.00687987       0.00430855
S        6.54142656      13.26559814      12.95639966      -0.00799885      -0.00550047       0.00447518
O        2.92885219       8.62248201       2.51524805       0.03849757       0.02849680       0.00855672
C        3.57242670       7.36234709       2.68761474       0.01137671       0.01135969      -0.00803501
H        2.92207790       6.53208099       2.38697629      -0.00739959       0.03060956      -0.01962164
H        3.89035607       7.20026045       3.72060317       0.00725575      -0.00845740      -0.00991625
H        4.45262214       7.35061176       2.04560284       0.01142517       0.00135467      -0.00749297
H        2.18529493       8.62922461       3.14199853       0.03189901       0.03024922       0.00032371
O        7.11738051       3.20744156      10.81476593      -0.00516837      -0.00349092      -0.00817275
C        7.28112824       2.21389458       9.78560448      -0.00674926      -0.00500615      -0.00721788
H        6.35213210       2.05731812       9.24066155      -0.00426954       0.00372462      -0.01389489
H        7.55077530       1.28743132      10.28864851      -0.01836596      -0.00718873      -0.00495659
H        8.07661997       2.49222863       9.09092606       0.00120863      -0.01212161      -0.00113600
H        6.83883050       4.03880253      10.41456864       0.00147542      -0.00166202      -0.00983405
O        4.81870702      11.04828591       1.58327115      -0.02355796      -0.00629586       0.00840181
C        3.82735868      11.02130918       0.51709528      -0.00619519       0.00491713      -0.00814775
H        3.06116661      10.29591398       0.77844105      -0.01487792       0.00839083      -0.02389346
H        4.31983451      10.74858848      -0.41320956       0.00703226       0.00539298      -0.00138542
H        3.39680170      12.01644588       0.42326935       0.00060559       0.00761051      -0.01206104
H        4.60547758      10.32559115       2.19185907      -0.04327604      -0.00895435       0.00042135
O        2.00959873       4.00919742      13.16784235       0.00580123      -0.00240874      -0.00103927
C        0.67290107       3.49599837      13.06219087       0.00655684      -0.00506167       0.00166506
H        0.43883011       2.81385631      13.88423287       0.00937095      -0.00503641       0.00259510
H        0.51216792       2.97477076      12.11511216       0.00551027      -0.00612597       0.00235236
H       -0.01036877       4.34626021      13.10711516       0.00477998      -0.00638637       0.00246541
H        2.62674896       3.30759302      12.86361064       0.00648582      -0.00162157      -0.00248245
O        6.77268256       8.09221036       9.46041071      -0.00427568      -0.00454482       0.00296196
C        7.54980412       7.21131509       8.68290510      -0.00055379      -0.00336251       0.00518292
H        6.95386663       6.65238156       7.95119834       0.00406519       0.00284459      -0.00344488
H        8.10131546       6.48387831       9.30122509      -0.00847159      -0.00847358       0.00625846
H        8.28051208       7.80686806       8.13310752       0.00660278      -0.00284770       0.01516371
H        5.99212419       7.60596426       9.77657501      -0.00461079      -0.00599590       0.00049926
O        3.69349712       2.11917387      12.25465628       0.00118685      -0.00670052      -0.00123021
C        3.87217194       2.54826663      10.90220782      -0.00093838      -0.01861701      -0.00539107
H        4.48968002       1.83758157      10.35599992      -0.00633834      -0.02681229      -0.00137880
H        4.32986202       3.54134986      10.85477752       0.00435342      -0.02163967      -0.01505513
H        2.88826865       2.58584916      10.43790870      -0.00245741      -0.01720036      -0.00234947
H        4.50718253       1.69021687      12.55309305       0.00085580      -0.00631851       0.00023025
O        4.35502123      11.51486563       5.40939041       0.00187072       0.00892004       0.01325976
C        3.71089171      10.23686611       5.41229745       0.00941624       0.00510939       0.01960466
H        4.11156890       9.63142777       6.22539820       0.01487258       0.01113400       0.02143386
H        3.86324730       9.71612773       4.46325708       0.01160262       0.00229143       0.02158356
H        2.63830340      10.36937136       5.56190754       0.00877470      -0.00085572       0.02141024
H        3.64627397      12.20605463       5.28051310      -0.00032160       0.00524065       0.00216081
O        6.12615975       4.64643709       2.07195327       0.01957965      -0.02727338       0.01061300
C        5.42024188       4.78335231       0.84040756       0.01110134      -0.01102032       0.00990846
H        5.55857842       3.90630386       0.20197984       0.00673836      -0.01232100       0.00700010
H        5.72256081       5.68192672       0.29253887       0.02883238      -0.01315233       0.01301946
H        4.36356202       4.86767083       1.08557210       0.01269791       0.00057059       0.00470589
H        7.05209640       4.45392787       1.88906418      -0.00142115      -0.02647167       0.01873890
O        2.00566291       5.84321844      10.98539146      -0.00028050      -0.00399220      -0.00230700
C        1.13188566       5.17508030      10.06298697       0.00015769      -0.00900774       0.00063134
H        0.08714260       5.26898858      10.37493483       0.00030950      -0.01029377       0.00196141
H        1.37786208       4.11657304       9.96162552       0.00211180      -0.00888181       0.00417040
H        1.25798191       5.64827643       9.09035715      -0.00206136      -0.01192291      -0.00114354
H        2.03025176       5.32028660      11.81204720       0.00213592      -0.00218627      -0.00081971
O        9.21375882       9.53309327       2.36133919      -0.01328522      -0.00746602       0.00006422
C        8.68164018      10.69053518       1.78490005      -0.01451886      -0.01045561      -0.00523159
H        9.22213448      10.99655669       0.87955091      -0.02065691      -0.01926899      -0.01199433
H        8.74198790      11.55191639       2.49019437      -0.00736377      -0.00487742      -0.01250716
H        7.62406649      10.47993013       1.51466196      -0.01674778      -0.01019381       0.00367497
H       10.17026694       9.49258627       2.14317541      -0.01256032      -0.00572011       0.00333207
O        2.43005107      13.09501188       4.71086223       0.00591524       0.00506966      -0.00629342
C        2.09291042      12.55608317       3.43442492       0.00259937      -0.00077853      -0.00307268
H        1.15781607      11.99102934       3.47217330       0.00279930      -0.00107408       0.00221119
H        2.89842550      11.89057389       3.12300080       0.00216880      -0.00165784      -0.00234625
H        1.98543645      13.34401216       2.68537069       0.00004600      -0.00421840      -0.00636774
H        1.57736313      13.30929344       5.17212867       0.00701572       0.00495188      -0.00414214
O        4.95720552       0.71251845       2.77449656      -0.00297844       0.00128704       0.00849314
C        5.22647627       1.21875557       4.09931562       0.00981364       0.01211081       0.00180399
H        4.35043066       1.05412106       4.72963651       0.01857126       0.00979749       0.01356378
H        5.49737017       2.27366905       4.04373230       0.00111398       0.01389688      -0.00881211
H        6.06764236       0.65249953       4.50372619       0.01980925       0.02177825      -0.00521519
H        4.23823168       1.28632056       2.38823699      -0.00314826       0.00125256       0.00772490
O       11.51513199       3.78319477       7.78833846       0.00073943       0.00926566       0.00143740
C       10.14723706       3.86616332       7.41647712       0.00133882       0.00465471      -0.00256289
H       10.01359076       4.35550874       6.44754271       0.00233438       0.00649637      -0.00186247
H        9.55046868       4.39913540       8.16923333      -0.00305873       0.00041249      -0.00304618
H        9.76887004       2.84742240       7.33126522       0.00569157       0.00323391      -0.00620399
H       11.86531408       4.68519454       7.89364447      -0.00501837       0.01021504       0.01240844
O        3.28696723       0.43426246       8.04960342      -0.00843501       0.01174507      -0.01642184
C        2.04810035       0.32588863       8.74652208      -0.00121534      -0.00480087      -0.00612770
H        1.45101252       1.23945495       8.67213312      -0.00689992      -0.00698611       0.01252977
H        2.19615771       0.09228396       9.80743108       0.01027328      -0.01906614      -0.01083902
H        1.48582078      -0.48650750       8.28891713      -0.00124313      -0.00143567      -0.01225656
H        3.73793712       1.21477905       8.38626382      -0.00961829       0.01003458      -0.01045670
O        1.10851405       8.07987783       4.62574853       0.00464866       0.00954390      -0.01470268
C        0.23795263       6.94308750       4.56508797      -0.00184621       0.01416185      -0.00811766
H       -0.78419251       7.23131668       4.31229493      -0.00250524       0.01958859      -0.00032137
H        0.26149166       6.37219425       5.49779595       0.00189428       0.01504000      -0.00756577
H        0.60547779       6.30839828       3.76211319      -0.01154243       0.01123446      -0.01019411
H        0.75579709       8.69499482       5.27444104       0.01841035       0.00624260      -0.00457573
O        2.09387187       4.24638365       6.39550461       0.00475273       0.00998458       0.00597298
C        2.94668203       4.83267713       5.42380871      -0.00209340       0.00720990      -0.00195292
H        3.68285702       4.12303802       5.02775660      -0.00732283       0.00496587      -0.00784969
H        3.49064641       5.70108478       5.80462258       0.00388768       0.00582054      -0.00683670
H        2.32555005       5.16308193       4.59584543      -0.00844593       0.00864347       0.00315574
H        2.66818284       3.81733925       7.04437828       0.00911735       0.00368429      -0.00202767
O       11.78922680       9.10392982       1.51976778      -0.00831673      -0.00339526       0.00832075
C       13.02389281       9.81533945       1.49690723      -0.00867990      -0.00277041       0.00811370
H       13.78719544       9.24704820       0.95505415      -0.00993183      -0.00022855       0.00340842
H       13.38439595      10.02022214       2.51017841      -0.00597022      -0.00697774       0.00802898
H       12.85965183      10.76400260       0.99083335      -0.01003718      -0.00072268       0.01220891
H       11.99752794       8.16495109       1.67107098      -0.00742038      -0.00401727       0.00389675
O        4.48075268       6.50325576       9.75635485      -0.00208542      -0.00832014      -0.00535578
C        3.87009460       6.87878502       8.51764889      -0.00163166      -0.00079963      -0.00325716
H        3.14511817       7.68490196       8.65888805       0.00219077       0.00212777       0.00053059
H        3.36771801       6.02733314       8.05075272      -0.00618768       0.00344202      -0.00622723
H        4.66028685       7.22724854       7.85312789      -0.00057513      -0.00152426      -0.00259563
H        3.74723612       6.27476952      10.35530133      -0.00250122      -0.00898793      -0.00566290
O       12.12667965       6.47019205       8.23948622      -0.01592344       0.01093104       0.03754753
C       11.30920541       7.35356728       7.47420213       0.00239981       0.01128194       0.01817394
H       11.77007619       7.61436048       6.51749675       0.02985016       0.02099925       0.03403816
H       11.08453635       8.26481425       8.03263850      -0.02085422       0.00595744       0.01783527
H       10.37518644       6.83115209       7.27232557       0.01200378       0.00662240      -0.01435826
H       12.88942416       6.95761814       8.57736307      -0.01717857       0.00842407       0.04598191
O        5.91955271       5.86060144       4.60762359       0.00548241       0.00386500      -0.00151485
C        6.73745310       7.01734807       4.57222730       0.00685947       0.00335094      -0.00388231
H        6.36894592       7.76139932       3.85501407       0.00754474       0.00222895      -0.00544697
H        7.77602826       6.78303384       4.31673081       0.00651601       0.00149286      -0.00372747
H        6.71472667       7.46598345       5.56657354       0.00758412       0.00530072      -0.00482473
H        5.95252438       5.44866089       3.72767582       0.00893515      -0.00122568       0.00171516
O        3.09439916       2.43245800       2.10365943       0.00068922      -0.00076509      -0.00024647
C        1.94669728       2.58493418       2.95577509       0.00049305       0.00025187      -0.00120476
H        1.09897930       2.00418098       2.58753803      -0.00004917       0.00122002      -0.00180961
H        1.66905257       3.63767711       3.03071951       0.00164963       0.00051582      -0.00030424
H        2.22367719       2.22354206       3.94366348      -0.00014006      -0.00128749      -0.00135316
H        2.90232837       2.86154754       1.25948775       0.00249018       0.00102067      -0.00070837
O       12.53353678       1.91255660       9.57064618       0.00511506       0.00969452       0.00006811
C       11.62876655       0.82654365       9.51790187       0.01198900       0.00371471      -0.00243944
H       12.14676522      -0.08058074       9.82549267       0.01694000       0.00704962      -0.00035663
H       11.23008916       0.67244642       8.50879379       0.01662968       0.00071544      -0.00386369
H       10.76882751       0.97097663      10.19751450       0.00925049      -0.00172395      -0.00537835
H       12.19040661       2.60590587       8.97912452       0.00212176       0.00791781      -0.00037453
O        6.42730958      11.58369643       4.01920849      -0.00161006       0.00289890       0.00997610
C        7.39601442      10.91689578       4.86377624       0.00151008       0.00304650       0.00664414
H        7.86056552      10.09976196       4.31415775       0.00152147       0.00470793       0.00405121
H        6.88952424      10.53275180       5.75067993       0.00423698       0.00026341       0.00715661
H        8.16497895      11.62825261       5.16800975       0.00090069       0.00393842       0.00619227
H        5.53298851      11.59897739       4.54429315      -0.00051048       0.00492813       0.01368281
O        4.46347996       3.01716003       7.63809814       0.00761404       0.00191247      -0.00756121
C        5.52926021       3.97489669       7.51235512       0.00486023       0.00531577      -0.00704998
H        5.38402861       4.63850268       6.65971029       0.00430355       0.00334436      -0.00856584
H        6.49407315       3.47314414       7.40706524       0.00681947       0.00823438      -0.00446897
H        5.51474659       4.56440062       8.42878803       0.00118448       0.00671489      -0.00795348
H        4.44798155       2.46429929       6.84876387       0.00986723       0.00161463      -0.00733256
O        8.64287058      12.63739428      10.85365867      -0.00409108       0.00720343       0.00599369
C        9.22403848      11.48487097      10.20777637      -0.00158696       0.01335680      -0.00265915
H        8.57763865      11.15865519       9.39130770      -0.00042251       0.01884775      -0.00601113
H        9.34889523      10.66728531      10.92168307      -0.00055956       0.00795165      -0.00906481
H       10.20028216      11.77500665       9.82837555      -0.00182654       0.01826238       0.00021657
H        7.72772682      12.42848830      11.12996338      -0.00348163       0.00330251       0.00603095
O       12.46313361      10.99019398       8.57606042       0.00479874      -0.00717634       0.00596491
C       11.72272665      11.01960008       7.36361642       0.00932012       0.00146376       0.00319073
H       10.73758473      10.54905184       7.46824496       0.00559855       0.00802293      -0.00147728
H       12.25740476      10.54478910       6.53413445       0.00904714      -0.00059126       0.00408547
H       11.58193061      12.06612936       7.10232056       0.01786334       0.00306267       0.00524340
H       12.66194656      10.07670015       8.80635733      -0.00369714      -0.00936440       0.00425663
O       12.28441714       6.39010470       1.74104143      -0.00098729      -0.00407913      -0.00602794
C       11.15608782       5.89630468       1.00017069      -0.00153987      -0.00499373      -0.00487725
H       11.04701335       4.81659296       1.12456622       0.00208289      -0.00581363      -0.00802320
H       11.23745220       6.16331876      -0.05568626      -0.00499783      -0.00146074      -0.00423840
H       10.27771625       6.38103719       1.42299040      -0.00198370      -0.00919887      -0.00067264
H       13.08686820       6.08940940       1.30481916      -0.00119331       0.00149381      -0.01126367
O        9.34421359       2.63166431      12.01085026      -0.01121026      -0.00829437      -0.00068614
C       10.42970374       3.47644611      11.55848038      -0.01158769      -0.00647962       0.00104655
H       10.38174329       4.44609444      12.05291257      -0.01519101      -0.00577001      -0.00042814
H       10.37497487       3.60838568      10.47583063      -0.00899814      -0.00811299       0.00065234
H       11.36667502       2.97756785      11.79158996      -0.01086494      -0.00370697       0.00441676
H        8.49596126       3.02069205      11.66468134      -0.01085252      -0.00942332      -0.00420222
O       10.67963143       6.97876883      11.18962362       0.01133915      -0.00138456       0.00686443
C        9.46338577       7.44928642      11.76919141       0.00579827      -0.00026072      -0.00597307
H        8.81468885       6.61994862      12.08355301       0.00074221       0.00062406      -0.01398134
H        8.89412385       8.08795576      11.08994811       0.01369452       0.00182351      -0.01078811
H        9.73760940       8.02322044      12.65336202      -0.00298391      -0.00181518      -0.00203472
H       10.51121722       6.69015967      10.28760438       0.02415732       0.00498734       0.00205320
O       13.54587007      -0.07693858       5.58519313       0.00859025       0.00207639       0.00279605
C       13.07062699       1.16993622       6.09628439       0.00984414       0.00357306       0.00067391
H       11.98398545       1.22756928       5.99564167       0.00957075       0.00325754       0.00293353
H       13.51676652       2.02081577       5.57318146       0.00871953       0.00220984      -0.00262661
H       13.33343529       1.23003879       7.14959417       0.01219854       0.00641556      -0.00001305
H       13.00213178      -0.28755589       4.79141653       0.00387095      -0.00196074       0.00697289
O        9.88918941       3.65649861       3.36149863      -0.01078099       0.00476301      -0.00497600
C       11.22076523       3.83492454       3.82028414      -0.00761151      -0.00889964      -0.00775620
H       11.96203535       3.51103949       3.07987924      -0.01218602      -0.01561758      -0.00959873
H       11.41464103       3.29956937       4.75469808      -0.01140930      -0.01219156      -0.00889969
H       11.35998308       4.90261016       3.99265385       0.00333254      -0.01060230      -0.00664563
H        9.76725935       2.73106321       3.10691544      -0.02301137       0.00361041       0.00570468
O        0.87509340       8.33531596       9.95904728      -0.01752876      -0.01561564      -0.00579381
C        1.45555822       9.50073598      10.54882299      -0.02033514      -0.00890222      -0.01577182
H        2.53683309       9.38428454      10.67671733      -0.01943305      -0.00371464      -0.01922666
H        1.00348301       9.72499403      11.52028593      -0.01744664      -0.00434608      -0.01541266
H        1.27326145      10.34069960       9.88136425      -0.02635073      -0.01389688      -0.02041259
H        1.14835099       7.58553204      10.50831720      -0.00726569      -0.01163027      -0.00500071
