197
Lattice="14.290800478311088 0.0 0.0 0.0 14.290800478311088 0.0 0.0 0.0 14.290800478311088" Properties=species:S:1:pos:R:3:forces:R:3 energy=-721179.5625 stress="0.00017877959180623293 -0.00029476282361429185 -6.235217369976453e-05 -0.00029476282361429185 -0.00010341516463086009 0.000339006757712923 -6.235217369976453e-05 0.000339006757712923 -0.0006994911236688495" pbc="T T T"
Pr      11.47779231      11.36578092       9.03069976       0.00665188       0.00090419      -0.00629041
Pr       8.83221375      14.31876998      11.77321221       0.00305934      -0.00254616      -0.00457069
S       11.84777841      12.23883534      11.82314057       0.00915886      -0.00458395      -0.00148797
S       11.66205417      10.25040795      11.57160651      -0.01092927      -0.00159982      -0.01009730
O       12.34529311      12.71275900      13.07585939       0.01838326      -0.01929767      -0.00095427
O       10.44237485      12.77094609      11.52504144       0.01490942       0.01380324       0.00652855
O       12.63347090      12.66918085      10.61519541       0.01062816      -0.00843409      -0.00209870
S        9.43780964      13.69105938       8.26940258       0.00499927      -0.00188088      -0.00450549
S        8.86269368      11.76297252       8.18400326       0.00250310      -0.00160637       0.00150845
O        9.10914524      14.46247948       7.11332873       0.00394843      -0.00432098      -0.00610549
O       10.92459063      13.54809379       8.50831721       0.00558277      -0.00151071      -0.00676446
O        8.83780176      14.28883096       9.52173708       0.00766598       0.00037296      -0.00473979
S        6.99598994      14.14674972      -0.04285770       0.00060070      -0.00404548      -0.00767547
S        9.06913429      14.16004886       0.14525239      -0.00118446       0.00533033      -0.00370264
O        6.43792567      15.37396291       0.45313486      -0.00666812      -0.00712734      -0.01021740
O        6.46583895      12.90211172       0.42879577       0.00419775      -0.00593001      -0.00734299
O        6.91156768      14.16803167      -1.62169225       0.00394289      -0.00566484      -0.00819778
O        3.57549920       9.73032469       3.54005264       0.00253798      -0.00179519      -0.00034200
O        2.20458808       8.09947221       3.17735212       0.00357090      -0.00299017       0.00090428
O        3.95171539       7.75059386       4.57812679      -0.00240517       0.00283110       0.00911433
C        4.79547980      10.26908359       4.12669009      -0.00022891       0.00043738       0.00335711
C        4.88062866      11.71391731       3.71538423       0.00311464      -0.00185329      -0.00358748
C        3.32129951       8.46922131       3.84064597       0.00140131      -0.00094116       0.00424707
C        1.87377048       6.72051840       3.33441109       0.00081719      -0.00153726       0.00793658
H        4.73216034      10.15278373       5.20888247      -0.00632399       0.00624776       0.00347692
H        5.63251846       9.67641865       3.75596373       0.00127462      -0.00188079       0.01086482
H        5.79026243      12.15249569       4.12828049       0.00043173       0.00000606       0.00031472
H        4.91672847      11.82190427       2.63214815       0.01046116      -0.00726248      -0.00377789
H        4.02927668      12.27309696       4.10330614       0.00074776       0.00048819      -0.01233433
H        2.62103655       6.09332768       2.84587804       0.00275791      -0.00562419       0.01638100
H        0.90788660       6.59228056       2.85175962       0.00331055      -0.00342412       0.00348108
H        1.81849824       6.45236945       4.38949776      -0.00560282       0.00570139       0.00933695
O        9.96250220       8.06738603       0.54197802      -0.00134550      -0.00190888       0.00081579
O       11.23198833       6.39509066       1.03854682      -0.00665649      -0.00461935       0.00555125
O        9.01891749       6.23924662       1.50226466      -0.00862479       0.00054806      -0.00181410
C        8.68449177       8.76432699       0.58591079      -0.00028771       0.00002533      -0.00283269
C        8.97422435      10.23719491       0.48783323       0.00204186      -0.00069571      -0.00614317
C        9.96455753       6.84351684       1.06376043      -0.00524610      -0.00160521       0.00097394
C       11.40716507       5.12614724       1.69546964      -0.01177430      -0.00438441       0.00751965
H        8.08171091       8.39938842      -0.24801891       0.00022298      -0.00132810      -0.00254378
H        8.17573833       8.49757130       1.51014992      -0.00180277       0.00317988      -0.00272888
H        8.04066723      10.80167913       0.50357889       0.00283706       0.00068174      -0.00703366
H        9.59089078      10.56917161       1.32320622       0.00240932      -0.00008173      -0.00670095
H        9.50525294      10.46591654      -0.43657078       0.00202442      -0.00332951      -0.00677282
H       11.15599857       5.21037378       2.75090610      -0.01491658      -0.00240250       0.00660354
H       12.46107060       4.88589091       1.57062893      -0.01186922      -0.00686600       0.01132048
H       10.78142877       4.36852434       1.23240931      -0.01232705      -0.00331415       0.00646807
O       10.45675345       3.00114593       4.55431832       0.00607572      -0.00124287      -0.00020968
O       12.29675342       4.11331379       4.80256275       0.00434351      -0.00004435       0.00468532
O       12.42517664       1.89741193       4.35320324       0.00764424       0.00104892      -0.00141449
C        9.74439994       1.74604695       4.32268435       0.00734192      -0.00129330      -0.00315944
C        8.27486449       2.05705837       4.35080857       0.00693041      -0.00371303       0.00244899
C       11.77174376       2.89366407       4.54977243       0.00593919       0.00049239       0.00085121
C       13.72431002       4.14544721       4.73813263       0.00439564       0.00168690       0.00978349
H       10.06721236       1.34638534       3.36042639       0.00503249       0.00311781      -0.00580162
H       10.03027228       1.05110651       5.10993628       0.01082475      -0.00392181      -0.00669491
H        7.71184390       1.12930272       4.24286103       0.00778564      -0.00420007       0.00260669
H        7.99136743       2.52670772       5.29187743       0.00946055      -0.00687800       0.00473821
H        8.00671813       2.71803286       3.52958699       0.00272145      -0.00202662       0.00514796
H       14.16143077       3.46388448       5.46702349       0.00253369      -0.00009723       0.00923961
H       14.00154270       5.17230704       4.95994497       0.00254788       0.00118527       0.01435870
H       14.06922184       3.86338013       3.74217677       0.00808434       0.00525332       0.01004633
O        7.68279065       8.05280776       3.76786238      -0.00011475       0.00616771       0.00039808
O        6.44009050       6.37649442       3.23256724       0.00212905       0.00286928       0.00557790
O        8.22007567       6.00356744       4.58517414       0.00797075       0.00791001      -0.00099319
C        8.91824765       8.59543930       4.27350414       0.00003451       0.00917071      -0.00341499
C        8.72455623      10.07833489       4.45138787      -0.00246908       0.00867736      -0.00291337
C        7.52451966       6.72817214       3.91919945       0.00376493       0.00567478       0.00133967
C        6.19925675       4.96373668       3.21246700       0.00732124       0.00196716       0.00503898
H        9.17655659       8.07872507       5.19888957       0.00417138       0.00989562      -0.00418636
H        9.70323501       8.38081267       3.54077637      -0.00193736       0.01075305      -0.00590029
H        9.65491078      10.53875655       4.78313856      -0.00289762       0.01014579      -0.00397289
H        8.45254661      10.54899141       3.50721121      -0.00459296       0.00833548      -0.00247046
H        7.93857020      10.28252603       5.17987680      -0.00175880       0.00697548      -0.00170033
H        6.96944129       4.47670535       2.61876883       0.00936523       0.00516483       0.00508077
H        5.22672504       4.84232025       2.74337217       0.00799704      -0.00131419       0.00455121
H        6.20206353       4.55295653       4.21925960       0.00829549       0.00165725       0.00489092
O        8.56601066       3.75530344      13.46324242       0.00769860      -0.00445729       0.00346267
O       10.66065924       3.26762810      13.31124972       0.00596356      -0.01142156       0.00248963
O        9.22140237       2.24405053      11.92130372       0.00292019      -0.00192425      -0.00114685
C        7.18951239       3.75140801      12.93681132       0.00756603       0.00114951       0.00342125
C        6.31303770       4.33774585      14.00211110       0.00964595      -0.00103860       0.00640818
C        9.44950264       3.05525589      12.85087908       0.00527102      -0.00565016       0.00147524
C       11.72069619       2.47753283      12.74061150       0.00201710      -0.01604211       0.00170153
H        7.20348399       4.34991026      12.02719552       0.00916687       0.00515127       0.00580570
H        6.91444348       2.71901066      12.72420618       0.00495365       0.00246254      -0.00054586
H        5.29637092       4.39909343      13.61365539       0.01026691       0.00349107       0.00612495
H        6.30893762       3.69413924      14.87711935       0.00726081      -0.00489467       0.00368638
H        6.64113344       5.33957413      14.27655268       0.01188868      -0.00310314       0.01140170
H       11.57991154       1.42209337      12.98440502      -0.00511047      -0.01612364      -0.00181106
H       12.62862006       2.84064242      13.20899599       0.00258495      -0.02308961       0.00581454
H       11.76338434       2.61567704      11.66128258       0.00567183      -0.01235625       0.00203989
O        9.45331971       7.64256217       7.97983506       0.00122631      -0.00165683       0.00023428
O       11.35441071       6.72899235       8.28481405       0.00609201       0.01132715       0.01319443
O       11.22257073       8.99060796       8.43249674      -0.00726220       0.01076022      -0.00425508
C        8.59513839       8.81014809       7.86276084      -0.00617206      -0.00666451      -0.00489029
C        7.21109689       8.39866012       7.46727038      -0.00237876      -0.01542804      -0.00871088
C       10.70945888       7.87190847       8.25335549      -0.00133500       0.00591207       0.00245006
C       12.77674327       6.73240905       8.49718100       0.00491965       0.02351777       0.01876581
H        8.60985231       9.30432248       8.83340998      -0.01239415      -0.00509012      -0.00563955
H        9.04934485       9.46356689       7.11982626      -0.00776038      -0.00497797      -0.00433335
H        6.61239668       9.30771512       7.37519182      -0.00620691      -0.01876359      -0.01664118
H        7.20134157       7.88454778       6.50766449       0.00416160      -0.02038853      -0.00608420
H        6.75219455       7.74400590       8.20298569      -0.00365339      -0.01327090      -0.00755057
H       13.28312800       7.19561057       7.65536451       0.00566088       0.01931443       0.01703446
H       13.04147056       5.68165904       8.56023791       0.01226394       0.02619748       0.02878867
H       13.02340183       7.24914067       9.42077815      -0.00262976       0.03335616       0.01500937
O        3.98270084      10.60002843       7.72304961       0.00349094       0.00054231       0.00009990
O        4.61930207      12.52732089       6.99523401       0.00189235       0.00013886      -0.00192802
O        5.16935821      11.94429080       9.11766660       0.00713977       0.00103922      -0.00232470
C        3.93984083       9.57819770       8.74842929       0.00391507       0.00141689       0.00077042
C        3.44058528       8.31294058       8.10338063       0.00216118       0.00125650       0.00231323
C        4.64309236      11.71711683       8.05637707       0.00382197       0.00030446      -0.00289065
C        5.31193703      13.77525138       7.17483911       0.00178464       0.00041161      -0.00363988
H        4.94292247       9.46531573       9.16158039       0.00421971       0.00074590      -0.00002813
H        3.28467958       9.92593138       9.55299568       0.00519204       0.00253651       0.00132391
H        3.40468194       7.51368678       8.84490957       0.00134449       0.00196178       0.00283040
H        2.43956041       8.44788303       7.69504579       0.00226524       0.00222811       0.00207649
H        4.10103058       8.00393690       7.29381881       0.00122601      -0.00026142       0.00211139
H        4.78739450      14.39109604       7.90376240       0.00560081      -0.00151695       0.00073752
H        5.30694711      14.25200722       6.20021476      -0.00438035       0.00232381      -0.00260079
H        6.33227188      13.59997448       7.50820694       0.00386009       0.00074051      -0.00992475
O        9.30998805       8.11048544      11.19073800      -0.00630748      -0.01046455      -0.00853102
O       11.25760441       7.21429315      11.41420990      -0.00552079      -0.00654238      -0.00517937
O        9.43236674       5.88845453      11.64598433      -0.00331220      -0.00811487       0.00332431
C        7.85463502       8.07850615      11.24998837      -0.00626194      -0.00835407      -0.00324792
C        7.39382714       9.50961145      11.38878742      -0.00367519      -0.00801346       0.00232705
C        9.93539239       6.96513437      11.44018669      -0.00493842      -0.00831813      -0.00307570
C       12.07473738       6.09577868      11.78946321      -0.00432722      -0.00362244       0.00016063
H        7.48600785       7.58816458      10.34736777      -0.01165721       0.00210540      -0.00635800
H        7.55258234       7.46161637      12.09559855      -0.00238860      -0.01683354      -0.00750044
H        6.30547860       9.55167773      11.39628833      -0.00351913      -0.00724521       0.00230639
H        7.75527651       9.94542761      12.31952198      -0.00611522      -0.01172201       0.00430965
H        7.73643397      10.14406057      10.56961149      -0.00106685      -0.00460261       0.00522847
H       11.81470073       5.76452234      12.79362277      -0.00416775       0.00110760       0.00172016
H       13.09959880       6.45939243      11.76372541      -0.00500585      -0.00235362      -0.00161200
H       11.93981018       5.27571542      11.08277190      -0.00363023      -0.00698543       0.00394610
O       13.44944879      10.49760923       2.23012860      -0.00079824      -0.00009564       0.00005428
O       13.40919361      12.03476831       3.75380143      -0.00317581      -0.00087704       0.00056915
O       11.44134070      11.22977444       2.97472451      -0.00229287      -0.00141728      -0.00216359
C       12.74961756       9.69743564       1.24138718       0.00043344       0.00097445      -0.00177427
C       13.77789449       8.91542744       0.47252888       0.00130290       0.00183569      -0.00151825
C       12.64935184      11.25397882       2.97847655      -0.00126088      -0.00102821      -0.00029297
C       12.66288663      12.99756980       4.51838009      -0.00377575      -0.00057452      -0.00043493
H       12.03889259       9.04465967       1.74707102       0.00009739      -0.00019723      -0.00376135
H       12.18001943      10.37016022       0.59930066       0.00140899       0.00238287      -0.00124082
H       13.26364228       8.27991443      -0.24897084       0.00201973       0.00185549      -0.00212473
H       14.45354583       9.58167024      -0.06332855       0.00080714       0.00283886      -0.00076057
H       14.36858697       8.28511692       1.13755135       0.00175835       0.00171672      -0.00188459
H       12.10157858      13.65540425       3.86096628      -0.00361000      -0.00173137      -0.00168446
H       13.40376911      13.57773391       5.05853367      -0.00425179      -0.00069614       0.00002532
H       11.97982868      12.49292621       5.20264316      -0.00417970       0.00040950      -0.00023666
O       13.19574605      10.80606291       7.19195036       0.00569493       0.00661093      -0.00089815
O       12.55336194       9.45834697       5.61221202      -0.00685191       0.01077026       0.00427276
O       14.45207340       8.96725822       6.74296343      -0.00877336       0.02154227      -0.02479655
C       14.19951567      11.22470849       8.18525475       0.01008111       0.00704214      -0.00840497
C       14.28329837      12.72664101       8.13661131       0.01504210       0.00868198      -0.00701657
C       13.49283523       9.64859232       6.51291927       0.00726444       0.00539923      -0.00806750
C       12.72224000       8.27379518       4.78965861      -0.01801385       0.01587492      -0.00117396
H       13.87249108      10.83142874       9.16914915       0.01403756       0.01052603      -0.00515293
H       15.13767024      10.72649682       7.95676053       0.00762981       0.00528027      -0.01267467
H       14.88047666      13.08559420       8.97299471       0.02367592       0.00882389      -0.01204307
H       14.73170662      13.03956201       7.19637889       0.00937632       0.00723964      -0.01013952
H       13.30027287      13.20164881       8.21490981       0.01606524       0.00955400      -0.00117530
H       13.78081642       8.08364936       4.63079842      -0.02070880       0.02536769      -0.02685439
H       12.22416632       8.50183890       3.85476238      -0.04230471       0.01106984       0.01001519
H       12.24180066       7.42671893       5.28021711       0.00216208       0.00909275       0.00701082
O        7.55397523       3.76795696       7.60482760      -0.00316224       0.00004263      -0.00379343
O        5.63451647       3.90283410       6.60850256      -0.00368778      -0.00155953      -0.00287294
O        6.19704058       5.51238537       8.09271849      -0.00991604      -0.00832587       0.00676233
C        8.54156277       4.32351362       8.51527598      -0.00416991      -0.00002879      -0.00263256
C        9.79465556       3.50232714       8.37693015      -0.00336283       0.00134158      -0.00292031
C        6.45104959       4.49552636       7.49058095      -0.00611798      -0.00383800       0.00064957
C        4.43299829       4.65024174       6.34844107      -0.00526784      -0.00344215      -0.00101939
H        8.70700316       5.36280370       8.24213213      -0.00497665       0.00040209      -0.00159894
H        8.13447173       4.29374909       9.52804356      -0.00451878      -0.00138033      -0.00289187
H       10.55102062       3.89703084       9.05875822      -0.00381663       0.00196025      -0.00274543
H        9.60989651       2.45812239       8.62360171      -0.00246117       0.00111873      -0.00336733
H       10.17959897       3.55587110       7.35859859      -0.00321491       0.00206465      -0.00281227
H        3.88568294       4.82710249       7.27377939      -0.00517169      -0.00591882      -0.00054994
H        3.85270113       4.02938428       5.67169736      -0.00429332      -0.00341876      -0.00182793
H        4.66660856       5.60657098       5.88135828      -0.00716126      -0.00228441       0.00039540
O        3.45355961       4.73305277      10.66130999      -0.00673047      -0.00095873       0.00130076
O        3.20043982       6.72226367      11.46742465      -0.01108941      -0.00090654      -0.00017778
O        5.29383119       5.86722837      11.34359771      -0.00996697      -0.00067802       0.01103167
C        4.29418537       3.59768714      10.33864265      -0.00493813      -0.00094676       0.00449905
C        3.40974692       2.54728421       9.72345305      -0.00272802      -0.00092113       0.00035180
C        4.10370755       5.77723218      11.16801110      -0.01017225      -0.00096515       0.00461151
C        3.78191241       7.90920839      12.02479404      -0.01462474      -0.00070341       0.00294895
H        5.08088652       3.93706902       9.66517958      -0.00250888       0.00000794       0.00797462
H        4.75893347       3.24174792      11.26032866      -0.00876574      -0.00068657       0.00655192
H        4.00614389       1.66496781       9.49199123      -0.00607304      -0.00348468       0.00088793
H        2.61750177       2.25593200      10.41239377      -0.00506215      -0.00117716      -0.00262393
H        2.95528885       2.90870464       8.80097587       0.00055996       0.00050223      -0.00064987
H        4.33445304       7.67438531      12.93414442      -0.01781480      -0.00081104       0.00482330
H        2.94897233       8.57048284      12.24096110      -0.01615717      -0.00180723       0.00032702
H        4.45846202       8.36705829      11.30550694      -0.01236700       0.00074132       0.00595625
