197
Lattice="13.16461090617134 0.0 0.0 0.0 13.16461090617134 0.0 0.0 0.0 13.16461090617134" Properties=species:S:1:pos:R:3:forces:R:3 energy=-815766.6875 stress="0.001074531115591526 0.0014452016912400723 0.0001163035849458538 0.0014452016912400723 -0.0009730393649078906 0.0008373648452106863 0.0001163035849458538 0.0008373648452106863 -0.0006694004987366498" pbc="T T T"
Pr       3.65554909      11.98694695       0.96089273      -0.00729178      -0.00287199       0.00025873
Pr       4.23715322      13.02876454       5.17935542       0.00105722       0.00217913      -0.00380811
O        5.66699587      11.48271135       1.63680093      -0.00557910      -0.00781562       0.00247264
O        4.98266249       9.55502607       3.46064636      -0.00790682      -0.00254654       0.00975091
O        6.03409788      11.95639892       4.33423754       0.00452286      -0.00814700      -0.00147358
O        7.56694849      10.16739713       3.04048062      -0.01236516      -0.01999497      -0.00722744
Cr       6.13490748      10.80945761       3.11339978       0.00317317      -0.01376702      -0.00253482
Cr       3.26986332       9.95887318       3.21922910       0.00366354       0.00813830      -0.02151710
O        2.30945239       9.34103360       4.35234363      -0.01776695      -0.00249895       0.00736278
O        3.40150174      11.72861221       3.35699077      -0.00490779       0.00082912       0.00346363
O        2.93668133       9.92535388       1.59699407       0.00492589       0.00246003       0.00803649
O        8.32889224       9.90031074       9.66016532      -0.00450599       0.00181094       0.00010024
O        6.28719073      11.31421883      10.82783300      -0.00455947      -0.00256938       0.00169039
O        6.00313696       8.70955658       9.87016853      -0.00105029      -0.00619900       0.00500372
O        6.32384714      10.63967866       8.10960810      -0.00932989      -0.00563809       0.00452149
Cr       6.75918160      10.09250086       9.56605810      -0.00499183      -0.00013864      -0.00110072
Cr       4.74245437      11.92164843      11.24952449      -0.01023614      -0.00474994      -0.00609523
O        3.93944446      12.37101533       9.96314289      -0.00054756      -0.00700189      -0.00280786
O        3.88208640      10.81962529      12.12771754      -0.00871839      -0.00463742      -0.00512258
O        4.78745085      13.12233989      12.37162089      -0.01105413      -0.00414586      -0.00136651
O        8.27311158       3.34337977       2.64556807      -0.00082767      -0.00647599      -0.00511354
O        5.95918002       4.23728020       3.88009216       0.00947151       0.00381307       0.00406753
O        5.94808872       2.80428361       1.53898225      -0.00646555       0.00436813       0.00362211
O        6.90172384       5.29103683       1.52231375       0.00123295       0.00023556       0.00081170
Cr       6.80660942       3.90985547       2.33899772       0.00075603      -0.00285190      -0.00012791
Cr       5.94487111       3.27007514       5.32520787      -0.00541097       0.00538260       0.01608777
O        5.11607183       3.98957150       6.47991787       0.00769064      -0.01245636      -0.01200336
O        5.18167325       1.79624691       4.95092977      -0.00024733       0.00113156      -0.01162404
O        7.42592532       3.03318876       5.80254616      -0.00281596      -0.01206699       0.00375864
O        1.47639513       7.96604059       8.09490863      -0.01446623       0.00141451       0.01443845
C        2.38307145       7.94643369       9.18442179      -0.00585252       0.00426920       0.00731277
H        2.05102441       7.26565637       9.97713773      -0.00005648       0.00813195       0.01280186
H        2.44118741       8.94657661       9.60994589      -0.00085782       0.00574982       0.00271229
H        3.39164036       7.65443067       8.87513842      -0.00907648       0.00135432       0.00014549
H        1.39896051       7.03393707       7.82584801      -0.00979067       0.00087167       0.01288675
O        8.92630607      -0.53070357       4.88761717       0.01376168      -0.00786877      -0.00738603
C        8.70560583       0.57257764       4.02811147       0.00460028      -0.01248097      -0.00243750
H        7.93845477       1.24763933       4.41000473       0.00578770      -0.01225346      -0.00100580
H        8.42350815       0.26272618       3.01429077       0.00547569      -0.00841191      -0.00349540
H        9.63643361       1.13636775       3.96671466       0.00596371      -0.00935724      -0.00235196
H        8.08196457      -0.98718832       4.97626679       0.00078745      -0.01374634      -0.00190414
O       10.44133092      10.86977101      12.26224615       0.01185250       0.00146744      -0.00168007
C        9.47641408      11.90161389      11.99049447       0.00608512      -0.00139260       0.00474488
H        8.59111092      11.78698102      12.61804255       0.01045042      -0.00724632       0.00926268
H        9.17615514      11.88588516      10.94414125       0.00162542      -0.00024617       0.00615817
H        9.94372817      12.85824728      12.21105018       0.00310813       0.00036561       0.00461394
H        9.99403024       9.98776820      12.20554523       0.01576726       0.00030440      -0.00038416
O       10.02974153       7.23788918       3.19424153      -0.00569493       0.01489392      -0.01078427
C       10.02940332       8.36445321       4.08400159      -0.00728437       0.00049398       0.00094236
H       11.01872378       8.40727640       4.53478699      -0.00433952      -0.00712453       0.00126496
H        9.28801674       8.23652091       4.87258630      -0.00512841      -0.00505497       0.00099710
H        9.82241960       9.29276912       3.55296794      -0.00360033       0.00882053       0.01318809
H        9.13389474       7.10970985       2.86454315      -0.01152951       0.01032627      -0.00482222
O        9.47216998       1.98202025       0.57931960      -0.00266659      -0.00667676       0.00328337
C       10.75973848       2.56304842       0.69525912      -0.00618428       0.00309896      -0.00689285
H       11.24732289       2.26683304       1.63152177       0.00168972       0.01123025      -0.00875968
H       10.72186199       3.65460609       0.65168016      -0.01362342       0.00239986      -0.01167061
H       11.36263827       2.20007295      -0.13635416      -0.00894469       0.00313912      -0.00899136
H        8.93162371       2.35358493       1.30120461      -0.00231094      -0.00318620       0.00295325
O        3.03710862       6.47512120       0.99634218       0.00652400      -0.00775091      -0.00537622
C        3.56445324       6.36068623       2.31210544       0.00593962      -0.00093530      -0.00571108
H        4.50319464       6.90744364       2.40958029      -0.00344762       0.01271096      -0.00197768
H        3.75724537       5.31877845       2.58160314       0.02094857       0.00216049      -0.00477041
H        2.85776452       6.78401821       3.02487791      -0.00207698      -0.01238245      -0.00634889
H        3.82887507       6.58458448       0.41576659       0.00683555      -0.00477149      -0.00573927
O        8.07175412       1.59286513      11.28153278      -0.00393453      -0.00128222       0.00658599
C        7.80658613       2.82508959      10.63714274       0.00164053       0.00428534       0.00915727
H        8.68380958       3.22091041      10.11018814       0.00565743       0.00374646       0.01640925
H        7.45239740       3.58812541      11.33927812       0.00216256       0.00048181       0.01442519
H        7.01971888       2.65470709       9.90088786       0.00509349       0.01214635       0.00620240
H        8.54937213       1.77854823      12.10604117      -0.00371790      -0.00949726      -0.00017476
O        5.39326613       6.78273050      -0.16106313       0.00985656       0.00000244       0.00079320
C        5.82815034       8.12953011       0.03027145       0.00464241       0.00275478       0.00472184
H        6.35762128       8.48520439      -0.85384190       0.01066852       0.00482665       0.00986415
H        6.48406975       8.21452559       0.89930377      -0.00030807       0.00060781       0.00937235
H        4.94879377       8.75616624       0.18371034       0.00359946       0.00044279       0.00112670
H        5.97517874       6.19107260       0.35468652       0.00331260       0.00364326       0.00453220
O        1.60267916       4.47248401      12.99623133      -0.00085771      -0.00536084      -0.00179346
C        0.27912861       4.90953231      12.77654243       0.00174415       0.00457744       0.00514813
H       -0.25354973       4.11610938      12.25088286      -0.00477462       0.01160207       0.00184664
H        0.23235064       5.81397154      12.15862973       0.00603969       0.00860992       0.01142061
H       -0.25680077       5.12000684      13.70820871       0.00584550       0.00142942       0.00834233
H        2.09614866       5.19372907      13.44571009       0.00438358      -0.00973285      -0.00033804
O        6.42315995       6.91136072       7.77422164       0.00127992      -0.00094080       0.00639667
C        7.09685141       5.77319540       8.30111765       0.00111607      -0.00822002      -0.00233382
H        6.38854884       5.04447351       8.69856578      -0.00044614      -0.00947237      -0.00899559
H        7.81399050       6.06000142       9.07266114      -0.00130346      -0.01214796       0.00218171
H        7.65272252       5.30871982       7.48898364       0.00319411      -0.00173233      -0.00258541
H        6.15432146       7.48066632       8.51236284       0.00386737      -0.00855547       0.00323172
O        3.89077151       2.34498418       8.98587260      -0.00446635      -0.00356950       0.00348857
C        3.19076701       2.25616963      10.22623460      -0.00382695      -0.00792225       0.00269827
H        3.82673284       2.58655657      11.05031310      -0.00221020      -0.01485865       0.00435326
H        2.93219377       1.21398637      10.38658505      -0.00765362      -0.00763848      -0.00284840
H        2.28317770       2.86734502      10.21818116      -0.00128034      -0.00433347       0.00646310
H        4.09634355       3.30735098       8.88716664      -0.00804419      -0.00258686       0.00340927
O        3.17938854      11.12063074       6.18363227      -0.00461303       0.00014916      -0.00899532
C        3.08444431      10.62618777       7.54329396       0.00238832      -0.00097778      -0.00502497
H        3.88432503       9.91028606       7.72889923      -0.00698116      -0.01332510      -0.01791368
H        2.11873665      10.14434567       7.67810366      -0.00360647       0.00939266      -0.00229468
H        3.20142068      11.47362984       8.20848921       0.01721282      -0.00923362      -0.00359485
H        2.82678620      10.41101176       5.59267403      -0.00592394       0.01346856      -0.00208902
O        9.42898859       8.42965722      12.48513822       0.00533223      -0.00875130       0.00598234
C        8.97324050       7.39159910      11.62057030       0.00562298      -0.00228941      -0.00148490
H        8.49025298       6.59665233      12.19768419       0.00292119      -0.00439483      -0.00787133
H        9.79064050       6.96108032      11.03424608       0.00543571      -0.00150482      -0.00187144
H        8.24621107       7.82318458      10.93768447       0.00832108       0.00193992      -0.00162816
H       10.12134118       8.04957229      13.06883075       0.00857609      -0.01451280      -0.00111342
O        1.54829056       5.27557162       8.13566219      -0.00763893       0.00347629      -0.00019503
C        0.37179747       4.92306892       8.86531761       0.00548387      -0.01366292       0.00957681
H       -0.00708075       3.94972398       8.55429446       0.00281072      -0.00811920      -0.00172789
H       -0.41194769       5.66189246       8.69916999       0.00134268      -0.01372704       0.03360324
H        0.61157997       4.89575929       9.92863046       0.02019526      -0.03122306       0.00535953
H        1.71695213       4.65456790       7.38385512      -0.00218382       0.00153215       0.00058477
O       11.88699397      11.52991462       1.32639150       0.01335295      -0.00188529      -0.00461993
C       10.86363399      12.14444580       2.12179062       0.01587750      -0.00367916      -0.00049424
H       10.06676057      11.43412075       2.34987155       0.01495144      -0.00339624      -0.00448016
H       10.43008801      13.00912852       1.61409624       0.01769781       0.00021341       0.00475517
H       11.30977289      12.46102463       3.06309980       0.01748295      -0.01028132       0.00107250
H       11.45302312      11.23273536       0.49235737       0.01358560       0.00480834      -0.00741632
O        1.16370624      12.51902206       1.20285129      -0.00721061       0.00564709      -0.01749641
C        1.16985664      12.68966760      -0.22958211       0.00030407       0.02585380      -0.01380973
H        0.18576737      12.96368395      -0.60371923       0.00494584       0.03946207      -0.01453823
H        1.45377323      11.75687876      -0.73537596      -0.00447838       0.03225797      -0.02629572
H        1.87498893      13.49025423      -0.48629405       0.00807483       0.02452457       0.00116127
H        0.28545918      12.07088562       1.38688922      -0.01315767       0.00847985      -0.02518019
O        3.93756532       1.15819968       1.76961282       0.00377330      -0.00300818       0.00824768
C        2.99910178       2.22796446       1.47329032      -0.00000925      -0.00771469       0.00596130
H        3.20933578       2.65794950       0.49620592      -0.00956753      -0.01573469       0.00020516
H        3.07301206       3.01218194       2.22822078       0.00489831      -0.00078586      -0.00249720
H        1.99452574       1.81227732       1.48245530       0.00099540      -0.00896247       0.01912649
H        4.82530065       1.60774536       1.69029990       0.00216693      -0.00009216       0.00418280
O       11.75691391       4.65738992       6.17305488       0.00660133       0.00410944       0.00619166
C       10.76351345       4.17749869       5.26455846       0.01222393       0.01753986      -0.00077383
H       11.20305106       3.86532127       4.31187955       0.01405108       0.00966945       0.00338873
H        9.99129755       4.92411030       5.06369695       0.02080727       0.02386838      -0.00806815
H       10.28965900       3.31547773       5.72982849      -0.00175481       0.02201062      -0.00208271
H       12.23055954       5.41297613       5.79114314       0.01165937       0.01357237       0.00757696
O        3.00364947       0.76107019       7.10271318       0.00722218       0.00560948      -0.00309953
C        1.66139916       0.57373377       7.58054658       0.00531029       0.00079597      -0.01149330
H        1.12690273       1.52586485       7.58005605       0.00190906      -0.00187716      -0.01880023
H        1.67306675       0.16104191       8.59100865       0.00073747       0.00400728      -0.01014310
H        1.15568520      -0.13043005       6.92378575       0.01286674      -0.00319487      -0.01336464
H        3.44656024       1.35629699       7.77828211       0.00179993       0.00425369       0.00313547
O        0.17395207       6.88017156       5.11106711      -0.04194582      -0.00493211       0.00193810
C       -0.00290903       6.83042270       3.70111954      -0.00395133       0.01527190       0.00584862
H       -0.90034964       6.24416641       3.51213567      -0.00654954       0.01822487      -0.01771984
H        0.84079862       6.35904217       3.18969829      -0.00075480       0.01114936       0.01851226
H       -0.14382614       7.82779042       3.28427424       0.00718162       0.01581961       0.00904898
H        0.88227549       7.50470361       5.31086236      -0.02453744      -0.00119808       0.02591060
O        2.42089206       3.75742747       6.19177192      -0.00316006       0.00887132      -0.00035134
C        2.54412428       4.55771021       5.01475766      -0.00338648       0.00839651       0.00226605
H        3.07843972       5.48954172       5.21224186       0.00037542       0.00707307      -0.00035238
H        1.53909457       4.77508411       4.66447930      -0.00531423       0.01156832       0.00689434
H        3.09153222       4.01168320       4.24291073      -0.00984021       0.00802560      -0.00205404
H        3.33616415       3.64435901       6.50995942       0.00404029       0.00977073       0.00067763
O       11.41039680       7.42655336       0.81947122       0.00138232      -0.01620585       0.00068408
C       12.60215756       8.19765696       0.67710714      -0.00547972      -0.00588997      -0.00232907
H       13.49354668       7.61339220       0.91952635      -0.00055861       0.00290668       0.00010078
H       12.58323744       9.10130858       1.29069901      -0.01517095      -0.00606772      -0.00333405
H       12.66628915       8.49863086      -0.36843844      -0.00595173      -0.00721546      -0.00267962
H       11.09926225       7.40675828       1.74543315      -0.01658505       0.01212714      -0.00515446
O        4.02727648       4.96465234       9.20822424      -0.00443193      -0.00318953       0.00176567
C        4.34505036       5.47842496      10.50075791       0.00064072      -0.00296577      -0.00021371
H        3.53356539       5.31162350      11.21537061       0.00199324       0.00138898       0.00214654
H        4.58326201       6.54247746      10.46150981       0.00512807      -0.00394779      -0.00213675
H        5.22939016       4.95218224      10.85590956      -0.00050521      -0.00616439      -0.00148606
H        3.12661233       5.23485193       8.94342623      -0.00169069       0.00482257       0.00045124
O        5.67243889      12.86113038       7.09151727       0.00409322      -0.00565127      -0.00957024
C        6.51032660      13.73216325       7.88408848      -0.00210118      -0.00390317      -0.00579295
H        6.24928934      14.76123997       7.65875043      -0.01522455      -0.00525174       0.00504819
H        7.55947689      13.55868884       7.64039853      -0.00173977       0.01093601      -0.01250763
H        6.33713716      13.54754658       8.94527859       0.00509530      -0.01516016      -0.00698501
H        5.90165171      11.93421099       7.40372290       0.00320473      -0.00649342      -0.00671867
O       10.33264269       5.86671444       8.29150071       0.00579136      -0.00152516      -0.00026155
C       10.34792991       7.23615999       7.92379294      -0.00031736      -0.00107378       0.00043538
H       10.34269212       7.35968113       6.83707935      -0.01753487      -0.00047538       0.00073338
H       11.22958480       7.75749533       8.31867995       0.00507563      -0.00085780      -0.01329982
H        9.45778127       7.71966127       8.32789719       0.00625676      -0.00203557       0.01383111
H       10.83963997       5.37934672       7.62105011       0.01063634       0.00237702       0.00229990
O       -0.60759337      11.51082164      10.58605802      -0.00100911       0.01024598      -0.00081673
C        0.25682223      10.42957250      10.30454806      -0.00172663       0.01154014      -0.00483438
H       -0.12733617       9.76440433       9.52393237      -0.00399333       0.01191887      -0.00433242
H        0.47309495       9.82212734      11.19361613       0.00194127       0.01050550      -0.00663298
H        1.20345245      10.84691645       9.95745992      -0.00338295       0.01279265      -0.00800484
H       -1.39445521      11.16846397      11.04857732       0.00291063       0.00855739       0.00694045
O        5.27327009       6.89620186       5.29150449       0.00227273      -0.00215855       0.00445524
C        6.52071404       7.19823510       4.70706456       0.00107783       0.00000465       0.00297299
H        7.27949859       6.44160848       4.95241565       0.00299287       0.00122839       0.00144635
H        6.89553971       8.17670626       5.02762660      -0.00029072       0.00045538       0.00240818
H        6.39841839       7.21543196       3.62321114      -0.00057863       0.00001816       0.00321287
H        5.45197528       6.82874240       6.24790709       0.00326795      -0.00071274       0.00427327
O        1.97052674       0.60196173       4.29896310      -0.01091337      -0.01828647      -0.00622207
C        0.81975082       1.47328365       4.34323107      -0.00999042      -0.00048207       0.00211028
H        1.16728677       2.50000995       4.37552450      -0.01130693      -0.00740921       0.01594822
H        0.23261923       1.27079616       5.23722130      -0.02645946      -0.01491927      -0.01623392
H        0.20662264       1.31359832       3.45741969       0.00483583       0.00566638      -0.01558201
H        1.83415836      -0.08483183       3.62949319      -0.00709033       0.00080404       0.02618703
