199
Lattice="13.434310534705492 0.0 0.0 0.0 13.434310534705492 0.0 0.0 0.0 13.434310534705492" Properties=species:S:1:pos:R:3:forces:R:3 energy=-731234.5625 stress="-0.0024754945188760757 -0.0001059841233654879 -0.00041131330362986773 -0.0001059841233654879 -0.0028695648070424795 -0.0007509828719776124 -0.00041131330362986773 -0.0007509828719776124 -0.0045676641166210175" pbc="T T T"
N        8.37827303      10.82088015       9.24485127      -0.00540204      -0.01033911      -0.00963841
C        7.45247620       9.84637836       9.17550009      -0.00674321      -0.00861228      -0.01220803
C        8.04917640      12.11902151       9.38747300      -0.00304760      -0.01098835      -0.00428744
C        6.11452160      10.15722282       9.25685959      -0.00616398      -0.00640735      -0.00865965
C        6.72358234      12.48110067       9.46786906      -0.00220087      -0.00874417      -0.00090850
C        5.74165411      11.49355303       9.39440884      -0.00355422      -0.00691884      -0.00276484
H        9.34920082      10.52202241       9.00455977      -0.00477880      -0.01068835      -0.00841140
H        7.82371403       8.85062924       8.99432797      -0.00945221      -0.00835334      -0.01643015
H        8.86262528      12.82923587       9.41345614      -0.00209486      -0.01248657      -0.00240795
H        5.38613003       9.36404414       9.15679940      -0.00746600      -0.00479965      -0.00970706
H        6.45588117      13.52105832       9.57244312       0.00001853      -0.00909112       0.00387875
H        4.69943651      11.77515865       9.42264171      -0.00303931      -0.00559146       0.00088167
N       10.25331109      12.79135459       3.61663367       0.00101548       0.02785841       0.00483507
C       10.15715685      12.44489943       2.33137465       0.00587830       0.00994145       0.00469404
C        9.11944542      13.10590720       4.24837925       0.00602087       0.03462061       0.00318931
C        8.95416796      12.38182471       1.64373035      -0.00205153       0.00113758       0.01161215
C        7.86975062      13.08253314       3.64612946       0.00192314       0.02474523       0.00335072
C        7.78380539      12.71374909       2.30744624       0.00365005       0.00494597       0.00266069
H       11.98064767      13.71011194       3.49736372       0.00283194       0.01151830      -0.00002709
H       11.08169925      12.21489236       1.81440053       0.00127414       0.00776561       0.01053016
H        9.21384646      13.38585480       5.29442555       0.00455024       0.04809543      -0.00683314
H        8.98529992      12.07673363       0.60889496       0.00212074      -0.01329711       0.01430628
H        6.98138733      13.32648069       4.21749165       0.00469109       0.02839795      -0.00096036
H        6.82001733      12.69435727       1.80878466       0.00284855      -0.00230034       0.00903424
O       12.53782344       3.64666221       2.29934024       0.01603329       0.00511336      -0.00425148
O       12.69582932       0.73574648       3.02066442       0.00483841       0.00583938      -0.00305784
O       12.97284768       1.75954624       0.18270040      -0.00825840       0.00114697      -0.00594282
O       10.44025764       1.88888561       1.49049251       0.00216520       0.01494190       0.01075941
W       12.16884461       2.03777531       1.71777808       0.00355670       0.00678778      -0.00052035
S        2.68645170       2.93064847      12.75880679      -0.00097534      -0.00120962       0.00237060
O        2.19098949       3.82056682      11.65815384       0.00364202       0.00003147       0.00168324
C        4.46868565       2.92328539      12.52420333      -0.00169045      -0.01629136      -0.00001596
C        2.39863687       1.21378045      12.32055909      -0.01472475       0.00037843       0.00632042
H        4.87035241       3.88759944      12.82737556       0.00721471      -0.01955989      -0.00227194
H        4.66866138       2.77374369      11.46219557      -0.00540682      -0.01952496      -0.00009318
H        4.91620767       2.14354445      13.13678205      -0.00830957      -0.01935308       0.00046682
H        2.95358878       0.60817684      13.03864034      -0.01722479      -0.00205963       0.00598080
H        2.73057086       1.04400871      11.29476956      -0.01819278      -0.00389917       0.00627188
H        1.33112310       1.04348344      12.44874628      -0.01545060       0.00847240       0.00922427
S        7.98581642       5.20142571       3.11574071       0.00196087      -0.00530106       0.01045632
O        6.56844389       5.15343873       2.61027882      -0.00044894      -0.00369677       0.01756096
C        9.12350475       4.67127926       1.84454003      -0.00578225       0.00111493       0.00182891
C        8.19664048       3.76987287       4.18161571       0.00831849      -0.01006246       0.00208041
H        8.94178433       5.26729543       0.95341303      -0.00944354       0.00532672       0.00580437
H        9.01251154       3.60585985       1.64849227      -0.00869720       0.00265539      -0.00267720
H       10.13880789       4.84060288       2.21496579      -0.00384247      -0.00280737      -0.00241902
H        9.24617717       3.69899070       4.46900942       0.00994827      -0.01178644      -0.00577751
H        7.87522741       2.88258494       3.63483967       0.00393440      -0.00718261       0.00044070
H        7.56783723       3.94820361       5.05266744       0.01480986      -0.01381308       0.00726260
S       11.85456511       3.05077058       9.33011357       0.00067365       0.00995898      -0.00466502
O       12.14765428       4.18455063       8.40113650       0.00212264       0.01307786       0.00018775
C       13.35363986       2.64729965      10.21165899      -0.00287032       0.01074636       0.00135747
C       11.80394063       1.53250633       8.35643318       0.00841077       0.01322603      -0.00928426
H       13.63735520       3.50736424      10.80977129      -0.00446016       0.01183014       0.00015602
H       14.14663078       2.41688821       9.49861959      -0.00041029       0.00848385       0.00515978
H       13.15077285       1.81696553      10.88957965      -0.00601498       0.01282203       0.00260062
H       11.75564308       0.71215719       9.07201664      -0.00779306       0.01200001      -0.01235410
H       12.69992758       1.43351557       7.74373370       0.01705927       0.00915787       0.00433381
H       10.91011519       1.54574967       7.73554728       0.01876944       0.01989672      -0.02297534
S        8.03723338       2.73440360      12.84131647       0.00496840      -0.00892377       0.00121331
O        7.32243096       4.00818194      12.54038714       0.00878394      -0.00791597       0.00312740
C        9.72419647       2.92364736      12.25793029       0.00276560      -0.00607696       0.00005561
C        7.54940837       1.56980205      11.54339761       0.00211361      -0.00647953       0.00084192
H       10.17514534       3.72070714      12.84337011      -0.00063439      -0.00219367      -0.00291832
H        9.69643083       3.20351113      11.20614360       0.00169128      -0.00977251      -0.00074171
H       10.27563209       2.00194653      12.43457309       0.00552670      -0.00308914       0.00361662
H        8.25393320       0.73931552      11.54255617       0.00522990      -0.00341592      -0.00400080
H        7.54950603       2.11896792      10.59903144      -0.00447624      -0.00409320       0.00247224
H        6.54657871       1.21080447      11.76475556       0.00471519      -0.01069831       0.00476578
S       10.62793684       6.24290285       4.99187163       0.00689715       0.00940657      -0.00540078
O       11.06044766       4.85985876       5.34129510       0.00906849       0.00781703      -0.01558757
C       12.07345955       7.31606757       5.09181834       0.00440162       0.01176733       0.00291958
C        9.78947337       6.88287111       6.45345571       0.00490841      -0.00463277      -0.00078797
H       12.77007417       6.96606951       4.33171485       0.00688571       0.01636539       0.00333710
H       12.51243218       7.25514610       6.08644909       0.00250405       0.00974303       0.00340441
H       11.77154268       8.33668055       4.86277392       0.00255247       0.01159757       0.00548806
H        9.61495186       7.95416480       6.37347966       0.00311153      -0.00441889       0.00883856
H       10.42022202       6.65996391       7.31592730       0.00431749      -0.01191027      -0.00272775
H        8.83615739       6.36206416       6.53630362       0.00593257      -0.00730906      -0.00681132
S        2.31902740       9.46020221       1.48502075      -0.00732970      -0.01195038      -0.00115383
O        1.14891087       9.61804857       2.40187540      -0.01024485      -0.01048438      -0.00616419
C        2.65992314       7.68470201       1.43945948      -0.00553955      -0.01104558       0.00426745
C        3.76453190       9.93204467       2.45014292      -0.01187420      -0.00750300       0.00264695
H        1.85373217       7.21405697       0.88087063      -0.00567155      -0.01322951       0.00675240
H        2.66937313       7.31396587       2.46375540      -0.00378143      -0.00833231       0.00506830
H        3.61335186       7.49166906       0.94789680      -0.00620124      -0.01104047       0.00344878
H        4.67967011       9.59314640       1.96845429      -0.00969647      -0.00660430       0.00682081
H        3.65746747       9.48590601       3.43836964      -0.01487844      -0.00567130       0.00303535
H        3.78782570      11.01714560       2.49355214      -0.01417727      -0.00752598       0.00054958
S        5.00191210      11.58210317      12.47339046       0.00724426       0.00092903       0.00488031
O        4.50709067      12.05714470      13.79152277       0.01147440      -0.00020871       0.00666964
C        4.52334741       9.84592985      12.30282273       0.00107755       0.00317770       0.00248456
C        6.76774533      11.28343515      12.67806156       0.00643897      -0.00570604       0.00009422
H        3.43683390       9.82782983      12.28447385       0.00120097       0.00670762       0.00354932
H        4.89928174       9.28750002      13.16038941      -0.00019818       0.00071052       0.00127533
H        4.92565932       9.43157479      11.38108917      -0.00111648       0.00369497       0.00157706
H        7.17559248      10.72058687      11.84141482       0.00198597      -0.00612790      -0.00151514
H        6.90727760      10.74138947      13.61341191       0.00660846      -0.00754080      -0.00114565
H        7.24425771      12.25891405      12.74016662       0.01054392      -0.00807990       0.00010904
S        5.30701464      11.20992071       5.39099092       0.00668909       0.00820446      -0.01537347
O        5.05592622      12.66622742       5.62428720       0.00503114       0.00743508      -0.01441422
C        4.27480349      10.26038841       6.54410703       0.00580508       0.00774872      -0.01741225
C        6.92312818      10.84519139       6.11891152       0.00456238       0.00819142      -0.01175070
H        3.31743603      10.07532949       6.06219133       0.00600502       0.00905550      -0.01784800
H        4.10789810      10.86459726       7.43183325       0.00617040       0.00743307      -0.01734476
H        4.75992817       9.31542288       6.78729728       0.00545155       0.00775222      -0.01716411
H        6.96956274       9.80071890       6.42383386       0.00499422       0.00725953      -0.01563765
H        7.04086265      11.52067010       6.96302166       0.00021309       0.00429095      -0.00814689
H        7.67067073      11.06213590       5.35975590       0.00677483       0.01305650      -0.00780413
S        9.62353233       6.16463772      11.15692125      -0.00596062      -0.00838721      -0.00006962
O        9.83871705       6.18384768      12.63324858      -0.00601247      -0.00106268      -0.00064468
C       10.42504183       7.64822566      10.53397506      -0.00376925      -0.01309752      -0.00741114
C        7.91498982       6.64112714      10.86516307      -0.00488114      -0.00690308      -0.00291017
H       11.48837113       7.52895510      10.73671089      -0.00399542      -0.01438574      -0.00785521
H       10.05181166       8.52732012      11.06474957      -0.00177884      -0.01029272      -0.01124100
H       10.26604096       7.75148750       9.46350279      -0.00400328      -0.01765424      -0.00751381
H        7.72050399       6.68463006       9.79332772      -0.00355344      -0.00983549      -0.00309567
H        7.70994823       7.59814299      11.34910526      -0.00378111      -0.00497830      -0.00668214
H        7.32235519       5.83636563      11.29571071      -0.00634789      -0.00429773      -0.00088251
S       10.68380793       8.98770982       0.38310730      -0.00355178       0.00389552      -0.00661742
O       10.59681604      10.37133781      -0.18997451      -0.01115982       0.00248814      -0.00712621
C        9.01004464       8.57691324       0.92704171       0.00055969      -0.00311863      -0.00101995
C       11.36105560       9.08863598       2.05185555       0.00091211       0.00907247      -0.00928360
H        8.39944258       8.46338521       0.03493150      -0.00151606      -0.00828562       0.00137246
H        8.64993361       9.39435679       1.55441795      -0.00119182      -0.00370203      -0.00153807
H        9.02648912       7.63274084       1.46785271       0.00706286      -0.00141934       0.00094463
H       11.27309490       8.08804072       2.47718408       0.00827557       0.00997418      -0.00691592
H       10.79647618       9.80954848       2.64300276      -0.00093403       0.00710207      -0.00909695
H       12.41164897       9.36927090       1.99382028      -0.00085944       0.01419874      -0.01294274
S        7.04791545       4.04926924       7.89166767      -0.00427037      -0.01593697       0.00426269
O        6.62845282       4.09866030       9.32366229       0.00368297      -0.02285548       0.00657606
C        6.42413797       2.48454231       7.24889260      -0.00494581      -0.01397967       0.00155517
C        8.80248588       3.64676355       7.92419664      -0.00344771      -0.01237869      -0.00664120
H        5.34213090       2.58192777       7.15567490      -0.00579712      -0.01630441       0.01190298
H        6.67324952       1.70383171       7.96636543       0.00426402      -0.01762092      -0.00604989
H        6.86312333       2.26285024       6.27824000      -0.01396941      -0.00673245      -0.00380495
H        9.22881788       3.57727965       6.92372103      -0.00932550      -0.00919444      -0.00893547
H        8.93131238       2.72251613       8.48919747       0.00163499      -0.01362671      -0.01028271
H        9.29555660       4.46022087       8.45468045      -0.00233750      -0.01281814      -0.00734589
S        3.71989898       6.97182243       9.54988242      -0.00187016       0.01019141       0.00490570
O        2.81291552       7.73315870       8.62647343      -0.00062239       0.00606257       0.00105631
C        3.65521356       5.23784116       9.10185290       0.01041029       0.01026893       0.00394750
C        2.85225659       6.79480240      11.11989036      -0.00988299       0.00695041      -0.00095308
H        4.04412149       5.14665698       8.09045041       0.01223796       0.01464401       0.00429094
H        2.63112656       4.87471565       9.15203748       0.01325262       0.00260456       0.00194223
H        4.29894105       4.68089339       9.77880064       0.01370704       0.01402022       0.00362517
H        3.45491648       6.17066332      11.77846349      -0.01688957       0.00712050       0.00216863
H        1.89302086       6.30746625      10.95650041      -0.00762151       0.00535446      -0.00583254
H        2.72544425       7.79181348      11.53420684      -0.01197455       0.00510810       0.00178580
S        1.95198831       4.04559762       5.85742406      -0.00257327      -0.00402534       0.00845861
O        2.58026192       3.18775352       6.91315478      -0.00246584      -0.00142419       0.01022542
C        1.16082704       5.44313908       6.65517794       0.00065139      -0.00156933       0.00616953
C        0.45657650       3.23695098       5.28455662      -0.00498766      -0.00242171       0.01312982
H        1.91737764       6.04852492       7.15154088       0.00233427       0.00355396      -0.00321632
H        0.40060285       5.09041923       7.35493512       0.00763883      -0.00036459       0.01393557
H        0.70821475       6.02071693       5.85491070      -0.00898038      -0.00843055       0.00702927
H       -0.00909525       3.82891022       4.49393600      -0.00116867      -0.00595796       0.00844160
H       -0.23078637       3.12526880       6.12142020      -0.00642946       0.00711096       0.01279575
H        0.74670712       2.26726871       4.88617146      -0.00847994      -0.00633588       0.02106010
S       11.67937341      10.05315124       7.49336572       0.00570756       0.00584596       0.00514728
O       10.37189481       9.58398485       8.09759636       0.00892669      -0.00193803       0.00499928
C       12.90432872       9.90760130       8.79836483       0.00681540       0.01406849       0.00424927
C       11.53638719      11.82507396       7.42252025      -0.00325388       0.00489998       0.00422166
H       13.08408459       8.84404903       8.94462748       0.01318331       0.01552734       0.00549172
H       12.51511043      10.36500534       9.70807462       0.00508687       0.01311879       0.00381818
H       13.82684173      10.38957202       8.47658726       0.00331728       0.01910440       0.00246908
H       12.49319861      12.28942777       7.15711229      -0.00577551       0.00753117       0.00074340
H       11.19711268      12.16663782       8.40079095      -0.00139520       0.00451303       0.00478208
H       10.79974646      12.04539842       6.65062033      -0.00650494       0.00103404       0.00641884
S        6.28449598       6.95806185       5.39925053       0.00143839      -0.00098133       0.00735247
O        6.33396412       7.69169529       6.71174447       0.00196496       0.00645304       0.00306523
C        6.81836287       8.11074093       4.11197294      -0.00627470      -0.00606966       0.00027317
C        4.56288603       6.88797207       4.87370843       0.00075704      -0.01029138       0.01200612
H        7.87728234       8.30597817       4.27423649      -0.00656185      -0.00201957      -0.00431824
H        6.23810136       9.03176090       4.17733596      -0.00873193      -0.00757182      -0.00254078
H        6.68058319       7.62174054       3.14886727      -0.00814369      -0.01145247       0.00348222
H        4.56672541       6.53645989       3.84283502      -0.00003290      -0.01357074       0.01335992
H        4.11562030       7.87719372       4.96141011      -0.00341476      -0.01222326       0.00976661
H        4.04033646       6.17833873       5.51140136       0.00544462      -0.01042373       0.01511681
S        4.32570953       2.74849409       2.36365802       0.00682592      -0.00358987       0.00339279
O        3.56146638       1.50909295       2.02403165       0.00607526      -0.00193775       0.00005490
C        4.73509142       2.65286694       4.11258168       0.00387934      -0.00680376       0.00378454
C        3.10837478       4.08618493       2.49573143       0.00746107      -0.00401819       0.00608747
H        5.41696330       1.81273657       4.22781544      -0.00342906      -0.01220847       0.00514143
H        3.84455921       2.48360365       4.71474203       0.00192472       0.00072777       0.00247752
H        5.22472532       3.58565643       4.39079255       0.01048168      -0.01057417       0.00397655
H        3.46522120       4.83499641       3.19589538       0.00812190      -0.00530356       0.00675987
H        2.16618121       3.65242303       2.83074729       0.00815505      -0.00464520       0.00661892
H        2.97122719       4.51845144       1.50903033       0.00620968      -0.00266761       0.00706266
S        1.68112305      12.43318401       5.89954387      -0.00138342       0.00417006      -0.00476815
O        0.66328336      13.27897437       6.61249074      -0.00082552       0.00124896      -0.00100487
C        2.06430315      13.22951020       4.34352558       0.00183845       0.01287889       0.00096858
C        0.76672194      11.03881094       5.20374619      -0.00315464       0.01028761      -0.01306427
H        2.64928922      14.11276977       4.57792973      -0.00149907       0.01282306       0.00842375
H        1.14654050      13.48593300       3.81263628       0.00352845       0.01352909      -0.00118054
H        2.68958245      12.56042947       3.75620888       0.00638999       0.01855695      -0.00030075
H        1.33376666      10.55265446       4.41140237      -0.00414772       0.01282082      -0.01497510
H       -0.17138696      11.41158122       4.78837779      -0.00189285       0.01491317      -0.01113071
H        0.57505308      10.32356449       6.00297790      -0.00551445       0.00668090      -0.01709178
