194
Lattice="12.97959995305231 0.0 0.0 0.0 12.97959995305231 0.0 0.0 0.0 12.97959995305231" Properties=species:S:1:pos:R:3:forces:R:3 energy=-109414.40625 stress="-0.0005331412539817393 0.00013409959501586854 0.00011639024887699634 0.00013409959501586854 -0.0008170384098775685 0.0005407928547356278 0.00011639024887699634 0.0005407928547356278 -0.0007723162998445332" pbc="T T T"
N        3.06940126      10.07284272       1.08239818      -0.01057436       0.00356197      -0.00192617
C        4.34374609      10.20698469       1.53742380      -0.00905097       0.00507419       0.00004356
C        2.14083681      11.05472496       1.19039273      -0.00961840       0.00912982      -0.00086682
C        4.72067924      11.39034810       2.12948496      -0.00812667       0.00443852       0.00056732
C        2.49603434      12.25407853       1.77248933      -0.00610189       0.00698055      -0.00029010
C        3.79552079      12.43140412       2.24790513      -0.00882229       0.00445631      -0.00044367
H        2.80894993       9.20154910       0.64530371      -0.01040010       0.00854921      -0.00046727
H        5.00249738       9.36446018       1.39541433      -0.01067716       0.00461928      -0.00123607
H        1.15570952      10.85866507       0.79352611      -0.00810311       0.00950125      -0.00259498
H        5.73204738      11.49928636       2.49736283      -0.00849003       0.00295873      -0.00081450
H        1.75240977      13.03747162       1.83162826      -0.00665627       0.00860137      -0.00166710
H        4.08261892      13.35736435       2.72677007      -0.00597307       0.00587838      -0.00028159
N        2.97728766      12.50378687      11.02720106      -0.00286436      -0.00058848       0.00278535
C        4.23061069      12.55107403      11.50262781       0.01422724      -0.00426947      -0.00294176
C        2.67642367      11.93585470       9.84993106       0.00691302      -0.00229391       0.00300080
C        5.26486892      12.00460373      10.77426870      -0.00950481       0.00140906      -0.00056262
C        3.67529785      11.37019077       9.08619055      -0.01871812       0.00377228       0.00613220
C        4.98635248      11.40101821       9.54993168       0.00023696      -0.00329068      -0.00351366
H        2.15397724      12.85175128      11.62638092       0.00535640       0.00381410       0.00584930
H        4.35504884      13.02196629      12.46741929       0.00807171      -0.00056925      -0.00043304
H        1.62950795      11.96576259       9.58049661      -0.00727296       0.00469461       0.01002216
H        6.27231765      12.04835148      11.16294935       0.00376775      -0.00334448      -0.00838871
H        3.43484190      10.91500405       8.13775419      -0.01125377       0.00295248       0.00065524
H        5.77250054      10.94298030       8.96257506      -0.01019264      -0.00337595      -0.00469895
S       12.85747814       1.28818775      -2.05131892       0.02265793       0.00409564      -0.01905188
S       13.41191702       0.25576401      -0.45353463       0.00071833       0.01644966      -0.00543758
O        6.45549820       8.51026018       8.62031676      -0.00162284      -0.00175177       0.00242043
C        6.84720966       8.56325493       9.99026938      -0.00120093      -0.00087249       0.00224704
C        5.61229918       8.30826867      10.83503475      -0.00088578      -0.00098500       0.00289899
C        7.93990343       7.55876135      10.29618673      -0.00117391      -0.00060332       0.00274138
H        7.23026733       9.57500018      10.21229384      -0.00161943      -0.00070965       0.00166276
H        5.83554473       8.47815080      11.89030742      -0.00036053      -0.00040775       0.00258774
H        4.79812010       8.96990277      10.54011124      -0.00122499      -0.00143054       0.00300605
H        5.29098973       7.27657865      10.69601983      -0.00037026      -0.00112605       0.00369719
H        8.25019747       7.62333210      11.34157151      -0.00049282       0.00050367       0.00229475
H        8.80647866       7.72910284       9.65663257      -0.00132830      -0.00120131       0.00206925
H        7.57591779       6.54814879      10.10382457      -0.00139776      -0.00068809       0.00391905
H        7.20891866       8.19612743       8.08670052      -0.00136775      -0.00018862       0.00217859
O        9.77924339       8.09249474       0.51306025       0.00194517       0.00658356      -0.00081390
C        9.25576238       9.07383271       1.41958983       0.00095946       0.00593740      -0.00070728
C       10.26656700      10.17920916       1.66086455       0.00054762       0.00599486       0.00065604
C        7.92942177       9.60333336       0.90371975       0.00122136       0.00588343      -0.00137523
H        9.08598855       8.52645858       2.34840724       0.00035462       0.00523934      -0.00115854
H        9.89018990      10.89626500       2.39166481      -0.00000065       0.00588018       0.00020090
H       11.20096866       9.76335118       2.03971502       0.00030193       0.00586492       0.00141680
H       10.47678901      10.72346980       0.73510963       0.00141900       0.00593903       0.00087945
H        7.49178977      10.30178064       1.61949843       0.00087346       0.00614669      -0.00181027
H        7.24003365       8.77320408       0.74324540       0.00110592       0.00616223      -0.00168464
H        8.06446964      10.12987856      -0.04584600       0.00209731       0.00562410      -0.00136968
H       10.07181481       8.56674056      -0.27223587       0.00168875       0.00700006      -0.00057179
O        6.42938418       0.08118202       6.83585273      -0.00748485       0.01385544      -0.02144647
C        6.83460944       0.79002078       8.01857977      -0.00996409       0.00016600      -0.01638567
C        8.11691805       1.53925607       7.72360333      -0.00374889      -0.00876126      -0.00984445
C        5.73187466       1.70648378       8.50401284      -0.00529182       0.00476751      -0.01476072
H        7.04905301       0.05003301       8.80323128      -0.01721166      -0.00566483      -0.01975974
H        8.46472342       2.06150704       8.61662630      -0.00469454      -0.01401674      -0.00664228
H        8.89726432       0.86081979       7.37672807      -0.00733151      -0.01334482      -0.00792221
H        7.93500697       2.27360489       6.93978840       0.00548498      -0.00536276      -0.00839082
H        6.04138452       2.22734047       9.41035323      -0.00566118       0.00171216      -0.01321472
H        4.81886463       1.14510822       8.71158589      -0.00773568       0.00797190      -0.01717284
H        5.50178886       2.45215856       7.73768297      -0.00196076       0.00540362      -0.01467021
H        5.47982886       0.20440254       6.71812571      -0.01711953      -0.04211982       0.01395380
O        7.37285047       3.82288339      10.59153244       0.00225914      -0.01114493       0.00592822
C        7.94634683       4.27358281      11.81951139       0.00389357      -0.00627588       0.00325370
C        6.88551681       4.86372628      12.73317396       0.00452656      -0.00698897       0.00434995
C        8.66284174       3.09476114      12.44718525       0.00898045      -0.00250494       0.00410584
H        8.68777216       5.05737934      11.60495813       0.00070953      -0.00457275      -0.00059934
H        7.33031177       5.24751770      13.65414500       0.00582361      -0.00223672       0.00168048
H        6.36874493       5.69345229      12.24580179      -0.00020497      -0.01075926       0.00301903
H        6.14232333       4.10171490      12.98530486       0.00814050      -0.00890206       0.00912956
H        9.17433159       3.39923226      13.36270150       0.00881702       0.00017931       0.00330909
H        9.40535052       2.68087908      11.76387504       0.00931588      -0.00053867       0.00333826
H        7.94170809       2.30847987      12.68679776       0.01220471      -0.00478057       0.00568943
H        6.57563019       4.34254957      10.39625363       0.00267832      -0.01107867       0.00517409
O        8.45377575       7.17204468       7.04551579      -0.00348711       0.00110054      -0.00377819
C        8.34730306       5.75355162       7.25329773       0.00064373       0.00187975       0.00175044
C        6.90808390       5.33916969       7.00140886       0.00091481      -0.00154167       0.00706893
C        9.32324719       4.98253216       6.39084870      -0.00016865       0.00118613       0.00172809
H        8.57702250       5.55694304       8.30740016       0.00401191       0.00561021       0.00175005
H        6.74970184       4.31185502       7.33442906       0.00429427      -0.00111115       0.00976309
H        6.23820683       6.00207650       7.55315215       0.00117935      -0.00170808       0.00737104
H        6.67088087       5.40772096       5.93785372      -0.00221337      -0.00441011       0.00774364
H        9.25116423       3.91580326       6.60033751       0.00484367       0.00215389       0.00764094
H       10.35066786       5.28382869       6.59189959      -0.00053363       0.00610794      -0.00394212
H        9.11529001       5.13347343       5.33067262      -0.00460834      -0.00477192       0.00190839
H        9.16621724       7.38224204       6.40476618       0.00225230       0.00055699       0.00249592
O        4.93136253       5.06456897       9.81829264       0.00521236      -0.00523402       0.00688422
C        3.62576590       4.87726451      10.39458964       0.00278434      -0.00394521       0.00145204
C        2.66926002       5.94278963       9.88765305       0.00596344      -0.00373119      -0.00355944
C        3.11265986       3.47386693      10.13943048       0.00241096      -0.00352389       0.00084203
H        3.79287981       5.01692449      11.46611518      -0.00170959      -0.00263503       0.00201625
H        1.67674115       5.78196261      10.31352708       0.00424714      -0.00277121      -0.00761324
H        3.01650490       6.94278523      10.14904201       0.00532299      -0.00373258      -0.00307759
H        2.57501524       5.88185754       8.80095495       0.01039302      -0.00450738      -0.00373840
H        2.13510632       3.30533339      10.59845474       0.00068823      -0.00198796      -0.00249726
H        3.81008136       2.73470859      10.53357197      -0.00005002      -0.00417671       0.00400315
H        3.00371128       3.29854343       9.06514380       0.00535147      -0.00539667       0.00100020
H        4.85310758       4.98687169       8.86024765       0.00947779      -0.00867325       0.00690207
O       -0.11151381       4.02418325       4.68695908      -0.00341964      -0.00519904       0.00420874
C        0.58469209       3.59645726       5.84918525      -0.00116777      -0.00407311       0.00327116
C        1.95892413       3.04106935       5.50986497      -0.00007653       0.00039482       0.00094290
C        0.69090005       4.72561928       6.86478326      -0.00352877      -0.00449342       0.00374854
H       -0.02964593       2.79931158       6.28270974       0.00182036      -0.00616866       0.00352708
H        2.44168809       2.61041587       6.38991179       0.00273931       0.00137199      -0.00017309
H        1.88652177       2.26480727       4.74644335       0.00099301       0.00071150       0.00059178
H        2.60208210       3.84158885       5.13484302      -0.00321344       0.00250557       0.00031186
H        1.10724490       4.35607454       7.80432080       0.00022759      -0.00316645       0.00251131
H       -0.29311159       5.14697430       7.06845194      -0.00481404      -0.00887141       0.00636461
H        1.33427899       5.52168499       6.48018960      -0.00792374      -0.00156181       0.00271720
H        0.52351685       4.34215619       4.02534475      -0.00442204      -0.00480831       0.00368771
O       11.55076224       9.89454670       7.18328611       0.00300157      -0.00002736      -0.00183359
C       10.69870539      11.01487915       7.50202674      -0.00042018      -0.00289564      -0.00164735
C        9.25040392      10.56553949       7.58668132       0.00126803      -0.00768089       0.00116431
C       11.16877268      11.70760779       8.76613829      -0.00103672      -0.00028744      -0.00289273
H       10.80769917      11.69857699       6.65419682      -0.00412177      -0.00366044      -0.00261849
H        8.58019733      11.41810397       7.71224600      -0.00119615      -0.00988321       0.00092444
H        8.95874928      10.03993320       6.67712366       0.00192877      -0.01046187       0.00254147
H        9.10984513       9.88733186       8.43153479       0.00493294      -0.00675748       0.00250600
H       10.56924255      12.59385148       8.97768720      -0.00405508      -0.00231449      -0.00270390
H       12.20683901      12.02892354       8.68530825      -0.00244340       0.00346280      -0.00462446
H       11.08889766      11.04028940       9.62828960       0.00246663      -0.00016457      -0.00270583
H       11.82919044       9.46704321       8.01358142       0.00386330      -0.00005402      -0.00216301
O        4.13543019       7.95173790       4.66149352       0.00339001       0.00054976       0.00436920
C        5.48126566       8.15559796       5.12942096       0.00376612       0.00225973       0.00233844
C        6.49413851       7.76610827       4.06672533       0.00276342       0.00380287       0.00110346
C        5.67546393       9.58185566       5.61025929       0.00233674       0.00253046       0.00192514
H        5.57429930       7.48398972       5.98129979       0.00572838       0.00258946       0.00233978
H        7.50850724       7.83950804       4.46335115       0.00307368       0.00589932      -0.00036437
H        6.33061387       6.74415275       3.72224177       0.00421822       0.00351962       0.00153327
H        6.41817698       8.43819451       3.20645396       0.00013930       0.00356930       0.00104161
H        6.68564556       9.74162429       5.98596335       0.00182173       0.00353390       0.00280874
H        4.98551681       9.80011877       6.42760027       0.00074065       0.00346817      -0.00004685
H        5.51272383      10.28491274       4.78547172       0.00421805       0.00110206       0.00012336
H        3.93698193       8.66294247       4.04400560       0.00524613      -0.00574085      -0.00310940
O        1.51181794       4.95168843       2.55206371      -0.00324970      -0.00165418       0.00503117
C        2.76362523       4.39267916       2.11278453      -0.00365107       0.00113812      -0.00001085
C        2.57555424       3.58387738       0.84414092      -0.00728077       0.00312662      -0.00035995
C        3.81180571       5.48229089       1.97674627      -0.00667319       0.00356513      -0.00242775
H        3.05350156       3.72529066       2.92560902       0.00069094       0.00024199      -0.00250101
H        3.52499431       3.14722704       0.52366139      -0.00825809       0.00558669      -0.00617638
H        1.84763463       2.78117472       0.97219574      -0.00429666       0.00100869       0.00190410
H        2.22518090       4.22610237       0.03044242      -0.01304193       0.00433832       0.00328840
H        4.80108454       5.04952879       1.81675376      -0.00679930       0.00574812      -0.00809801
H        3.84755620       6.09530966       2.87819007      -0.00399267       0.00150825      -0.00125331
H        3.58566554       6.12356827       1.11764565      -0.01200820       0.00545655       0.00057301
H        1.06113868       5.33110176       1.79035757      -0.01002342      -0.00846134       0.00606999
O        3.60588938      12.44931504       5.81568620      -0.00367105      -0.02148759       0.03938100
C        2.24875130      12.16739208       5.40078214       0.00318104      -0.00345406       0.01435930
C        2.13506159      10.75517691       4.86712630      -0.00315750       0.00099617       0.00698709
C        1.28486518      12.39648079       6.54846070      -0.00423896       0.00642497       0.00377560
H        2.02133537      12.87833946       4.59887038       0.02270684       0.00349250       0.01504999
H        1.11460886      10.54822522       4.54636378      -0.00211000       0.01024969      -0.00172539
H        2.80204580      10.60600929       4.01675136       0.00267772       0.00273141       0.01053548
H        2.39139631      10.02527952       5.63930419      -0.01256875      -0.00299517       0.00649126
H        0.25678875      12.35799548       6.18467610      -0.00077201       0.01899122      -0.00542120
H        1.45255909      13.36174077       7.02583478       0.00344216       0.00431913       0.00343377
H        1.39027768      11.60618953       7.29192558      -0.02009893       0.00406672       0.00281291
H        4.10098420      11.62382527       5.78649951       0.01333168      -0.00565144      -0.04143633
O       10.44997139       8.10543799       5.31355167       0.00651109      -0.00516784       0.00460881
C       11.46506275       7.22693433       4.78448463       0.00601617      -0.00254891      -0.00042367
C       10.94833343       6.61354825       3.50028127       0.00308546       0.00058082      -0.00055718
C       12.76977065       7.97033942       4.57889328       0.00448966      -0.00040779      -0.00186473
H       11.64132308       6.42189001       5.50388668       0.00897275      -0.00444150      -0.00335425
H       11.55412547       5.74290742       3.24862781       0.00429182       0.00314024      -0.00595632
H        9.91720360       6.27761387       3.61057109       0.00449942      -0.00270321       0.00204762
H       10.98991137       7.32624133       2.67652444      -0.00172680       0.00357431       0.00190356
H       13.54216860       7.28551502       4.22307934       0.00389087       0.00180624      -0.00730383
H       13.11471703       8.42404016       5.50915311       0.00741957      -0.00370923      -0.00156070
H       12.63603669       8.76281565       3.83876192       0.00126342       0.00237052       0.00188452
H       10.87392837       8.72166385       5.94724121       0.00732368      -0.00361487       0.00245235
O       12.59061928       8.62915639       9.50525389       0.00335896      -0.00193483      -0.00578421
C       11.75126759       7.79941966      10.33456832       0.00384822       0.00103229      -0.00243521
C       11.38908289       6.51561913       9.61418686       0.00127666      -0.00059676       0.00189894
C       12.41167265       7.55754127      11.68067181       0.00563058       0.00434358      -0.00284189
H       10.84889374       8.40245902      10.47243946       0.00467855       0.00234747      -0.00287508
H       10.69861913       5.91588542      10.21002620       0.00103499       0.00239213       0.00462587
H       10.91699599       6.73519646       8.65498227       0.00069423      -0.00291820       0.00188492
H       12.28454888       5.91470039       9.43398491       0.00013155      -0.00259006       0.00293435
H       11.77345256       6.95231787      12.32592950       0.00567050       0.00754443       0.00015958
H       12.60990622       8.50461065      12.18580498       0.00788917       0.00565696      -0.00656106
H       13.35807420       7.02945438      11.54325163       0.00451481       0.00239158      -0.00265480
H       13.36856810       8.11019956       9.27151772       0.00319293      -0.00267372      -0.00524364
O        7.50703208       3.89754782       3.26149143       0.00154936       0.00057574      -0.00535423
C        7.04184973       2.79286269       4.04675408       0.00282034       0.00225335      -0.00251500
C        5.53242966       2.66048474       3.93716437       0.00267255       0.00182805       0.00099898
C        7.76115837       1.50741500       3.68223195       0.00158757       0.00109339      -0.00106388
H        7.29709188       3.06720605       5.07175660       0.00466050       0.00437286      -0.00349861
H        5.16085186       1.84238841       4.55950179       0.00540978       0.00369611       0.00483868
H        5.04590296       3.58614158       4.24654331       0.00306419       0.00258650      -0.00073185
H        5.25218182       2.46032310       2.89767291       0.00059593      -0.00131753       0.00223151
H        7.45410550       0.70075509       4.35080804       0.00188607       0.00333732       0.00161992
H        8.84065901       1.63644814       3.76230785       0.00170012       0.00081636      -0.00336679
H        7.52519797       1.21975003       2.65199650      -0.00048001      -0.00098283      -0.00012119
H        7.45689975       3.63549126       2.33585730      -0.00307088      -0.00016057      -0.00508375
