194
Lattice="13.424742155789602 0.0 0.0 0.0 13.424742155789602 0.0 0.0 0.0 13.424742155789602" Properties=species:S:1:pos:R:3:forces:R:3 energy=-120432.9609375 stress="-0.0004695385869126767 0.0002654441923368722 -0.00010892445425270125 0.0002654441923368722 -0.0004833977436646819 -0.0006707324937451631 -0.00010892445425270125 -0.0006707324937451631 -0.000700390781275928" pbc="T T T"
N        7.76969253       9.24983495       9.64802155       0.00670715      -0.01332738       0.01408742
C        7.88023465      10.18890018       8.68934654       0.01527413       0.02334501       0.00947887
C        7.99340832       9.50658544      10.95137331       0.00408964       0.02606262       0.01713783
C        8.20051642      11.47983611       9.03494445      -0.00061317      -0.00393568       0.00727969
C        8.29859934      10.78820904      11.33875241      -0.00891719       0.00329582       0.00995472
C        8.40450446      11.79269651      10.37770767      -0.00467762       0.01748177       0.01033980
H        7.57137527       8.29758114       9.37254356       0.02088894       0.00716609       0.01580559
H        7.72057417       9.87048206       7.67481880       0.01782851      -0.00347516       0.00801808
H        7.93396529       8.67084215      11.63044252      -0.00132658       0.00663583       0.01722395
H        8.31497590      12.21399421       8.25119544       0.00106562       0.00433661       0.00803800
H        8.49049562      10.98758825      12.38224583      -0.01272058       0.01576543       0.01120749
H        8.67329877      12.79773978      10.67387728      -0.01450112       0.00609468       0.00733605
N       10.59637883      12.44463843       1.19092798      -0.02596015       0.01225114      -0.00435156
C        9.35604046      11.97057969       1.25915174      -0.00907166       0.00069842      -0.00395488
C       11.60729114      11.62695201       1.49118616      -0.00301248       0.01685168      -0.01158702
C        9.05999107      10.65572433       1.59800294      -0.00768538      -0.00794172      -0.01341353
C       11.41069200      10.29260719       1.83043551      -0.00378492       0.01005775      -0.02234269
C       10.11463370       9.79676075       1.87665592       0.01452327       0.00000995      -0.02247885
H       10.80191351      14.29590913       0.84429376      -0.00482373       0.00398386       0.00443255
H        8.56481847      12.68226334       1.04081748      -0.02210870      -0.00829080       0.00444561
H       12.59495615      12.07601286       1.47714610      -0.01682177       0.02426685      -0.00961317
H        8.03025262      10.32712044       1.66426116       0.00515670      -0.01668011      -0.01596758
H       12.25336240       9.66006621       2.07812868       0.00973013       0.01833127      -0.03116461
H        9.92940853       8.77080962       2.17003060       0.01690590      -0.00515173      -0.03297794
O       10.95818215       1.83589136       0.88688672       0.01228917       0.00199154      -0.00362301
O       13.68956933       1.76485555       0.45722499       0.01182508       0.01198959      -0.00107431
O       12.72610840       0.91345536       2.76331670       0.01213682      -0.00911260      -0.00878572
O       12.66625041       3.53388039       2.16728460       0.00628945      -0.00561047       0.01256943
Cr      12.59098994       2.02615707       1.59866616       0.01052582      -0.00063644      -0.00220221
O        7.82017301       2.86650551       4.42661421       0.00216512       0.00472847      -0.00674766
C        9.16014806       2.83091220       4.90714529       0.00256196       0.00339174      -0.00754550
C        7.04971760       3.84659690       5.08647797       0.00203609       0.00560388      -0.00782584
C        9.90604460       1.72554119       4.21019022       0.00007892       0.00084436      -0.00653952
C        5.64880560       3.81393454       4.52460401       0.00202537       0.00693205      -0.00828965
H        9.64057127       3.80422638       4.73422046       0.00452194       0.00187021      -0.00989048
H        9.13740343       2.67312350       5.99407479       0.00415252       0.00518299      -0.00714862
H        7.03979448       3.64629680       6.17101934       0.00088458       0.00620680      -0.00783914
H        7.50533895       4.83959858       4.95260087       0.00237310       0.00514793      -0.00866335
H       10.95350909       1.71050164       4.51170739       0.00001600      -0.00103406      -0.00632861
H        9.46052827       0.75422377       4.43846169      -0.00198431       0.00211737      -0.00565615
H        9.89975338       1.87087242       3.12917654       0.00058312       0.00021449      -0.00655544
H        5.01132127       4.53523876       5.03757084       0.00268500       0.00698951      -0.00744433
H        5.65949757       4.05062409       3.46047800       0.00188838       0.00858288      -0.00785790
H        5.21293642       2.82118849       4.64516921       0.00074498       0.00741273      -0.00960305
O       11.01512447       2.64951440       9.61195071       0.00414132       0.00404328       0.00777018
C       10.29863991       2.50422969       8.40711905       0.00421280       0.00717738       0.00761522
C       12.08893578       3.56940128       9.49604990       0.01432559      -0.00809415       0.00709116
C        9.26500330       1.42352470       8.61227078      -0.00185966       0.01306045       0.00662620
C       12.75032758       3.73004497      10.84154140       0.00983389      -0.01301202       0.00993431
H        9.81973912       3.45528801       8.12553442       0.00966981       0.00959733       0.00646988
H       10.98267853       2.24247308       7.58612165       0.00362381       0.00306450       0.00862744
H       12.80243774       3.20597911       8.74102435       0.01295581      -0.01756468       0.00977907
H       11.70156566       4.53043393       9.12661495       0.02499232      -0.00433481       0.00512746
H        8.71198613       1.23200480       7.69057095      -0.00318313       0.01806196       0.00632489
H        9.76701323       0.50556300       8.91676997      -0.00754747       0.00967279       0.00530077
H        8.56041769       1.71145306       9.39376943      -0.00036839       0.01606154       0.00683551
H       13.54497280       4.47492156      10.77381726       0.01636025      -0.01910906       0.01616809
H       12.03139261       4.05590784      11.59150037       0.00335290      -0.01144961       0.00058471
H       13.18026964       2.79479469      11.19661828       0.00071586      -0.01628739       0.01321802
O        7.03514069       4.74174392      11.70825090      -0.00364947      -0.00370177       0.00704861
C        7.87080495       4.46686481      12.83154611      -0.00683498      -0.00918931       0.00811867
C        5.73698511       5.14621679      12.10970041      -0.00168371       0.00457633       0.00438046
C        9.22012401       4.00211809      12.35320791      -0.00722796      -0.00976609       0.00792563
C        4.83426559       5.18816564      10.90117115      -0.00299680      -0.00236526       0.00519258
H        7.95330539       5.37380703      13.44818821      -0.00614855      -0.01180333       0.01166064
H        7.39323350       3.69676805      13.45471827      -0.00960112      -0.01024386       0.00462455
H        5.34494220       4.44032454      12.85507351      -0.00373496       0.01256940       0.01072535
H        5.79099716       6.12846902      12.60220713       0.00227982       0.00897688      -0.00432380
H        9.83945493       3.66332904      13.18507105      -0.00897887      -0.01792237       0.00612029
H        9.12104320       3.16108152      11.66672616      -0.00904642      -0.00434849       0.00152898
H        9.73992260       4.79989853      11.82410147      -0.00402604      -0.00755881       0.01413187
H        3.87180723       5.62604130      11.16567024      -0.00201298       0.00086118       0.00339681
H        5.28018662       5.79571179      10.11218911      -0.00304524      -0.00869310       0.00008161
H        4.65773724       4.18637554      10.51344580      -0.00473281      -0.00506258       0.01238419
O       10.61032252       6.54042847       4.38496966       0.00458688      -0.00066754      -0.00406744
C       11.79257258       6.78948148       5.11984844       0.00583971      -0.00192881      -0.00560886
C       10.91687184       6.12916809       3.05445892       0.00338167      -0.00166442      -0.00382328
C       11.42769925       7.09770259       6.54979888       0.00825745      -0.00023881      -0.00551796
C        9.64167031       5.79456598       2.32628169       0.00348699      -0.00384451      -0.00279038
H       12.45123578       5.91129615       5.06978135       0.00448179      -0.00287694      -0.00636102
H       12.34328646       7.63061742       4.66783364       0.00615716      -0.00270081      -0.00661808
H       11.45053454       6.94646664       2.54257798       0.00211306      -0.00163734      -0.00498214
H       11.58736227       5.26086039       3.06326259       0.00412709      -0.00079727      -0.00321430
H       12.32909647       7.27046263       7.13940511       0.00927441      -0.00295188      -0.00641343
H       10.80297092       7.98982807       6.61819608       0.01124881       0.00198135      -0.00633263
H       10.88390809       6.25715202       6.98387415       0.00569734       0.00181845      -0.00475491
H        9.88025970       5.54826521       1.29281460       0.00362061      -0.00563724      -0.00235665
H        9.14672886       4.92938543       2.76962977       0.00433209      -0.00343592      -0.00113720
H        8.94322353       6.63519793       2.33952960       0.00264606      -0.00453596      -0.00410339
O        3.32496063       7.76619726       1.19576575       0.00176498      -0.00367317       0.00206682
C        4.52972186       7.54449108       1.90162076      -0.00005186      -0.00075993       0.00524412
C        2.24604922       7.01903279       1.74436363       0.00343561      -0.00934991      -0.00366211
C        5.61285315       8.41351856       1.30819765      -0.00274077       0.00610906       0.01125482
C        0.98545632       7.34910056       0.98735850       0.00416705      -0.01338591      -0.00650254
H        4.38744706       7.78776584       2.96470870      -0.00492711      -0.00477211       0.00542635
H        4.80502800       6.48018610       1.84181800       0.00448456       0.00076735       0.00269259
H        2.46400054       5.94459806       1.68401428       0.00756973      -0.00852770      -0.00472803
H        2.13598997       7.26996319       2.80936435      -0.00359534      -0.01251860      -0.00373060
H        6.55994808       8.22545210       1.81747838      -0.00353114       0.00688431       0.01259242
H        5.74243660       8.19126043       0.24824949      -0.00021101       0.01128025       0.01032458
H        5.35412300       9.46765324       1.41594403      -0.00694554       0.00452599       0.01571956
H        0.15541602       6.76531804       1.38547352       0.00793873      -0.01203123      -0.00034989
H        0.75365423       8.41192237       1.07348687       0.00085657      -0.01370712      -0.00873083
H        1.09815199       7.10946846      -0.07023446       0.00629818      -0.01494327      -0.00608534
O        3.45798485      10.54381227      11.03846231      -0.01935750       0.01128417      -0.00283695
C        3.53119565      11.95699252      11.13661481      -0.01964021       0.01156199       0.00409489
C        4.73412781       9.95840092      11.12002124      -0.02058251       0.00872493      -0.00171112
C        2.13185739      12.51103802      11.10224520      -0.01862270       0.01436527       0.00390910
C        4.57735269       8.46233648      11.04421302      -0.02200526       0.00860220      -0.00481251
H        4.04752386      12.22477515      12.06993807      -0.02191482       0.00693268       0.00662887
H        4.13834181      12.35640294      10.30838507      -0.01843068       0.01596947       0.00749624
H        5.36243793      10.33643581      10.29747058      -0.01757152       0.00844862      -0.00017065
H        5.22538161      10.25263112      12.06184156      -0.02159016       0.00538056      -0.00033671
H        2.14659418      13.59982348      11.10014466      -0.01486580       0.01444069       0.00865146
H        1.62448301      12.16632678      10.20065405      -0.01828453       0.02051927       0.00131792
H        1.56508741      12.17613534      11.97085554      -0.02178608       0.01341878       0.00143509
H        5.54805028       7.96548804      11.08693994      -0.02196931       0.00839064      -0.00489005
H        3.97934762       8.10202058      11.88215936      -0.02220950       0.00726935      -0.00549351
H        4.08374971       8.18044197      10.11373508      -0.02101749       0.01025330      -0.00566687
O        3.96227958      11.52692592       3.44934262      -0.00167766       0.00739241       0.00204017
C        2.54954070      11.65788727       3.53599516      -0.00228310       0.00735307      -0.00143374
C        4.61513659      12.78233777       3.48494065      -0.00134003       0.00728153       0.00125634
C        1.94866414      10.27485333       3.49660142      -0.00215308       0.00680047       0.00284760
C        6.09504370      12.56665632       3.28227406      -0.00152159       0.00748429      -0.00147412
H        2.28111996      12.17606782       4.46823950      -0.00468896       0.01060393      -0.00396007
H        2.17667430      12.27818970       2.71073958      -0.00037719       0.00412017      -0.00440508
H        4.20550619      13.43709795       2.70243245      -0.00217038       0.00787759       0.00228718
H        4.42197849      13.27348820       4.45103463       0.00083672       0.00713874       0.00169849
H        0.86029501      10.33927291       3.55194648      -0.00235368       0.00694688      -0.00060489
H        2.22747811       9.76927398       2.57093612       0.00038888       0.00235672       0.00593433
H        2.30481029       9.67730183       4.33866788      -0.00536226       0.01030456       0.00662577
H        6.63593676      13.51167886       3.35114833      -0.00194936       0.00787583      -0.00266097
H        6.48985349      11.88653271       4.03844293       0.00056283       0.00808875      -0.00209050
H        6.27920746      12.12677118       2.30118138      -0.00305689       0.00735057      -0.00161012
O        4.64635436       1.87178051      10.21807972      -0.00358880      -0.00977538       0.00603519
C        5.44548711       2.06699770       9.06617617      -0.00468436      -0.01796924       0.00383300
C        5.42514877       1.66703802      11.38964504      -0.00283241      -0.00887768       0.00568521
C        4.54603204       2.42783609       7.91017322      -0.00420830      -0.01633759       0.00382063
C        4.50916329       1.67761933      12.58946862      -0.00014412       0.00451412       0.00775611
H        6.17501950       2.86979667       9.25537639       0.00005549      -0.02134281      -0.00007227
H        6.01799235       1.15294575       8.84445943      -0.01019888      -0.02181619       0.00533735
H        5.96181696       0.70816827      11.31166231      -0.00959668      -0.01300246       0.01050687
H        6.17977049       2.46161086      11.46534441       0.00253236      -0.01336622       0.00017817
H        5.13596174       2.56446408       7.00475406      -0.00394148      -0.01879322       0.00347957
H        3.81319820       1.64050695       7.73224838      -0.00680108      -0.01396975       0.00450468
H        4.00971781       3.35527083       8.11616332      -0.00098973      -0.01444645       0.00341385
H        5.09095461       1.56522717      13.50589622       0.00208969       0.00686733       0.00677110
H        3.95119972       2.61177191      12.64221554       0.00643631       0.00872350       0.00301550
H        3.78162638       0.87112385      12.54447155      -0.00571586       0.00896016       0.01571095
O        3.42543206       9.53644509       7.29849789       0.00496069      -0.00786123      -0.00373867
C        4.82062220       9.50335758       7.10979634       0.00406021      -0.00835818      -0.01046368
C        2.95556163      10.86831622       7.43919513       0.00357914      -0.00834113      -0.00136425
C        5.26826903       8.06122830       7.05876980       0.00420255      -0.00824314      -0.01126207
C        1.46690260      10.83502230       7.65557104       0.00337881      -0.01052856      -0.00123874
H        5.08762519      10.03205152       6.18097765       0.00026046      -0.00925905      -0.01196295
H        5.30751138      10.03647089       7.94167330       0.00893721      -0.00821210      -0.01307529
H        3.45819712      11.34478540       8.29329048       0.00294775      -0.00926387      -0.00050592
H        3.21364152      11.44415175       6.53744597       0.00231853      -0.00653765      -0.00050890
H        6.34202414       7.99246949       6.86997382       0.00403135      -0.00639838      -0.01269887
H        5.03617485       7.55332345       7.99643259       0.00641922      -0.00848697      -0.01095068
H        4.75465807       7.53557979       6.25390564       0.00374952      -0.00912744      -0.01045337
H        1.08673443      11.84884946       7.77103923       0.00167380      -0.01111948      -0.00091872
H        0.96127480      10.37217665       6.80679865       0.00428534      -0.01069543      -0.00164670
H        1.22927500      10.27090399       8.55862889       0.00388225      -0.01129144      -0.00165223
O       10.58874327       8.33072409      10.26262506       0.01083905      -0.00356123       0.00303221
C       10.69482060       6.93341625      10.04326682       0.00958490      -0.00412458       0.00540541
C       11.86003262       8.89748423      10.56382329       0.01202370      -0.00417852       0.00145651
C        9.36596408       6.38210238       9.58324609       0.00916237      -0.00104769       0.00388017
C       11.70218607      10.37368721      10.82221065       0.01429773      -0.00371134      -0.00045147
H       11.46709348       6.74562100       9.28763103       0.01049390      -0.00674055       0.00709653
H       11.02281985       6.43659191      10.96681031       0.00675266      -0.00351916       0.00679588
H       12.28837157       8.39019169      11.43939499       0.01186754      -0.00341600       0.00191098
H       12.53807956       8.72003928       9.71744271       0.01112440      -0.00658605       0.00144690
H        9.44214792       5.30733906       9.41451368       0.00632118      -0.00150600       0.00410217
H        8.58934604       6.51219028      10.34071848       0.00846469       0.00151116       0.00271194
H        9.06366369       6.84690777       8.64133836       0.01219925       0.00012615       0.00343615
H       12.67798051      10.83150680      10.98597817       0.01550762      -0.00605100      -0.00133230
H       11.23018150      10.86194249       9.96859413       0.01486690      -0.00334566      -0.00060667
H       11.09123482      10.55285164      11.70727320       0.01538958      -0.00106185      -0.00014472
O       10.38595977      11.28070661       6.15417435      -0.00201553      -0.00117776      -0.00845993
C        9.94863279      10.58636706       5.00097074       0.00067800      -0.00061372      -0.01022220
C       11.59796224      11.97557180       5.86142203       0.00006106      -0.00181726      -0.00092477
C        8.66311985       9.84911192       5.27999159       0.00016999       0.00074345      -0.00849308
C       11.99367135      12.79776370       7.05696553      -0.00830764       0.00352946      -0.00139546
H        9.80977577      11.30328522       4.18243446       0.00186127      -0.00081056      -0.01061535
H       10.72584243       9.87733256       4.68023857       0.00031349      -0.00150263      -0.00950608
H       12.37814845      11.24341679       5.60557499       0.00279653      -0.00202543       0.00862383
H       11.45703561      12.61564490       4.98116410       0.00693910      -0.00433931      -0.00388360
H        8.31553993       9.35437665       4.37258382      -0.00485783       0.00213532      -0.00754872
H        8.81464033       9.07488390       6.03314981       0.00175389       0.00023472      -0.00961755
H        7.88425764      10.53891816       5.61076183       0.00293116       0.00207923      -0.00441807
H       12.90065121      13.36157476       6.83755834      -0.00653155       0.00152830       0.00079951
H       11.20507692      13.50632819       7.29810771      -0.00890775       0.00590777      -0.00981053
H       12.17321475      12.16889233       7.92973243      -0.01337858       0.00851731       0.00332977
