187
Lattice="13.89292800952073 0.0 0.0 0.0 13.89292800952073 0.0 0.0 0.0 13.89292800952073" Properties=species:S:1:pos:R:3:forces:R:3 energy=-271283.28125 stress="0.0006369270267896354 -7.641924094059505e-05 0.00010519920397200622 -7.641924094059505e-05 -0.00020964579016435891 -1.78217646862322e-05 0.00010519920397200622 -1.78217646862322e-05 -0.00037041501491330564" pbc="T T T"
Rb       6.84088547      13.76372878       4.24566303       0.00564934      -0.01414254      -0.00823550
Rb       0.16207137      15.63094275       3.94302194      -0.00664577       0.02404772      -0.00412214
S       12.65365895       0.34417409       1.50697499       0.00695844      -0.00310380      -0.00395453
O       12.87534673       1.82770354       1.65000365       0.03096321      -0.00823259      -0.02424642
O       13.85103074      -0.24481442       0.86922469      -0.02766657      -0.03313053      -0.02412236
O       12.53528121      -0.19612336       2.92031280       0.01199268       0.01084793      -0.00156856
O       11.41927995       0.07237163       0.75973518      -0.02356720       0.01435906       0.01586664
C       12.60096814       8.22429495      10.44314292       0.00164842       0.00827563       0.00875337
C       12.10267890       9.51345048      10.24572949      -0.00179055       0.00989051      -0.00240295
C       13.20171519       7.93165417      11.66683613      -0.00234412       0.01154546      -0.00053382
C       12.49382248       7.18439628       9.36475418      -0.00118552       0.00844631       0.00526798
C       12.20186206      10.47948330      11.23938955       0.00461041       0.01244205       0.00649921
C       13.30761712       8.89809477      12.66098250       0.00339986       0.01478012       0.00750226
C       12.80714530      10.17843101      12.45460912       0.00001462       0.01433945      -0.00607151
H       11.60986853       9.75538900       9.31016411       0.00084171       0.00844967       0.00326977
H       13.58058901       6.93147425      11.84766651      -0.00069104       0.01187801       0.00738313
H       12.51065329       6.17614602       9.77955749       0.00048834       0.00842394       0.00707507
H       11.57154877       7.29481037       8.79284782      -0.00098693       0.00642801       0.00614364
H       13.32849763       7.26365684       8.66101088      -0.00128961       0.00798971       0.00522652
H       11.79418280      11.46992657      11.07956949       0.00260353       0.01246519      -0.00244079
H       13.77858567       8.64639963      13.60263919       0.00166626       0.01606200       0.00117435
H       12.88044840      10.93721790      13.22397545       0.00588461       0.01754729      -0.00053103
C        2.03720777       6.22240108       5.30704493      -0.00242062      -0.00666034       0.00033460
C        3.21222874       6.66169736       4.69752304      -0.00187550      -0.00783440       0.00166900
C        2.00236932       4.91769678       5.80544880      -0.00482357      -0.00773879      -0.00157778
C        0.84020429       7.11998426       5.41559826      -0.00181085      -0.00564955       0.00056384
C        4.32394312       5.83237638       4.59895131      -0.00303416      -0.00944822      -0.00040223
C        3.10617192       4.07975605       5.69680934      -0.00593552      -0.00929031      -0.00344272
C        4.27489058       4.53801663       5.09862401      -0.00566679      -0.01085467      -0.00291465
H        3.26210299       7.67080154       4.30538153       0.00014771      -0.00714223       0.00311916
H        1.10349971       4.56915132       6.30540197      -0.00508456      -0.00692312      -0.00193685
H        0.34704837       7.00407173       6.38206744      -0.00175465      -0.00475357       0.00073910
H        1.12038879       8.16772498       5.30391211      -0.00119445      -0.00588161      -0.00006842
H        0.10455152       6.88138259       4.64234603      -0.00205563      -0.00552573       0.00079226
H        5.23046562       6.20948533       4.13906462      -0.00285570      -0.01040443      -0.00006104
H        3.07112661       3.07616542       6.10568895      -0.00790675      -0.01007685      -0.00501400
H        5.13971318       3.88801638       5.02937324      -0.00713915      -0.01277281      -0.00510035
C       11.24583831       4.60704194       1.61961197       0.00936048      -0.00294495      -0.00061373
C       12.36524380       4.52839327       0.78850157       0.00333223      -0.00380918      -0.00167301
C       11.12500800       5.70683312       2.46669018       0.00454748      -0.00440264       0.00003633
C       10.22434481       3.51411882       1.65134356       0.00979996      -0.00586134       0.00268987
C       13.34142514       5.51468591       0.82633654       0.00704163       0.00205098      -0.00495733
C       12.10392780       6.69166709       2.51304764       0.00870743       0.00078408      -0.00483331
C       13.22043357       6.59717334       1.69238447       0.00131761      -0.00089177      -0.00465030
H       12.48573475       3.65849630       0.15765766       0.00649484      -0.00181332      -0.00140817
H       10.25400475       5.78655897       3.10629263       0.00894675      -0.00379081       0.00070226
H        9.24865882       3.91348988       1.93001689       0.00830072      -0.00724263      -0.00160789
H       10.14766264       3.00359360       0.69381226       0.01405507      -0.01088183       0.00489050
H       10.52606249       2.74673721       2.36851822       0.00848946      -0.00220130       0.00730699
H       14.20837081       5.43768647       0.17958120       0.00287409       0.00056343      -0.00583640
H       11.98245921       7.53873465       3.17839864       0.00479569      -0.00030477      -0.00448762
H       13.98613102       7.36150099       1.71861872       0.00375357       0.00254671      -0.00746006
C        5.21192332       2.47368468       1.97774998      -0.00423622      -0.00875552      -0.01302766
C        4.75925556       1.15639929       1.88801322      -0.00441606      -0.00603476      -0.01574458
C        4.26151047       3.49463171       1.88712577      -0.00372560      -0.00593022      -0.01158339
C        6.66905464       2.81426874       2.10287075      -0.00413197      -0.00896715      -0.00863586
C        3.40991786       0.86596680       1.69396588      -0.00486333      -0.00739242      -0.01628507
C        2.91704514       3.20977119       1.68623015      -0.00422677      -0.00718886      -0.01208532
C        2.48000131       1.89110543       1.57290375      -0.00457127      -0.00449226      -0.01348527
H        5.47856220       0.34155867       1.88867743      -0.00465635      -0.00728052      -0.01685745
H        4.58867769       4.52556860       1.95839369      -0.00360286      -0.00747622      -0.00985567
H        6.85651944       3.53040226       2.90805814      -0.00254456      -0.02862264       0.00821441
H        7.30218963       1.93747329       2.26092134      -0.00508410      -0.01380625      -0.03123958
H        7.03532621       3.27862909       1.18356816      -0.00667115       0.01319037       0.00192285
H        3.07734946      -0.16047324       1.61069873      -0.00527138      -0.00572185      -0.01791881
H        2.20148240       4.02047151       1.60432101      -0.00381388      -0.00531103      -0.01100343
H        1.44168706       1.65061985       1.35344354      -0.00625899      -0.00282218      -0.00986661
C        9.37952909       6.15461096       5.58023088      -0.00204568      -0.00074394       0.00112348
C        8.77144313       4.89749001       5.57985179      -0.00216426      -0.00059672       0.00075376
C       10.69360927       6.24881189       6.04038774      -0.00171752      -0.00174627       0.00264481
C        8.64262050       7.36907267       5.09854362      -0.00076248      -0.00027457       0.00122847
C        9.45365947       3.77129995       6.02375791      -0.00427387      -0.00053348       0.00126368
C       11.37897936       5.12556786       6.48603010      -0.00379285      -0.00144982       0.00336061
C       10.76313312       3.87940677       6.47782252      -0.00374276      -0.00162537       0.00342881
H        7.75094199       4.80833132       5.22103815      -0.00241406       0.00037508      -0.00038939
H       11.18756360       7.21493283       6.03313725      -0.00156760      -0.00168583       0.00283415
H        9.31703346       8.09084735       4.63566759      -0.00050332      -0.00096686       0.00083505
H        7.88023051       7.10474810       4.36448797      -0.00135848      -0.00002284       0.00159971
H        8.13371098       7.87391936       5.92510160      -0.00006808       0.00025375       0.00138873
H        8.96304282       2.80367266       6.02588370      -0.00445195      -0.00038319       0.00128983
H       12.39697181       5.22674235       6.84342379      -0.00364383      -0.00231109       0.00498374
H       11.29024378       3.00221838       6.83536009      -0.00540185      -0.00130110       0.00454931
C        8.33085512      13.41456558      10.62978430       0.00740851       0.00262145       0.00248955
C        8.98504571      13.66933028      11.83696851       0.01272485       0.00056236       0.01402362
C        6.99307582      13.02067489      10.66792350       0.01029110       0.00463472       0.01613282
C        9.04688207      13.54513057       9.31704589       0.00831822       0.00529105       0.00680444
C        8.31972566      13.54188991      13.05033115       0.01667152      -0.00505577       0.00092550
C        6.32379168      12.88080298      11.87581284       0.01260333      -0.00100033       0.00178924
C        6.98444460      13.15024698      13.06728145       0.01821507      -0.00527268       0.01751310
H       10.02733455      13.96685983      11.84530839       0.01282729       0.00082428       0.00452913
H        6.45817399      12.84919288       9.74171547       0.00653710       0.00705533       0.00808225
H        8.34745417      13.76170368       8.50800162       0.00599030       0.00279993       0.00662537
H        9.79309858      14.33940304       9.34617768       0.00599702       0.00685780       0.00497495
H        9.56793783      12.62157760       9.04796283       0.01008287       0.00630406       0.00670314
H        8.87017687      13.73810392      13.96295102       0.02017987      -0.00782638       0.00881866
H        5.27974428      12.59102888      11.88010757       0.01361071      -0.00091311       0.01305213
H        6.44962848      13.05459204      14.00306744       0.02104045      -0.01315255       0.00948678
C        2.00730601      10.40498285       1.82009564      -0.00341488      -0.00647862       0.00042216
C        2.76619023      10.92196345       0.76415306      -0.00780804      -0.00476891      -0.00934421
C        2.16296452       9.05487065       2.13199777       0.00931668      -0.00397804      -0.00139584
C        1.04641719      11.26698723       2.57579280      -0.00108990      -0.00755608       0.00175792
C        3.65962568      10.12000739       0.06623844      -0.01181145      -0.00009502      -0.00720137
C        3.04298982       8.24144902       1.42524343       0.00553692      -0.00114867       0.00188014
C        3.80411560       8.77407707       0.39343354       0.00264062       0.00111726      -0.00961918
H        2.62247902      11.95633266       0.47423295      -0.01927451      -0.00594851      -0.00988839
H        1.57073644       8.63606137       2.93766096       0.01249278      -0.00604466       0.00511642
H        0.61413240      10.72937935       3.42008658      -0.01834356      -0.01819937      -0.01329242
H        1.53388222      12.16828511       2.95317711       0.00694706      -0.02266866       0.02720962
H        0.24682162      11.65100030       1.93873757       0.01284733       0.01527679      -0.00188169
H        4.24851244      10.54130402      -0.73985462      -0.01647356       0.00043050      -0.01538602
H        3.12858885       7.19199132       1.68315710       0.01547227       0.00026082       0.00016787
H        4.49657318       8.14771545      -0.15507787      -0.00037643       0.00365353      -0.00852330
C        6.00508129       8.12013469       7.80143495      -0.00408794       0.00286224       0.00037652
C        5.13754931       8.76905502       6.92218036      -0.00383763       0.00378701       0.00462812
C        6.90003086       8.89594895       8.54036913       0.00077774       0.00271182      -0.00015610
C        5.98247046       6.62804886       7.94290106      -0.00372979       0.00306275       0.00195909
C        5.15382769      10.15285407       6.78864920      -0.00497677       0.00332733       0.00293561
C        6.91759770      10.27926865       8.41734470      -0.00016976       0.00215326      -0.00201887
C        6.03962812      10.91341252       7.54273734       0.00013453       0.00330167       0.00249746
H        4.43351287       8.17843711       6.35056514      -0.00736248       0.00422253       0.00551282
H        7.57899453       8.40664104       9.23033134       0.00097971       0.00181796      -0.00286308
H        6.22005829       6.31906791       8.96169222      -0.00435444       0.00316703       0.00191513
H        5.00677412       6.22433580       7.67481262      -0.00413519       0.00347441       0.00169959
H        6.72202215       6.15969161       7.28536452      -0.00395964       0.00244483       0.00218813
H        4.45426914      10.63352959       6.11242087      -0.00538798       0.00428881       0.00626712
H        7.60649824      10.86151477       9.01596266       0.00330175       0.00198557      -0.00274545
H        6.02587091      11.99699946       7.48111404      -0.00053577       0.00298092       0.00150493
C        8.71123773       6.67761898      11.99646743      -0.00668410       0.00491393       0.00297455
C        7.38313966       6.25301173      12.05677725       0.00180519       0.00304119       0.00391217
C        9.71742024       5.71025406      12.04210216       0.00340140       0.00967436       0.00272416
C        9.05836722       8.13276928      11.90418301      -0.00676739       0.00637189       0.00112539
C        7.06465296       4.90421591      12.17022371      -0.00030802      -0.00148436       0.00486474
C        9.40465407       4.36205232      12.14911769       0.00046287       0.00542539       0.00391348
C        8.07763296       3.95366542      12.21874475       0.01001329       0.00436062       0.00401770
H        6.59064908       6.99254348      12.00885930      -0.00435120      -0.00147499       0.00466899
H       10.75509278       6.02306498      12.00436127      -0.00193505       0.01140824       0.00219623
H        9.92713428       8.29364515      11.26653095      -0.01514260       0.00944060      -0.00840443
H        8.22336541       8.71817911      11.51887000      -0.01345348       0.00466025       0.01125551
H        9.31454089       8.54102362      12.88439118       0.00296131       0.00538624      -0.00114560
H        6.02762054       4.59196785      12.20371715       0.00487335      -0.00285327       0.00546513
H       10.19729126       3.62510635      12.18401316       0.00752980       0.00984178       0.00373987
H        7.84118916       2.90058067      12.30738627       0.00884788       0.00167258       0.00469324
C        7.98266981      10.65817584       2.21386755      -0.00705045      -0.00996305      -0.00106785
C        8.97260282      11.61247125       2.45507441       0.01249582       0.01188575      -0.01167623
C        8.38697804       9.38986645       1.79986814       0.00467010       0.00618513       0.01460127
C        6.52047801      10.96038025       2.40644287       0.00067484       0.00341624       0.01209266
C       10.32554464      11.31749751       2.34688256      -0.00948457      -0.00703622      -0.02053306
C        9.73639048       9.08434370       1.66293041      -0.01610799      -0.01392716       0.00378914
C       10.70337703      10.03895615       1.95339462       0.00842318       0.01099338      -0.00406384
H        8.70779479      12.63843557       2.69779402       0.00324097       0.00655609      -0.02503069
H        7.63665702       8.64127601       1.56891828      -0.00731844      -0.00762486       0.02181110
H        5.88920483      10.16864535       2.00409081      -0.00281562       0.01786691      -0.01779637
H        6.26014445      11.03984381       3.47058587       0.00047251      -0.03529720       0.01440039
H        6.22100995      11.88301506       1.89962616       0.00522930       0.02096257       0.04474641
H       11.06792356      12.08557652       2.54225603       0.00470400       0.00796440      -0.02804214
H       10.03491436       8.09811235       1.32908205      -0.00583272      -0.00496309       0.01430076
H       11.75389410       9.79647191       1.84833997      -0.00471088      -0.00260388      -0.01192659
C       11.89690199      12.09869004       6.33530644       0.00078088      -0.00479528      -0.00428560
C       11.17004907      10.94184742       6.61926729       0.00758261       0.00542383      -0.00582580
C       11.20151255      13.21592025       5.87877771       0.00332437       0.00639340      -0.00423302
C       13.38771514      12.13006716       6.49378409       0.00298855       0.00282792      -0.01060739
C        9.79077361      10.90462021       6.46848940       0.00001600      -0.00397167       0.00105261
C        9.82136089      13.18931772       5.73379356      -0.00421414      -0.00392337       0.00405524
C        9.10873658      12.03486668       6.03276964       0.00437999       0.00785376       0.00241777
H       11.69742481      10.06094230       6.96874064       0.00499305      -0.00022358      -0.00687874
H       11.74408460      14.11179861       5.60761790      -0.00077495       0.00002904      -0.00354068
H       13.72453552      13.10199134       6.86047533       0.00259410      -0.00075188      -0.00391336
H       13.72501193      11.37088115       7.19968843       0.00560479      -0.00345416      -0.01695503
H       13.87909736      11.94884634       5.53434952      -0.00011460       0.01007732      -0.01341230
H        9.23864901      10.00424832       6.70505584       0.00492408       0.00189978       0.00004683
H        9.33580428      14.10212350       5.39723673      -0.00159598       0.00363117       0.00658626
H        8.02737956      11.97805921       5.96806126      -0.00026112       0.00157663       0.01045172
C        3.03176110       2.24228819      10.33348203      -0.00695251       0.00266932       0.00341202
C        4.11002858       1.79320250      11.09592634      -0.00456576       0.00286169       0.00720775
C        3.30466671       2.97327710       9.17591382      -0.00546393      -0.00052980       0.00524560
C        1.62022221       1.97254127      10.76517088      -0.00587094       0.00130650       0.00526603
C        5.41743486       2.07166017      10.71937231      -0.00705489       0.00467366       0.00461839
C        4.61243276       3.25144055       8.79407828      -0.00795209       0.00137122       0.00263487
C        5.67609578       2.80231893       9.56666233      -0.00500444       0.00142262       0.00647484
H        3.92093834       1.22118495      11.99796468      -0.00573034       0.00504712       0.00674061
H        2.48032484       3.33869741       8.57278392      -0.00684856      -0.00120811       0.00306039
H        0.95809281       1.85744645       9.90618221      -0.00549960      -0.00300721       0.00460376
H        1.55072556       1.07598706      11.37925730      -0.00551357       0.00425416       0.00830279
H        1.23255782       2.79990160      11.36479257      -0.00760330       0.00312519       0.00122027
H        6.23558382       1.70429062      11.32257268      -0.00521359       0.00516373       0.00704985
H        4.79985137       3.82695036       7.89643350      -0.00685191      -0.00110170       0.00328022
H        6.69704726       3.02734274       9.28233373      -0.00674046       0.00255956       0.00447100
