200
Lattice="14.280710816670062 0.0 0.0 0.0 14.280710816670062 0.0 0.0 0.0 14.280710816670062" Properties=species:S:1:pos:R:3:forces:R:3 energy=-757198.125 stress="0.0012150161201134324 0.000675674673402682 0.00039039789407979697 0.000675674673402682 -0.000787298777140677 0.00045229516399558634 0.00039039789407979697 0.00045229516399558634 -0.0001221946586156264" pbc="T T T"
Sm       8.52647718      15.02476817      12.31060468      -0.01124737       0.00173140      -0.01033479
Sm       5.72811886      13.05912540       9.35600866      -0.00499080      -0.01161034      -0.00746378
P        5.93416262      13.73174882      12.12054839      -0.01197293       0.00182062      -0.00808221
O        6.35324552      15.09784927      12.71371796      -0.01372841       0.00688446      -0.01667705
O        7.16327325      13.50454113      11.06539542      -0.00990826      -0.00265357      -0.00394389
O        4.77304584      13.85753764      11.04250934      -0.01113814      -0.00944725      -0.00952807
O        5.71697039      12.61927118      13.05775614      -0.00995499       0.00847220       0.00031704
H       10.39637795      15.71045598      15.15737886      -0.01235388       0.00876655      -0.01131287
P        9.43868115      13.64177611       0.56002949       0.01131910       0.00181758      -0.01812631
O        8.07968503      13.89454042       1.38484841       0.01675929      -0.02409285      -0.00204504
O       10.39867229      12.80487026       1.26306069       0.03301716       0.01254797      -0.03482047
O        9.86385202      15.17147036       0.21112515      -0.01244305       0.00969657      -0.01230603
O        8.98905236      13.27228108      -0.87421889       0.00189102       0.00233996      -0.01472303
H        8.09978196      13.41092834       2.21722848       0.03915428      -0.02389097      -0.00254020
P       12.65463437      14.26814153       4.91806729      -0.00813162       0.02279419       0.02665352
O       12.80105313      12.64751368       4.88579741      -0.00469267       0.02247930       0.02843198
O       13.96228227      14.84351209       5.43605573      -0.00657630       0.02607846       0.01872516
O       11.47660867      14.58201864       5.84828214      -0.00504136       0.01945424       0.03148222
O       12.31178885      14.67823446       3.50425854      -0.01686060       0.01798007       0.02741265
H       13.42433085      12.34787567       5.55842434       0.00309423       0.02613947       0.02294028
O       10.13577682       2.81701388       3.69829732      -0.00308245       0.01085576      -0.00205268
O       12.23477897       3.21860848       3.59173948      -0.00415832       0.01564749      -0.01385012
O       11.18774937       2.54754615       1.70447101      -0.01072934      -0.00131893      -0.00385666
C        8.84587725       2.55258949       3.10831383      -0.00376815      -0.00480101       0.00613654
C        7.96564216       1.95354984       4.17318178       0.00657180       0.00019367       0.01693028
C       11.19245550       2.80850591       2.90494145      -0.00645816       0.00744990      -0.00592476
C       13.53243747       2.96623340       3.02622923      -0.00579029       0.00567595      -0.01294952
H        8.44462739       3.50592552       2.75985019      -0.01175964      -0.01009279       0.00035581
H        8.95576319       1.87074100       2.27126644      -0.00287845      -0.01335207       0.01279166
H        6.98244056       1.74826978       3.74605820       0.00541961      -0.00775689       0.02377943
H        8.40240643       1.02460115       4.54040388       0.01136869       0.00440454       0.02124349
H        7.84216790       2.64229253       5.00877643       0.01253966       0.00737935       0.01193967
H       13.49272053       2.08017402       2.39938602      -0.00791334      -0.00008520      -0.00452104
H       14.17662625       2.76437007       3.87788226      -0.00465471       0.01331363      -0.01212552
H       13.85857480       3.84914945       2.47370360      -0.00407416      -0.00110921      -0.02203344
O        5.39063372       6.32899594       3.18578590       0.00219370       0.00340465       0.00041917
O        7.00734854       6.38258893       1.76169447       0.00404653       0.00278966       0.00283581
O        7.42281000       5.57193194       3.83738512       0.00094587       0.00125930       0.00322556
C        4.89421011       6.14714838       4.53097039      -0.00007075       0.00386047      -0.00042030
C        3.51592067       6.75369983       4.56838335       0.00062338       0.00571701      -0.00251292
C        6.68229916       6.04841362       3.01076708       0.00199485       0.00259003       0.00187117
C        8.40440579       6.23665054       1.44006039       0.00396140       0.00012539       0.00345972
H        4.89144285       5.08299520       4.77046897      -0.00194447       0.00397891      -0.00029336
H        5.58039915       6.63531441       5.22287550      -0.00054106       0.00295171       0.00072941
H        3.12504999       6.69587509       5.58351895      -0.00060201       0.00685560      -0.00297418
H        3.54339731       7.79981546       4.26183978       0.00235084       0.00540575      -0.00367478
H        2.83758193       6.22148558       3.90013082       0.00065222       0.00607820      -0.00284095
H        9.01199006       6.82228874       2.12582927       0.00459257       0.00003728       0.00307316
H        8.50191296       6.59996935       0.42133423       0.00486832      -0.00123966       0.00309601
H        8.69880152       5.19052039       1.48922896       0.00234804      -0.00030580       0.00485945
O        8.71247136       4.25437683      13.31673544       0.00162601      -0.00054204       0.00097466
O       10.82121780       4.61818012      13.15871924       0.00252467      -0.00870234      -0.00878057
O        9.97944782       2.71037779      12.26692425      -0.01150621       0.00158238      -0.01752132
C        7.58330276       3.36242355      13.20058455      -0.00423589       0.00711083      -0.00327440
C        6.32003634       4.10713948      13.52398849       0.00239381       0.01057565       0.01320265
C        9.85801889       3.78291068      12.87424785      -0.00323899      -0.00210631      -0.00920492
C       12.17776270       4.16891946      12.95272094      -0.00067210      -0.01469520      -0.01733378
H        7.52234203       3.00709090      12.16421990      -0.01110428       0.01789292      -0.00640185
H        7.74768930       2.52379520      13.89739621      -0.00636756      -0.00005743      -0.01192892
H        5.49052687       3.40544362      13.43933649      -0.00306484       0.01816525       0.00611464
H        6.34343909       4.52007240      14.52970457       0.00905440      -0.00609234       0.01954263
H        6.18044844       4.91966358      12.81355324       0.00558486       0.02320890       0.02741069
H       12.41149891       3.41502411      13.70211096      -0.00138945      -0.01911643      -0.02158397
H       12.78271108       5.05745149      13.09391960       0.00546160      -0.01868668      -0.01573343
H       12.30156246       3.77589126      11.94744114      -0.00862264      -0.01286036      -0.01920645
O       10.34478247       8.28111422       5.81157702       0.00297703       0.00167829       0.00015045
O       10.43054940      10.43980655       5.86161624       0.00489572       0.00157762       0.00198158
O        8.40014414       9.44012332       5.83630950       0.00360918       0.00421515       0.00156807
C        9.58023005       7.06194585       5.60267874       0.00147450       0.00191996       0.00396142
C       10.54971547       5.93415543       5.38778103      -0.00112492      -0.00051898       0.00562479
C        9.61280983       9.39021438       5.83358804       0.00444925       0.00244379       0.00119471
C        9.77576839      11.72132472       5.79973816       0.00633891       0.00246879       0.00183105
H        8.93575119       6.90486160       6.47134674       0.00270253       0.00543305       0.00540543
H        8.93951675       7.20891065       4.73698360       0.00049621       0.00083774       0.00441700
H        9.99880708       5.01156834       5.20748365      -0.00428171       0.00084485       0.00741228
H       11.17625048       6.13193070       4.51973501       0.00128201      -0.00152650       0.00700700
H       11.19560642       5.78811933       6.25402621      -0.00319684      -0.00245102       0.00663216
H        9.17142843      11.77727662       4.89445071       0.00489056       0.00183087       0.00229731
H       10.56981899      12.46129004       5.77596804       0.00766453       0.00109702       0.00369674
H        9.12783168      11.85157771       6.66798628       0.00812314       0.00414207       0.00265563
O        3.06549893       8.94796732       1.41007922       0.00132725      -0.00046268      -0.00868177
O        3.42460222      10.89749090       2.27826385      -0.00412902      -0.00214684      -0.00503504
O        5.20836908       9.61396203       1.73321156       0.00113809       0.00020128      -0.00420207
C        3.57095072       7.76151589       0.75789775       0.00134838      -0.00310931      -0.00255926
C        2.40992485       6.82045555       0.57392364       0.00110641      -0.00284851       0.00024025
C        4.01988347       9.80290104       1.79899665      -0.00218272      -0.00061297      -0.00688086
C        4.34080137      11.92338059       2.68706153      -0.00149822       0.00018200      -0.01142216
H        4.00229569       8.06149093      -0.19963542       0.00274506      -0.00777316      -0.00330526
H        4.36265726       7.32923545       1.36444101       0.00029567      -0.00064385       0.00058812
H        2.74119682       5.92524099       0.04745815       0.00145800      -0.00283727       0.00051454
H        2.00248683       6.51606638       1.53747089       0.00166781      -0.00093268       0.00124851
H        1.61121528       7.28649297      -0.00443382       0.00096144      -0.00335613       0.00002305
H        5.02245477      11.53700997       3.44436463      -0.00068361       0.00229955      -0.01026025
H        3.71753878      12.70822324       3.10528846       0.00106803       0.00354448      -0.01370582
H        4.90525940      12.28498909       1.82791448       0.00124611      -0.00141121      -0.01154742
O        6.47664956       9.86970606      10.68481852       0.01001330      -0.00885224       0.00533605
O        8.57705208       9.80036517      10.17609207       0.00862369      -0.00840098       0.00048614
O        7.30071067      11.39648808       9.23641775       0.00657228      -0.00671536       0.00523344
C        5.19827344      10.56845403      10.65262070       0.00998661      -0.00848043       0.00786930
C        4.14789228       9.70318057      11.30126608       0.01189360      -0.00603747       0.01396352
C        7.44912726      10.41870692       9.98905442       0.00851397      -0.00792471       0.00400656
C        9.74304514      10.38938576       9.53679703       0.00680315      -0.01031166      -0.00427300
H        5.31677464      11.47469466      11.26409515       0.01238652      -0.00676566       0.00451335
H        4.91936386      10.75463754       9.59849092       0.00651191      -0.01146802       0.00823919
H        3.21152017      10.26267531      11.33207555       0.01228416      -0.00560062       0.01640519
H        3.98595086       8.78604792      10.73943539       0.00925095      -0.00743192       0.01702091
H        4.43772109       9.46870019      12.32255674       0.01530790      -0.00329812       0.01362628
H        9.58814005      10.45786940       8.46382794       0.00382408      -0.01374135      -0.00419518
H       10.56070868       9.71990697       9.76893421       0.00750791      -0.00934340      -0.00469270
H        9.92285735      11.37552459       9.95839031       0.00823600      -0.00898519      -0.00805289
O        4.97354615      10.87046079       7.32173776      -0.00331742       0.01493850      -0.00404960
O        3.81982624      12.72582794       7.32057991      -0.00223786       0.00522140      -0.00395942
O        3.38916748      11.16288368       5.72706061       0.01973262       0.01980617       0.01424277
C        5.20637556       9.51438498       6.74260410       0.00894542       0.01770052      -0.00013757
C        5.99263609       8.67907404       7.70635643       0.00263795       0.00954524       0.00016034
C        3.99893238      11.53210175       6.68349987       0.00128567       0.00844505      -0.00669312
C        2.69666354      13.47819710       6.70962372       0.00151408       0.00865202       0.00312805
H        4.22187658       9.09684974       6.54481008       0.01133355       0.01653627      -0.00960474
H        5.73366812       9.66114258       5.80244094       0.01624186       0.01981024       0.00370520
H        6.03722523       7.66276328       7.31120692       0.00222118       0.01086761      -0.00487569
H        7.01332193       9.03934980       7.80302432       0.00278798       0.00592905       0.00623103
H        5.50739256       8.61970496       8.67913178      -0.00282860       0.00588631      -0.00333561
H        2.88593394      13.59315204       5.64822788      -0.00242226       0.00687898       0.00157553
H        2.67762394      14.43786288       7.20420612       0.00170767       0.01282984      -0.00053357
H        1.77261652      12.92904358       6.86406299      -0.00049184       0.01163994       0.00644563
O       10.90694498       8.04538266      11.79154978      -0.00289732       0.00356932      -0.00027755
O       10.31340922       6.67955516      10.23947570      -0.00856158       0.00292666       0.00250836
O        8.83815128       7.11418685      11.90778207       0.00142467      -0.00412798       0.01326391
C       10.64167366       8.86826173      12.96624881       0.00120366       0.00246069       0.00138865
C       11.80482475       9.81395810      13.10031189       0.00026304       0.00429973      -0.00364437
C        9.91024504       7.27189878      11.38127154      -0.00281537       0.00043895       0.00579619
C        9.29541673       5.94671257       9.55508992      -0.00953756      -0.00430907       0.01178121
H        9.69417961       9.38584351      12.80983510      -0.00033715       0.00091365       0.00590721
H       10.53619066       8.20808489      13.83055604       0.00606115       0.00173637       0.00149414
H       11.64993594      10.49272281      13.93810279       0.00231657       0.00531723      -0.00398025
H       12.73034117       9.26927071      13.28555726       0.00174715       0.00568923      -0.00673791
H       11.92066953      10.40223226      12.18949056      -0.00399191       0.00352324      -0.00462933
H        8.83364948       5.21019619      10.21387693       0.00391681      -0.00959967       0.01510026
H        9.79571117       5.46347450       8.71977088      -0.01485227       0.00097556       0.00564972
H        8.52287955       6.62555024       9.19066600      -0.01906736      -0.01009034       0.02178703
O       10.59460723       8.68164961       2.65911368      -0.00389713       0.00684566      -0.00189057
O       12.45667385       7.62028039       3.01551754      -0.00873187      -0.00055066       0.00112331
O       12.54180377       9.64639985       2.01189608       0.00075138      -0.00093389       0.00279987
C        9.91377151       9.92573967       2.30793398      -0.00033438       0.00747028      -0.00551838
C        8.43105648       9.67484806       2.34673666      -0.00075608       0.00988933      -0.00322929
C       11.92048930       8.75020291       2.51472113      -0.00280505       0.00229442      -0.00028801
C       13.88993220       7.62778376       3.00466043      -0.00827340      -0.01010156       0.00395133
H       10.24179969      10.68766179       3.01430076       0.00203292       0.00884166      -0.00793603
H       10.25571076      10.24823986       1.32930953      -0.00087461       0.00376260      -0.00702578
H        7.89919310      10.61010284       2.16762311      -0.00061110       0.00867063      -0.01030795
H        8.10992147       8.98282514       1.57042553      -0.00161266       0.00425041       0.00207385
H        8.10817707       9.28887718       3.31436941      -0.00035712       0.01679397      -0.00034711
H       14.26820795       7.85693530       2.01134255      -0.00580338      -0.01070042       0.00481141
H       14.18944716       6.63145297       3.31997491      -0.01891594      -0.01548067      -0.00145969
H       14.26454182       8.37760308       3.70065075       0.00409269      -0.01423025       0.00375673
O       12.62191433      10.06270122       8.22938014       0.00805945      -0.00005454       0.00638168
O       12.30421721      12.14725138       8.65897996       0.01105762      -0.00064200       0.01206442
O       14.03108784      11.57214186       7.30246104       0.01013947       0.00000906       0.01021481
C       13.28037818       9.00257687       7.49071331       0.00428218      -0.00124720       0.00170109
C       12.80635156       7.70318715       8.08271077      -0.00007287       0.00216058       0.00084138
C       13.07337019      11.28971544       7.98943509       0.01092637       0.00042856       0.00887156
C       12.62897955      13.54316042       8.49322003       0.01321584      -0.00065356       0.01884465
H       12.99501470       9.10389877       6.44249561       0.00216447       0.00356538       0.00229204
H       14.35909562       9.13491147       7.57874660       0.00463557      -0.00305953       0.00200418
H       13.26307936       6.87058403       7.54721626      -0.00772081       0.00127272      -0.00555626
H       13.06928228       7.63019468       9.13773632       0.00475250      -0.00590123      -0.00282302
H       11.72545499       7.61393343       7.99075130       0.00158611       0.00545420       0.00460020
H       13.70358636      13.67781347       8.39443229       0.01253805      -0.00174086       0.01279182
H       12.25990159      14.02965117       9.39407804       0.02033029      -0.00585219       0.02404456
H       12.13193756      13.93504980       7.59740688       0.00777856       0.00597873       0.02526203
O        6.92996466       1.15039854       8.83575806      -0.00689921      -0.01824296      -0.00926271
O        4.77324868       1.03577580       8.65392024      -0.00878537      -0.00716323      -0.00226671
O        5.68964752       2.96105816       9.44117914       0.00449979      -0.00855184      -0.01817641
C        8.10458948       1.89194070       9.32359638      -0.00527215      -0.02555656      -0.00248695
C        9.34446118       1.03350263       9.31177242      -0.00832056      -0.03010488      -0.00276673
C        5.77957236       1.85359494       9.00986992      -0.00378971      -0.01008224      -0.01078424
C        3.46379599       1.38809603       9.23217379      -0.00411737       0.00668755       0.00023392
H        8.21410558       2.77433721       8.69463010       0.00101431      -0.02205563       0.00347959
H        7.83680640       2.26147538      10.32371299      -0.01011292      -0.03179910      -0.00143349
H       10.16926683       1.64385646       9.69441986      -0.00837694      -0.03561498       0.00660312
H        9.24155696       0.12302994       9.92697250      -0.01401361      -0.03475273      -0.01108661
H        9.62976100       0.71849416       8.30551527      -0.00349343      -0.02173655      -0.00419769
H        3.62227072       1.87174511      10.18889214       0.00285808       0.00154496       0.00170082
H        2.95425789       0.44125249       9.37622479      -0.01499901       0.01253951      -0.00210733
H        2.93961569       2.03865051       8.54514698       0.00289129       0.01525101       0.00292484
O        3.28344256       5.12077003       9.54891952      -0.00444406      -0.00584306      -0.00859734
O        2.47809174       4.05463117       7.85789507      -0.00828378       0.00091022      -0.01268072
O        4.29921192       5.36780391       7.53697500      -0.00899702      -0.00171036      -0.00836053
C        4.30180557       5.94990695      10.15699327      -0.00390857      -0.00698667      -0.00808352
C        3.90703775       6.15347650      11.59469720      -0.00520518      -0.00831743      -0.00807661
C        3.44199607       4.90065005       8.24762141      -0.00634748      -0.00047624      -0.01139510
C        2.56354428       3.61113655       6.49306883      -0.01247618       0.00275294      -0.01318900
H        5.26253579       5.44222858      10.05927992      -0.00466985      -0.00799087      -0.00818616
H        4.35820659       6.88802050       9.60368119      -0.00393149      -0.00666770      -0.00701168
H        4.67298635       6.73846454      12.10542394      -0.00542438      -0.00855958      -0.00740343
H        2.95747238       6.68370664      11.67254990      -0.00548398      -0.00836933      -0.00784293
H        3.80925332       5.19536490      12.10415315      -0.00509672      -0.00872773      -0.00862732
H        2.40772849       4.44444858       5.81159788      -0.01316006       0.00546390      -0.00902744
H        1.77629822       2.87041587       6.37376811      -0.01353398       0.00318341      -0.01236707
H        3.54471571       3.17195518       6.30272852      -0.01425463       0.00239955      -0.01266674
