197
Lattice="14.465291139621872 0.0 0.0 0.0 14.465291139621872 0.0 0.0 0.0 14.465291139621872" Properties=species:S:1:pos:R:3:forces:R:3 energy=-1105208.125 stress="0.00018623853975441307 0.0004467556864256039 0.0011265903594903648 0.0004467556864256039 -0.00021131553512532264 0.0006740865646861494 0.0011265903594903648 0.0006740865646861494 0.0002578108396846801" pbc="T T T"
Tb       9.26536193      11.59281167       9.81951372       0.00923197      -0.00156410       0.00875387
Tb      15.20616590      13.06211000      -0.21132459      -0.00734477      -0.00027435       0.01143944
O       12.76296534      13.37577431       3.20867991      -0.03184769       0.02666390      -0.02128100
O       13.92675879      11.86328140       0.93272431      -0.01688501       0.01228523       0.01096071
O       13.75936725      14.45941069       0.60281498      -0.01840580       0.00812984      -0.02513415
O       11.19026276      13.02068321       0.82681988      -0.01639318       0.00675085      -0.03682417
Mo      12.76567175      13.19216168       1.50562808      -0.02440476       0.01620645      -0.02057868
O       10.39440456      11.66742839       8.06348989       0.00809658       0.00072575       0.00933447
O        9.36112859      13.61820116       9.41141663       0.00491706      -0.00256315       0.00326061
O        9.52152145      14.05141602       6.47742314       0.00030553      -0.01115239       0.00641286
O       11.91336378      14.25799783       8.03609107      -0.02315092       0.02582389      -0.00157910
Mo      10.38276144      13.51932768       7.85901598      -0.00200337      -0.00683486       0.00285834
O        2.41408404      14.11697832       0.73378067      -0.00786991      -0.00021148       0.01136187
O        3.75301952      12.11350379       2.40293328       0.00365551       0.00274616       0.00598931
O        5.09840303      13.03581930       0.04029422      -0.01031649       0.00115669      -0.00262868
O        2.47094367      11.68707510      -0.25968547      -0.00950318      -0.00261188       0.01504308
Mo       3.57669107      12.71099838       0.78712392      -0.00481683       0.00106306       0.00628671
C        5.27922797       1.38388088      13.39350635       0.01263546      -0.01260686      -0.00216610
C        5.84506806       2.55509250      13.87883103      -0.00308232       0.01501828      -0.00200310
C        3.95914363       1.38253963      12.96023141      -0.00440252       0.00794721      -0.00004717
C        5.09174265       3.71926069      13.93655352       0.01074741      -0.01387385      -0.00318612
C        3.20603972       2.54888724      13.00615177       0.00982939      -0.01987437      -0.00105276
C        3.77270628       3.71602171      13.50034998      -0.00513139       0.00560223      -0.00055683
H        5.83956227       0.46033540      13.40552846       0.00557531       0.00407937      -0.00212892
H        6.86762911       2.55371985      14.23662576       0.00657572       0.00201359      -0.00442032
H        3.51842466       0.45636676      12.60817396       0.00667451      -0.00783476       0.00072017
H        5.52883613       4.62075795      14.34613800       0.00001218       0.00202751      -0.00274932
H        2.17711742       2.55323024      12.66802714       0.00046562      -0.00767829       0.00109431
H        3.17892377       4.62076585      13.54731621       0.00098370      -0.00885749      -0.00099089
C       10.36430136       4.11980139       2.10516531       0.00522000      -0.00333553      -0.00001665
C       10.56468468       5.42828628       2.52868721      -0.00085118      -0.00272180       0.00162034
C        9.07324280       3.64658342       1.89824321       0.00565094      -0.00749439      -0.00105624
C        9.47459779       6.26279986       2.74713865      -0.00255127      -0.00691889       0.00083378
C        7.98205006       4.48027573       2.11468497       0.00394504      -0.01205967      -0.00059160
C        8.18433538       5.78842558       2.54071009      -0.00220844      -0.01113926      -0.00008652
H       11.21309340       3.46893065       1.93640193       0.00689237       0.00013141      -0.00037609
H       11.56813542       5.79998805       2.69635875      -0.00162803       0.00019246       0.00321308
H        8.91571586       2.62489328       1.57469422       0.01032625      -0.00786243      -0.00219825
H        9.63415599       7.28236490       3.07423797      -0.00706934      -0.00628132       0.00107167
H        6.97470793       4.10889335       1.97223724       0.00447340      -0.01556609      -0.00058146
H        7.33684860       6.43821235       2.71869770      -0.00376242      -0.01435368      -0.00042459
C       13.34516662       6.24817539       7.17168511       0.00093353       0.00656125       0.00349575
C       12.05334232       5.75554761       7.04452974       0.00120419       0.00735828      -0.00466253
C       13.56681307       7.62195974       7.19499510       0.00215250       0.00558584       0.00839026
C       10.98181940       6.63511256       6.93832355       0.00227381       0.00952441      -0.00691215
C       12.49629342       8.50357683       7.09176029       0.00325285       0.00767951       0.00530903
C       11.20252707       8.00728902       6.95950051       0.00345877       0.00843614      -0.00179775
H       14.17998651       5.56260960       7.23394781      -0.00002401       0.00530990       0.00601334
H       11.87649105       4.68836066       7.02719036       0.00036755       0.00798081      -0.00898762
H       14.57858095       8.00150499       7.28209781       0.00190249       0.00498899       0.01444603
H        9.97872336       6.23969858       6.84650067       0.00241192       0.01025169      -0.01266083
H       12.66044582       9.57436097       7.10609483       0.00419141       0.00695911       0.00823476
H       10.37327295       8.69648982       6.85432118       0.00460531       0.00998597      -0.00373786
C        5.29388139       9.48570328       1.46461957      -0.00236446      -0.00290358       0.00267710
C        6.30642029       8.65190721       1.00576710      -0.00004999      -0.00946704       0.00114547
C        3.96437890       9.17535950       1.20120253       0.00036235      -0.00436503      -0.00321741
C        5.98906237       7.52277195       0.25977922      -0.00306939      -0.00327373       0.00214496
C        3.64841548       8.05188934       0.44865193      -0.00295991       0.00204007      -0.00196596
C        4.66101110       7.23155443      -0.03203049      -0.00047478      -0.00446902      -0.00367026
H        5.52681772      10.37761561       2.03015026       0.00000118      -0.00680412       0.00233327
H        7.34101855       8.88433041       1.23150284      -0.00162213      -0.00905082       0.00532077
H        3.18075122       9.82163709       1.57145163      -0.00089879      -0.00031638      -0.00267250
H        6.77868864       6.86923505      -0.09171550      -0.00226840      -0.00717455       0.00153879
H        2.61260172       7.82168935       0.23085936      -0.00120458       0.00156130      -0.00630234
H        4.41718222       6.37268189      -0.64046745      -0.00270564      -0.00063644      -0.00330440
C        7.04788647       9.73667703      12.20622315       0.00322649      -0.00057290       0.00641159
C        5.70624571      10.08642722      12.09494136       0.00378218       0.00125463       0.00061481
C        8.02732357      10.72281684      12.17145634       0.00388120      -0.00069436       0.00923094
C        5.34473064      11.40965283      11.89850414       0.00575905       0.00087998       0.00022870
C        7.66049508      12.06333079      11.96981740       0.00579463      -0.00119346       0.00572698
C        6.32064926      12.39689966      11.80895135       0.00634600       0.00091591       0.00215701
H        7.32441144       8.70260224      12.36497793       0.00154605      -0.00028478       0.00876682
H        4.94218964       9.32605542      12.19530521       0.00296292       0.00135069      -0.00294146
H        9.06276745      10.45707930      12.38712040       0.00267528      -0.00142037       0.01412418
H        4.29708122      11.67794473      11.85399945       0.00609601       0.00254939      -0.00198146
H        8.40084849      12.86389172      12.01258885       0.00611411      -0.00157379       0.00361499
H        6.03553631      13.43098017      11.67183581       0.00786161       0.00069766       0.00100529
C        4.86472770      10.21858725       8.60408734       0.00829595       0.00784668      -0.00248908
C        5.65639272      11.31849671       8.30203434       0.01206589       0.00534984      -0.00078407
C        5.44574455       8.97529846       8.82386752       0.00356346       0.00636381      -0.00039587
C        7.03810639      11.17156946       8.19470436       0.01220408       0.00126501       0.00323585
C        6.82201601       8.82082510       8.73259434       0.00392676       0.00214520       0.00394186
C        7.62009010       9.91365340       8.40384306       0.00759681       0.00002468       0.00612841
H        3.78813510      10.33165654       8.64613758       0.00815786       0.01097803      -0.00570238
H        5.19226458      12.27720558       8.11005913       0.01565512       0.00660035      -0.00299255
H        4.82626477       8.11557766       9.04531017       0.00071555       0.00809875      -0.00207827
H        7.63103706      12.01866175       7.84114029       0.01512761      -0.00069614       0.00391718
H        7.27019312       7.84444973       8.87151330       0.00026984       0.00105939       0.00573491
H        8.68118092       9.75335241       8.19951181       0.00829053      -0.00299158       0.01013609
C       11.14256496       7.51164265      13.11065059      -0.00264735      -0.00170949       0.00616199
C       12.05952140       6.51775424      12.78544159      -0.00174056       0.00116952       0.00051208
C        9.81023711       7.18005803      13.33465676      -0.00178121      -0.00452692       0.00753725
C       11.64367927       5.19508864      12.68428896       0.00004791       0.00056747      -0.00381049
C        9.39432120       5.85804916      13.22647972       0.00018877      -0.00497859       0.00330029
C       10.31099886       4.86569351      12.90263932       0.00100599      -0.00209640      -0.00231936
H       11.47240532       8.53959947      13.20372026      -0.00404050      -0.00152649       0.00972268
H       13.09874053       6.77400124      12.61974184      -0.00257972       0.00328001      -0.00057279
H        9.10041239       7.94856058      13.61630870      -0.00243738      -0.00688995       0.01192256
H       12.35966466       4.41996115      12.43994256       0.00079169       0.00284060      -0.00819670
H        8.36148721       5.59197652      13.41398106       0.00095269      -0.00727440       0.00451854
H        9.98567685       3.83567078      12.83024065       0.00250854      -0.00244364      -0.00566295
C       10.32799132      11.19194305       3.61245735       0.00063658       0.00862688       0.00362693
C        9.72020125      10.91415339       2.39387857       0.00067100       0.00677565       0.00398081
C       11.43881460      10.45783834       4.01487706      -0.00229688       0.00653187       0.00707826
C       10.22944558       9.91071372       1.57674206      -0.00174069       0.00153361       0.00779134
C       11.94424450       9.45044738       3.20049761      -0.00492954       0.00205946       0.01073885
C       11.34264818       9.18141073       1.97540261      -0.00498407      -0.00039080       0.01142751
H        9.96713786      12.00276981       4.23317430       0.00220534       0.01178575       0.00085554
H        8.87676127      11.50486979       2.06214970       0.00350980       0.00841384       0.00084902
H       11.92573260      10.69609060       4.95169094      -0.00214842       0.00711391       0.00687359
H        9.77287180       9.72013336       0.61268785      -0.00193737      -0.00064301       0.00839384
H       12.81739977       8.88941950       3.51114276      -0.00762512      -0.00029165       0.01325570
H       11.74377609       8.40974664       1.32952212      -0.00679208      -0.00443546       0.01468652
C        9.11774596       2.79907339       7.30904649       0.00668969      -0.00357229      -0.00341488
C        8.08840427       3.73305657       7.25754017       0.00652798      -0.00229284      -0.00292554
C       10.04971175       2.85686857       8.33954623       0.00663394      -0.00216720      -0.00263107
C        7.98987344       4.72599690       8.22537243       0.00702895      -0.00306335      -0.00423678
C        9.95330145       3.85065187       9.30784311       0.00701956      -0.00308880      -0.00390719
C        8.92791353       4.78719209       9.25030021       0.00676789      -0.00195397      -0.00322589
H        9.19043869       2.02124753       6.55940122       0.00624409      -0.00332397      -0.00247386
H        7.35939834       3.67921682       6.45996980       0.00672223      -0.00300299      -0.00337303
H       10.85582077       2.13249367       8.38188122       0.00681892      -0.00290868      -0.00300210
H        7.17755931       5.44210176       8.18682801       0.00711982      -0.00212508      -0.00403110
H       10.68389907       3.90495590      10.10481324       0.00689337      -0.00236256      -0.00334519
H        8.86667196       5.56406369      10.00364745       0.00685818      -0.00246390      -0.00381722
C        5.22572398       3.76713354      10.23294720      -0.00186978       0.00386211      -0.00562113
C        3.90074514       3.83949512       9.82474535      -0.00256455       0.00341250      -0.00421986
C        5.82173461       4.86248620      10.84598015      -0.00231178       0.00507729      -0.00592101
C        3.16938641       5.00634090      10.02591290      -0.00308363       0.00211962      -0.00374570
C        5.09738154       6.03070370      11.04285961      -0.00304627       0.00364964      -0.00525649
C        3.76788080       6.10171123      10.63766814      -0.00361511       0.00323445      -0.00393635
H        5.79529957       2.85926507      10.08300209      -0.00137318       0.00474587      -0.00604414
H        3.43106061       2.97921517       9.36339817      -0.00215010       0.00262751      -0.00389838
H        6.85064284       4.79699557      11.17382460      -0.00180601       0.00559340      -0.00707274
H        2.13396331       5.05840846       9.71174349      -0.00351650       0.00167533      -0.00273903
H        5.56112976       6.88304985      11.52517623      -0.00339853       0.00443149      -0.00542516
H        3.19869699       7.00801969      10.80801880      -0.00411137       0.00239824      -0.00348081
C        0.81618039       4.98753134       4.04382489      -0.00795551      -0.00549336      -0.01074237
C        1.44259291       5.96046060       4.81510010      -0.00839928      -0.00845127      -0.00975546
C        0.92583684       3.64292484       4.38372114      -0.00878625      -0.00771281      -0.01437289
C        2.17822762       5.59211105       5.93512820      -0.00740494      -0.00950953      -0.00988566
C        1.65766406       3.27756359       5.50910166      -0.00796031      -0.00855871      -0.01405163
C        2.28192324       4.25027543       6.28303529      -0.00840240      -0.01145417      -0.01312585
H        0.25168775       5.27887455       3.16718419      -0.00841319      -0.00446133      -0.01053920
H        1.35596055       7.00547332       4.54350840      -0.00795732      -0.00714676      -0.00707242
H        0.46717128       2.88072855       3.75787283      -0.00822739      -0.00554618      -0.01564139
H        2.67132037       6.34629425       6.53813900      -0.00731266      -0.01137207      -0.00922813
H        1.75951857       2.23221255       5.77218487      -0.00846507      -0.00975890      -0.01653555
H        2.86762549       3.96594651       7.14817391      -0.00795569      -0.01243083      -0.01311749
C       11.59842019      11.72885094      11.59208211       0.00327009       0.00531500       0.01305339
C       12.77602740      12.37674884      11.97662634      -0.00046873       0.01291852       0.00939039
C       11.66590638      10.50087910      10.93602500       0.00869322       0.00501010       0.01322681
C       14.00143926      11.78001679      11.71299790       0.00306058       0.02012066       0.00791236
C       12.90082720       9.91470071      10.65776924       0.01209839       0.01291168       0.01071542
C       14.06732427      10.55145768      11.05375602       0.00851455       0.01960912       0.00827319
H       10.65500041      12.20050963      11.87772499       0.00111613      -0.00127834       0.01674222
H       12.71231099      13.32255548      12.50785973      -0.00551295       0.01315282       0.00817451
H       10.77310365       9.92388592      10.66609227       0.01133001       0.00027207       0.01576832
H       14.94440492      12.26989704      11.98064407       0.00042848       0.02669133       0.00377274
H       12.93717918       8.96547870      10.13796016       0.01646093       0.01294532       0.01031363
H       15.02755360      10.09232288      10.85643349       0.01108637       0.02517474       0.00667857
C        5.54829153       9.70699039       4.83282353      -0.00109175       0.00346024       0.00260387
C        5.11039152       8.45562350       5.25024788      -0.00753473       0.00434272       0.00071684
C        6.91023385       9.95104978       4.69704440      -0.00304020      -0.00092554       0.00196006
C        6.03092795       7.45494124       5.53895941      -0.00831000       0.00015560      -0.00202940
C        7.83270629       8.94784313       4.97298765      -0.00376870      -0.00506102      -0.00101761
C        7.39255385       7.69911049       5.39835568      -0.01018869      -0.00424883      -0.00285214
H        4.83105691      10.48311940       4.59382158      -0.00016639       0.00641733       0.00449500
H        4.04899512       8.26098678       5.34591198      -0.00668198       0.00789875       0.00137469
H        7.25625722      10.92114578       4.36173993       0.00168162      -0.00150448       0.00366071
H        5.68534732       6.48374546       5.87299990      -0.01290694       0.00081646      -0.00370349
H        8.89060011       9.14369096       4.84461892      -0.00463319      -0.00842685      -0.00177223
H        8.10879660       6.91333169       5.60562902      -0.01142015      -0.00730082      -0.00502943
C        4.54539150       4.54106138       3.51406990       0.00112005      -0.00670862      -0.00184987
C        5.27478813       3.79739309       4.43361611       0.00221715      -0.00492941      -0.00452980
C        3.80217988       3.89020869       2.53887363      -0.00169443      -0.00850232      -0.00191009
C        5.26466428       2.40916026       4.37683640       0.00475989      -0.00507119      -0.00160038
C        3.78967105       2.50072529       2.47306044       0.00108096      -0.00860868       0.00118724
C        4.52225761       1.76082929       3.39347456       0.00210886      -0.00683407      -0.00155681
H        4.55845243       5.62372705       3.55782349      -0.00088989      -0.00664854      -0.00406685
H        5.85568834       4.30645299       5.19124698       0.00423928      -0.00372400      -0.00518683
H        3.23473783       4.46971608       1.82250318      -0.00287073      -0.00979737      -0.00006975
H        5.84023116       1.83355934       5.09193514       0.00595598      -0.00383093      -0.00323907
H        3.22081680       1.98974888       1.70573312      -0.00107372      -0.00983213       0.00176246
H        4.52034230       0.67884336       3.33365166       0.00411725      -0.00698048       0.00061760
C        1.29003487      11.03430090       6.14246691      -0.00157689      -0.00323118       0.00097016
C        2.03629273      11.67585972       5.16092633      -0.00614950      -0.00071599      -0.00079826
C        1.21342319      11.57009668       7.42404974      -0.00194526      -0.00144915       0.00050406
C        2.70385368      12.85846244       5.45822262       0.00400659      -0.00704450       0.00083371
C        1.88293780      12.75270525       7.72207954      -0.00112811      -0.00255122      -0.00050321
C        2.62604082      13.39756240       6.73774377       0.00290801      -0.00547472       0.00096950
H        0.75719379      10.12152466       5.90445704      -0.00581068      -0.00075096      -0.00070603
H        2.10677332      11.27332684       4.15970834      -0.02739787       0.01295895      -0.00860766
H        0.62419002      11.07411851       8.18665529       0.01966470      -0.02369299       0.00069512
H        3.27678774      13.34445599       4.67958916       0.00391671      -0.00794930       0.00052616
H        1.81845798      13.17563578       8.71792619      -0.00102315      -0.00165540      -0.00094630
H        3.14226221      14.32259477       6.96694400       0.00339871      -0.00614873      -0.00014629
