189
Lattice="13.463394019634611 0.0 0.0 0.0 13.463394019634611 0.0 0.0 0.0 13.463394019634611" Properties=species:S:1:pos:R:3:forces:R:3 energy=-786933.9375 stress="-0.0004052269796375185 -0.0003367632016306743 0.0005371424194891006 -0.0003367632016306743 0.00035320076858624816 0.00025032905978150666 0.0005371424194891006 0.00025032905978150666 0.001956328982487321" pbc="T T T"
Tb       8.40411818      12.58773998      11.13884236      -0.00452937      -0.03173156       0.01016980
Tb      10.32708244      12.37377191       5.73766233       0.01153857       0.01240003       0.00727922
P        8.62097202      12.47756656       8.32425989      -0.00193903       0.01248443       0.01849394
O        8.28750772      13.58779662       7.21022693       0.00077522       0.00644076       0.00863805
O        7.38874428      12.15352574       9.18196873       0.00206763      -0.00695296       0.00318331
O        9.59258812      13.13650130       9.34690549      -0.00789016       0.00637496       0.02061010
O        9.26147022      11.33732874       7.57621301       0.01520234       0.00951302       0.01116252
H        7.62673690      13.31660894       6.50313939       0.00145113       0.00645781       0.00993019
P        7.43423105      12.19530988       3.72915737       0.02048813       0.00794119      -0.00171798
O        6.72419719      12.99555914       5.01705378       0.01127172       0.00438607      -0.00212127
O        8.93776226      12.33817588       4.22690576       0.01834506       0.01636363       0.00207397
O        7.21222802      13.03005379       2.49904195       0.01661688       0.00737083      -0.00337052
O        7.02647573      10.76538856       3.72166510       0.02570766       0.00633359      -0.00168389
H        6.03696302      13.59808366       4.67870413       0.00119154      -0.00565626      -0.00225840
P       12.74944588      11.18591036       5.37055580       0.00096858       0.00989447       0.00986773
O       12.53162603      11.05414877       7.02051051       0.01195975       0.01707941       0.01994324
O       12.55367074      12.71452004       5.18251868       0.01192319       0.01618552       0.01113361
O       11.39414630      10.57500092       4.94702368       0.01544845       0.01254988       0.02283758
O       14.01444530      10.56179125       4.92972827       0.01405227       0.00915682       0.01605034
H       13.26926844      11.47167653       7.47798641       0.00984734       0.03424649       0.01742918
O        9.83052158       2.51647143       2.26753468       0.01062962       0.01093856      -0.01615244
C       11.21401022       2.05941612       4.13639884       0.00643238      -0.01814875      -0.02436984
C        9.77782125       2.24145673       4.62872152       0.00959691      -0.01008782      -0.01791984
C       11.15450800       2.72010776       2.76566754       0.00930831       0.00394340      -0.01269090
C        8.98008691       2.05619279       3.34487956       0.00285770       0.02128074      -0.01816130
H       11.96467417       2.52819239       4.77284519       0.01279902      -0.03646322      -0.01848958
H       11.47668636       0.99859319       4.05464711      -0.00569552      -0.01782599      -0.04090655
H        9.46777359       1.52559917       5.40085590       0.00281692      -0.01834308      -0.02998162
H        9.63507715       3.24377554       5.04682948       0.02250966      -0.01611194       0.00014592
H       11.34847590       3.79894445       2.85002206       0.01055932       0.00221658       0.00368685
H       11.86947807       2.29834634       2.05566850       0.00863406       0.01536080      -0.02040699
H        8.72912818       1.00968798       3.17343524      -0.02392042       0.02986223      -0.03117687
H        8.05361881       2.63443296       3.32798850       0.01706299       0.04425800      -0.01058207
O        9.03811812      11.29270375      -0.42105868       0.01051736       0.00048903      -0.00240669
C        9.95734607      10.50778185       1.64915168      -0.01511991       0.00526315       0.00505006
C       10.72834351      11.73717016       1.13162326      -0.00286210       0.00007589       0.01156798
C        8.77435864      10.34857102       0.68844252      -0.00733238       0.00927955      -0.00092634
C        9.71298486      12.40389932       0.22746043       0.01637918       0.00183935      -0.00753343
H       10.60204718       9.63042909       1.67267075      -0.02034770       0.00208181       0.01075293
H        9.59209522      10.66825990       2.66139428      -0.02448270       0.00724298       0.00034148
H       11.06096794      12.39126626       1.93524919      -0.01843188       0.00258435       0.01456487
H       11.60765733      11.44592883       0.55335230       0.00879771      -0.00310068       0.03133364
H        8.68300448       9.36515181       0.22998295      -0.01206091       0.00949878      -0.00062412
H        7.84239420      10.64937728       1.17047271      -0.01030949       0.01790410      -0.01155075
H        8.97134613      12.98709875       0.79120267       0.01628608       0.01636165      -0.02448013
H       10.18519316      13.00243130      -0.57455306       0.02635121      -0.00663243      -0.00794120
O        2.59707222       4.90152387      12.72128235       0.00648211       0.00046906       0.00417072
C        2.05645658       4.29556732      10.50648780       0.00477743       0.00578392       0.00262481
C        3.55821487       4.10812787      10.71103912       0.00523803       0.00695484       0.00142956
C        1.72336225       5.25383092      11.63720750       0.00375456       0.00103179       0.00680473
C        3.64226775       4.05799504      12.23205099       0.00511317       0.00026168       0.00123644
H        1.78834852       4.67783744       9.52324149       0.00388421       0.00955743       0.00416335
H        1.54114225       3.34227577      10.63681638       0.00607604       0.00452164      -0.00111064
H        3.94727097       3.20809540      10.23489205       0.00688921       0.01009713      -0.00281367
H        4.10943565       4.96775823      10.32127494       0.00389865       0.00975883       0.00557423
H        1.91644610       6.29369691      11.34080472       0.00023760       0.00265253       0.00977117
H        0.69181906       5.18139296      11.98951515       0.00433773      -0.00293183       0.00789051
H        3.47518353       3.03307466      12.59491978       0.00320046      -0.00110412      -0.00339985
H        4.59353013       4.41696181      12.63432142       0.00550780      -0.00349651       0.00338013
O        4.82365856       1.32038510       3.84815303      -0.00988260      -0.02179268       0.00173955
C        4.24626049       3.15328188       2.50467944       0.00479834      -0.00659651       0.01321422
C        3.01118278       2.74965210       3.31110584       0.00213486      -0.00589454       0.00917259
C        5.04054298       1.85920037       2.53401006       0.00169417      -0.00872242       0.00835189
C        3.61521385       1.87079850       4.40042965      -0.00189281      -0.00999284       0.00736034
H        4.00594853       3.48850764       1.49644348       0.00780690      -0.00251809       0.01378933
H        4.79733452       3.95220643       3.00767662       0.00586988      -0.00956714       0.01684885
H        2.45326206       3.58693531       3.72295101       0.00301398      -0.00572321       0.01032378
H        2.33170213       2.17444101       2.67993393       0.00231616      -0.00308928       0.00639865
H        4.66068870       1.15266882       1.78760822       0.00546479      -0.00131410      -0.00035748
H        6.11433397       1.95027152       2.38543440       0.00281078      -0.01043972       0.01664397
H        3.87956239       2.46194526       5.28401988       0.00683953      -0.01070419       0.00546542
H        2.95829488       1.05653096       4.71246892      -0.00704902      -0.00402251       0.01154122
O        7.80161076       5.95798176       0.95116792      -0.01602336      -0.01069856       0.00650638
C        7.19444640       6.95780258       3.03779945      -0.00567229       0.00845373       0.00113076
C        8.39954265       6.03058771       3.21125480      -0.00355257       0.01100752       0.00148660
C        6.69801570       6.57134086       1.64250639      -0.01001658       0.00272411       0.00380111
C        8.95331625       6.00296635       1.79817699      -0.01082823       0.00086952      -0.00113362
H        6.42399855       6.82548900       3.79711293      -0.00303023       0.00954418       0.00399971
H        7.50038760       8.00588927       3.07157794      -0.00760613       0.00898698      -0.00326184
H        9.12141463       6.39184423       3.94296453      -0.00007673       0.01637822      -0.00467521
H        8.08141965       5.02512254       3.50243269      -0.00079815       0.01315507       0.01047147
H        5.88895327       5.83388919       1.68339899      -0.01597485       0.00959101       0.00818744
H        6.34361673       7.43599258       1.07226301      -0.00366947       0.00214404      -0.00121698
H        9.53871118       6.91141410       1.59567390      -0.01567745       0.00106239      -0.01283155
H        9.56637241       5.12806964       1.57655866      -0.00927120       0.00100067       0.00247438
O       13.53688035       2.71053866       8.55507111       0.00243637       0.00599930      -0.02214048
C       11.21967589       2.44774081       8.95900825       0.00441080      -0.00842685      -0.01166782
C       11.60517348       1.70426413       7.68183503       0.00810033      -0.01580673      -0.00669450
C       12.41835398       3.36854293       9.16310710       0.00090337      -0.00432433      -0.01212739
C       13.09303375       1.50712864       7.91219351       0.01113212      -0.00112616      -0.01022358
H       10.27260300       2.98393027       8.89390925       0.00296266      -0.01157457      -0.01866267
H       11.15216635       1.72449765       9.77132082      -0.00050522      -0.00401424      -0.00824620
H       11.05592933       0.76059868       7.57220569       0.01564125      -0.02053238       0.00614704
H       11.43031185       2.33308809       6.80962449       0.00092122      -0.02602181      -0.01313141
H       12.27402390       4.33790746       8.67095885      -0.00397097      -0.00123963      -0.00491193
H       12.63559161       3.55558584      10.22047115       0.00369599      -0.01013477      -0.01167351
H       13.26105175       0.64989654       8.57939950       0.02024994       0.00441426      -0.00345221
H       13.67450167       1.36162245       7.00323246       0.00858575      -0.00491070      -0.01071182
O        7.84708013       1.29214446      11.83536377       0.01439204      -0.00833312       0.01684966
C        8.87581178       3.44192252      12.20654075      -0.00745985       0.00691605       0.00130859
C        7.45159267       3.59510182      11.66995536      -0.00769691      -0.01073319      -0.00192040
C        9.13922909       1.93975573      12.15055725       0.00390309       0.00759956       0.02535906
C        6.80857860       2.29006539      12.08348731       0.00378656      -0.01532857       0.00418279
H        9.60618825       4.00981279      11.63245626      -0.01269428       0.00574248      -0.00642188
H        8.92195668       3.78223710      13.23995805      -0.00649972       0.02724823      -0.00586742
H        6.95717051       4.46369729      12.10148234      -0.01566085      -0.01015620      -0.01226793
H        7.44456620       3.68658413      10.58155419      -0.00771384      -0.01723595      -0.00218567
H        9.81984272       1.63725546      11.34881749       0.01660144       0.00196367       0.03966002
H        9.48509965       1.57124354      13.11485743      -0.00646159       0.02415668       0.03529727
H        6.56584415       2.26800263      13.14933473      -0.00488371      -0.00732277       0.00239891
H        5.94015431       1.99749920      11.49635851       0.00800321      -0.02322759       0.00214043
O       12.36860566       7.72570896       7.13282875       0.00122777      -0.00216118      -0.00557175
C       11.47651127       5.76209795       6.11039961       0.00156125      -0.00310874      -0.00612634
C       10.39059457       6.56005874       6.84306567      -0.00006956      -0.00003430      -0.01078698
C       12.76655043       6.54973700       6.43656305       0.00090900      -0.00257015      -0.00732271
C       10.99020334       7.95686376       6.82167881       0.00095141      -0.00102192      -0.00937630
H       11.53295908       4.72232196       6.43266106       0.00102506      -0.00162217      -0.00176112
H       11.29030468       5.76440084       5.03497108       0.00317076      -0.00765542      -0.00644562
H        9.41142927       6.49989826       6.36867405       0.00163908       0.00119718      -0.01486672
H       10.29263493       6.20992439       7.87455443      -0.00536319       0.00055669      -0.01098937
H       13.45014442       5.99397844       7.08383699       0.00275952      -0.00105953      -0.00903225
H       13.30812676       6.82473618       5.52442725      -0.00079840      -0.00039878      -0.00849867
H       10.89757956       8.42817638       5.83707637       0.00514256      -0.00022063      -0.00927186
H       10.58973571       8.65019141       7.56130245       0.00110847      -0.00060430      -0.01015621
O        3.59241152       7.31185782       4.85127702       0.00593367       0.00137176      -0.00543967
C        2.65808768       6.28066948       2.95884681      -0.00187152      -0.00123546      -0.00014699
C        2.10492825       7.69975438       3.05273936       0.00402689       0.00170311      -0.00529352
C        3.10023335       6.05733904       4.39768639      -0.00162052       0.00182533       0.00038493
C        3.10844642       8.36300237       3.98580397       0.00557274       0.00069216      -0.00633001
H        1.93493186       5.54899139       2.60214477      -0.00524762       0.00036280       0.00321698
H        3.51934007       6.25533542       2.28584231      -0.00239041      -0.00766074      -0.00072436
H        2.02726848       8.19675778       2.08871702       0.00725289      -0.00145832      -0.00663915
H        1.11330206       7.70187373       3.51147797       0.00330606       0.00695153      -0.00649725
H        2.24762199       5.74067792       5.01908551      -0.00274724       0.00934168       0.00232157
H        3.89685908       5.31933672       4.51497257      -0.00561529      -0.00128573       0.00261183
H        3.96856845       8.77195141       3.44698482       0.00551152      -0.00011502      -0.00671256
H        2.65514444       9.15357864       4.58645111       0.00657910       0.00206071      -0.00576693
O        6.34287891      11.91256199      11.89888194      -0.02554402       0.00030198       0.00518860
C        4.28284260      11.04816681      11.21812451      -0.01894546      -0.01996243      -0.00134817
C        5.36394610      10.10321222      10.70133268      -0.00719789      -0.01072404       0.00766295
C        5.05335604      12.33743607      11.35401183      -0.03068979      -0.01269022       0.00574327
C        6.55818801      10.49677904      11.54877575      -0.01838900      -0.00045301       0.01854491
H        3.44516296      11.14263517      10.53530409      -0.01115355      -0.02776580      -0.01153935
H        3.92165376      10.72239052      12.19506437      -0.02964155      -0.02415154      -0.00696269
H        5.11465073       9.05118232      10.82580232       0.00098548      -0.01259378       0.00469301
H        5.54931409      10.30730131       9.64888698      -0.00111217      -0.01091962       0.00858393
H        5.23227426      12.80041426      10.37984114      -0.03651345      -0.00807595       0.00788507
H        4.64641669      13.05756823      12.06069377      -0.03990845      -0.01788586       0.00572422
H        6.63782180       9.94392028      12.48291623      -0.02676123       0.00554985       0.02258077
H        7.51005831      10.38760741      10.98952618      -0.01039043      -0.00898497       0.03397390
O        0.85326500      12.16428201       1.39027104      -0.00516403       0.00330354      -0.00722082
C        2.83397214      10.90400404       1.81918811      -0.00556993       0.00547031       0.00368857
C        3.15854509      12.21089707       1.10421601      -0.00391644       0.00943801       0.01120228
C        1.30403786      10.82989280       1.71403708      -0.00564867       0.00389194      -0.00278347
C        1.96099753      13.04626329       1.51794849      -0.00872284       0.00525165       0.00689375
H        3.33653992      10.03995891       1.38471508      -0.00233214       0.00925079       0.00125162
H        3.14546150      10.97546049       2.86130158      -0.01084873       0.00064709       0.00501427
H        4.13054853      12.61421163       1.38679064      -0.00717536       0.01080781       0.02004340
H        3.12377944      12.07535806       0.02190870       0.00448558       0.01432021       0.01063740
H        0.97971095      10.17956682       0.89368221      -0.00177048       0.00241694      -0.00365844
H        0.84173579      10.50656498       2.64936261      -0.00878620       0.00467516      -0.00519210
H        2.06547522      13.38215759       2.55899897      -0.01703634      -0.00151062       0.00928265
H        1.77269213      13.91228909       0.87813691      -0.00619040       0.00833857       0.01072425
O        3.67742206      10.54401547       7.96726986      -0.00927764       0.00072330       0.00466610
C        1.89354958       9.21634217       8.65419197      -0.01941374       0.00623056      -0.01490575
C        2.64513041       8.42456162       7.58368760      -0.00525978      -0.00081474       0.00020069
C        2.28059081      10.62345422       8.23517161      -0.01093036       0.00290823      -0.01764843
C        3.93131593       9.24158270       7.39639992      -0.00491008       0.00043947       0.00497420
H        0.81947476       9.03569236       8.63907806      -0.01941520       0.00742391      -0.02899739
H        2.28798886       9.00189954       9.65357957      -0.03383921       0.01232458      -0.00880182
H        2.85243235       7.38962094       7.85355349      -0.00568133       0.00246713       0.01209076
H        2.05501000       8.42275478       6.66766385       0.00469787      -0.01175585      -0.00620028
H        1.74413455      10.90229416       7.31834769       0.00155854      -0.00291360      -0.02828658
H        2.12759642      11.39290712       8.99636638      -0.02280061       0.00824320      -0.02508983
H        4.77797772       8.80557504       7.93403531      -0.00621334       0.00216764       0.00651440
H        4.22021175       9.35224784       6.35141086      -0.00269592       0.00047556       0.00568128
O        9.84436312       7.43274027      12.00014418       0.01220229      -0.00147048      -0.00192599
C       11.54483850       7.58017283      10.34660208       0.01234728      -0.00831863      -0.00262219
C       11.74842067       8.65561674      11.40943546       0.01919931      -0.01087463      -0.00115252
C       10.09873452       7.17013943      10.60874061       0.00972745      -0.00002762      -0.00234810
C       11.01428472       8.02352880      12.57428054       0.01414967      -0.00561637      -0.00087813
H       11.72559618       7.91276102       9.32837887       0.01298157      -0.00780056      -0.00247806
H       12.21955150       6.74208341      10.54550186       0.00710823      -0.01302633      -0.00507894
H       12.79248771       8.88004391      11.62283060       0.02068500      -0.01885360      -0.00030239
H       11.25133273       9.58480674      11.10869954       0.02665238      -0.00683841      -0.00145396
H        9.39727274       7.76453131      10.01196816       0.01314160       0.00558922      -0.00071633
H        9.90678106       6.11248531      10.40268695       0.00292838       0.00189728      -0.00509386
H       11.63556562       7.24848906      13.04601590       0.01007849      -0.00733548       0.00167802
H       10.69928125       8.72456118      13.34204086       0.01618665      -0.00263330      -0.00220221
