195
Lattice="11.956911816342785 0.0 0.0 0.0 11.956911816342785 0.0 0.0 0.0 11.956911816342785" Properties=species:S:1:pos:R:3:forces:R:3 energy=-108661.3984375 stress="-0.0014898244990035892 -0.0006246761186048388 -0.0003289065061835572 -0.0006246761186048388 -0.0021897300612181425 -2.6521784093347378e-05 -0.0003289065061835572 -2.6521784093347378e-05 -0.0012000099522992969" pbc="T T T"
N        9.20494430       3.74337823       6.51070926      -0.00019088      -0.00589499      -0.00463424
C        7.88289519       4.05075992       5.83242000      -0.00039697      -0.00539647      -0.00444035
C        9.85059831       5.01075652       7.01511985       0.00026584      -0.00608277      -0.00482105
C       10.11628362       3.09814464       5.48171269      -0.00096200      -0.00675261      -0.00445670
C        8.95795025       2.82801365       7.68620554      -0.00078321      -0.00585932      -0.00462794
C        7.93472105       5.17216506       4.82493295      -0.00110339      -0.00335988      -0.00222149
C        8.97917508       5.85069255       7.91456686       0.00202787      -0.00762446      -0.00175366
C       11.42963217       2.56911803       6.00229674       0.00068605      -0.00213403      -0.00558829
C        8.36615597       1.49246575       7.31960900       0.00049269      -0.00626263      -0.00505984
H        7.57272961       3.13351676       5.34051986       0.00021967      -0.00475761      -0.00605282
H        7.17284214       4.26831660       6.62874668      -0.00074038      -0.00745030      -0.00420371
H       10.76254327       4.70114416       7.52374565       0.00158587      -0.00612264      -0.00728922
H       10.14304803       5.56444385       6.12783476      -0.00193942      -0.00507699      -0.00488243
H        9.52388073       2.32547804       4.99980737       0.00020701      -0.00908610      -0.00116146
H       10.27903460       3.86049639       4.72639681      -0.00449927      -0.00991836      -0.00797269
H        9.91386889       2.71392745       8.19704929      -0.00121823      -0.00525584      -0.00348490
H        8.29014155       3.36984316       8.35271132      -0.00167257      -0.00615197      -0.00555526
H        6.94522509       5.24169523       4.37778675      -0.00071996      -0.00439060      -0.00303070
H        8.15586030       6.14205562       5.26572041      -0.00356118      -0.00381984      -0.00006694
H        8.63987725       4.96643109       4.02333390       0.00018899      -0.00023170      -0.00181976
H        9.50919291       6.76885129       8.15256914       0.00148959      -0.00679266      -0.00422218
H        8.04909944       6.16158110       7.44349467      -0.00002052      -0.00887421       0.00158149
H        8.75427755       5.35843108       8.85853490       0.00640857      -0.00762129      -0.00079358
H       11.92840691       2.09169964       5.15586238       0.00086259      -0.00528203      -0.00327584
H       12.09021050       3.35645774       6.35957158      -0.00053544       0.00036409      -0.01037128
H       11.31120606       1.81184420       6.77703125       0.00359245       0.00114988      -0.00251776
H        8.24254040       0.91390220       8.23270950      -0.00481341      -0.00455745      -0.00469336
H        7.37726409       1.58165734       6.87336280       0.00301480      -0.00649767      -0.01078262
H        9.00846646       0.92863550       6.64521240       0.00390239      -0.00746411      -0.00055388
N        2.47666422       9.33933503       1.73811383      -0.00372454       0.00309050      -0.00264515
C        1.41025435       9.01369377       0.69701755      -0.00386369       0.00345103      -0.00237697
C        3.10288584       8.08121010       2.28837603      -0.00512207       0.00314990      -0.00141537
C        1.80791051      10.09717072       2.87506842      -0.00348186       0.00357404      -0.00327498
C        3.54742013      10.17638648       1.07911256      -0.00290972       0.00141098      -0.00344399
C        0.49384423       7.87790090       1.07864965      -0.00431117       0.00374117      -0.00225110
C        3.80043238       7.19730196       1.27489852      -0.00444250       0.00251679       0.00003412
C        2.73144728      10.56258793       3.98151451      -0.00438729       0.00570175      -0.00369510
C        3.08337833      11.52480757       0.58253704      -0.00162964       0.00082463      -0.00642256
H        0.85737510       9.94232723       0.53544504      -0.00305194       0.00299644      -0.00313386
H        1.95264453       8.78126193      -0.22035094      -0.00419322       0.00318520      -0.00243491
H        3.79435183       8.39888240       3.06611862      -0.00604212       0.00369121      -0.00085300
H        2.29865162       7.54351429       2.78175267      -0.00603074       0.00415578      -0.00193003
H        1.28875030      10.94669116       2.42447244      -0.00271529       0.00336337      -0.00528863
H        1.06482429       9.41190240       3.28176469      -0.00379482       0.00456020      -0.00307898
H        4.34530619      10.27415737       1.81482749      -0.00367160       0.00280357      -0.00264916
H        3.92076924       9.58024763       0.24693336      -0.00261138      -0.00031942      -0.00165775
H       -0.25744193       7.79270041       0.29601266      -0.00626662       0.00614233      -0.00038864
H        1.00388725       6.91795018       1.13199645      -0.00494866       0.00336498      -0.00543046
H       -0.03920885       8.04235056       2.01425321      -0.00146797       0.00231992      -0.00053358
H        4.06620682       6.26249058       1.77289347      -0.00667845       0.00203714       0.00004847
H        3.16354362       6.91413317       0.43756941      -0.00327848       0.00442909      -0.00146338
H        4.70414004       7.64984800       0.86625247      -0.00316128       0.00142020       0.00201206
H        2.10840623      11.13536246       4.66803953      -0.00473578       0.00810863      -0.00593825
H        3.18405650       9.74987221       4.55078913      -0.00589111       0.00702199      -0.00065169
H        3.51471710      11.23381923       3.62394731      -0.00359125       0.00411265      -0.00446982
H        3.92907363      11.97885206       0.06517233      -0.00091048      -0.00064794      -0.00658157
H        2.24970941      11.46312019      -0.11581158      -0.00031948      -0.00041331      -0.00778517
H        2.74318196      12.18865095       1.37974652      -0.00301465       0.00210574      -0.00863364
S       11.54123905       1.08381884       0.86712034      -0.00032439      -0.00248832      -0.00806832
O       12.33043497       0.93445071       2.10934718       0.01128590      -0.02228532      -0.03636670
O       11.90899071       2.38835064       0.20360070      -0.00180811      -0.00326371      -0.00600833
O       11.81150409      -0.03560419      -0.06294616      -0.00120345       0.00192571      -0.03513920
O       10.08252807       1.13575337       1.18743101       0.01193142      -0.01746579      -0.00457558
O        6.73900510       7.51026796       3.08687156      -0.00139505      -0.00188690       0.00138298
C        6.48857034       8.90523097       3.24145774      -0.00715311      -0.00340522       0.00209252
H        5.65538052       9.08813678       3.92299460      -0.00484288      -0.00690691       0.00570050
H        6.30039080       9.38385570       2.27673345      -0.01322390      -0.00448681       0.00281176
H        7.39582287       9.33516888       3.66121551      -0.00724620       0.00059863      -0.00174540
H        5.96114574       7.09636495       2.70196317      -0.00164127      -0.00556447       0.00395431
O        4.68797893       3.95394104      12.30639823       0.02246284      -0.00124199       0.00884898
C        4.15048941       2.85482324      11.55194914       0.00807845       0.01542175      -0.00506941
H        3.09121648       2.78540504      11.78581239       0.00663093       0.02865215      -0.01046425
H        4.65946078       1.93109980      11.81510860      -0.00644343       0.00495356      -0.01368962
H        4.25421520       3.02977928      10.48013429       0.01606146       0.02536539      -0.00236428
H        5.64167298       3.83044440      12.35588586       0.01798421      -0.01997170       0.01526309
O        4.12831346       8.76311853       9.86407411      -0.00849307       0.00098503       0.01168812
C        4.40909956       9.93657329       9.09669489      -0.00108093       0.00012811       0.01336501
H        3.82970133      10.79479549       9.44982209       0.00260547       0.00266528       0.01294038
H        4.20280253       9.77475608       8.03610606       0.00052755       0.00199799       0.01291645
H        5.46798468      10.15757478       9.21766950      -0.00033674      -0.00536970       0.01600383
H        3.28922388       8.41526791       9.54861720      -0.01062208       0.00662974       0.01043133
O        7.87868007       7.64422291      10.53306680       0.00916708       0.00693460      -0.01101650
C        7.15817556       6.57264952      11.11593728       0.01199315       0.01322903       0.00382735
H        7.38806917       6.44896679      12.18072635       0.01805155       0.02450131       0.00350267
H        7.36787921       5.62382854      10.60955161       0.00934580       0.00846410       0.01230122
H        6.09658730       6.78905712      10.99996295       0.01164734       0.01272257       0.00754339
H        8.83459222       7.43088000      10.47099731       0.00996949       0.00866209      -0.00986039
O        9.41324819       8.08187382       2.67656841      -0.00129089       0.00639790       0.00558823
C        9.28112096       8.73141731       1.41876169       0.00267802       0.00635070       0.00609535
H        8.24654578       9.02732551       1.22135758       0.00876430       0.03068852       0.01198578
H        9.61411312       8.09133530       0.59883127      -0.01641713      -0.00067130       0.00415486
H        9.89575019       9.63169548       1.43307325       0.02139828      -0.00681844       0.00026115
H        8.62886260       7.52808933       2.79072634      -0.00253432       0.00667419       0.00325012
O        4.28733052       5.26232170       6.87510903      -0.00742770      -0.00044842       0.00427017
C        4.84949519       4.99205534       8.15647001      -0.00485457       0.00029765       0.00309904
H        5.74103194       5.60252884       8.33111578      -0.00002548      -0.00549398      -0.00174494
H        5.11399383       3.93520923       8.25689982      -0.01213109      -0.00108680       0.00625997
H        4.11376831       5.23181419       8.92456788      -0.00065339       0.00851335       0.00428753
H        4.60178574       4.58714140       6.21270659      -0.00593323       0.00081661       0.00392418
O        1.31758863       3.78411429      10.37812542      -0.00877034      -0.00197506      -0.00354570
C        1.47693255       3.10974430       9.16027895      -0.00146416      -0.00662991      -0.00105816
H        0.57911434       2.54934896       8.87383537       0.00360808      -0.01716180       0.00353251
H        2.31561288       2.39693431       9.17903219       0.00456700       0.00091851       0.00437316
H        1.68646044       3.84558880       8.37772649      -0.00872409      -0.01004237      -0.00506949
H        0.85716954       3.18182757      11.01116341      -0.00613050      -0.00093061      -0.00346466
O        8.66641835       8.97218375       7.92914132      -0.00123502      -0.00813365      -0.01429230
C        8.75582659      10.16415773       7.18253602      -0.00121707      -0.00472412      -0.00918496
H        7.82815985      10.74407623       7.22870514      -0.00101581      -0.00497919      -0.00579553
H        8.93829148       9.89004689       6.14338613      -0.00183944      -0.00016408      -0.01026148
H        9.58106779      10.79862779       7.52555061      -0.00103268      -0.00679144      -0.00604217
H        8.33936082       9.22171119       8.80711230       0.00037460      -0.01207064      -0.01343491
O        4.65144309       7.91775748       5.92873016      -0.00744712      -0.00040230       0.00606792
C        5.92109938       8.25775789       6.47091137      -0.00666440      -0.00414120       0.00614516
H        6.73903037       7.76872925       5.93192044      -0.00803789      -0.00600417       0.00605172
H        6.00064503       8.00879799       7.53258572      -0.00739889      -0.00497299       0.00599280
H        6.04933064       9.33530988       6.37003845      -0.00376793      -0.00451091       0.00681914
H        4.47673531       6.99505889       6.18331076      -0.00897366      -0.00048396       0.00461311
O        3.62560607       3.86511093       2.87757956       0.00601992       0.00295730      -0.00100103
C        2.47278408       3.01201560       2.86233988       0.00614943       0.00265904      -0.00115040
H        1.89654263       3.11225819       1.94345824       0.00698560       0.00267317      -0.00153631
H        1.84739850       3.29330848       3.70730108       0.00576232       0.00350472      -0.00171018
H        2.74508492       1.95858746       2.97732555       0.00679329       0.00318748      -0.00044802
H        4.07250370       3.80119014       2.00884551       0.00907287       0.00011528       0.00122526
O       -0.04480679      11.74722134       7.98009879      -0.00710922       0.00323217       0.01007819
C        1.33409206      11.70488501       7.61008248      -0.00678164      -0.00048988       0.01565748
H        1.69126407      10.67653307       7.50583116      -0.00830871      -0.00090873       0.01689667
H        1.95712347      12.23400381       8.33260164      -0.00768237      -0.00171140       0.01680762
H        1.41759426      12.20314346       6.64536437      -0.00225941      -0.00088477       0.01530859
H       -0.11529081      11.50535902       8.91078669      -0.00928037       0.01606020       0.01641315
O       12.18376471       8.82669422       5.99273472       0.00775790       0.00370276      -0.00141650
C       11.21860360       7.93144862       5.44336940       0.00455524      -0.00026533       0.01069845
H       10.98773917       8.17391252       4.40408801      -0.00335035      -0.00620818       0.01114717
H       10.28548033       7.95110699       6.01754089       0.00932208       0.00206746       0.01795357
H       11.64156762       6.92838208       5.48274723       0.00610870       0.00066680       0.01361617
H       11.92667648       9.73143761       5.70439453       0.00420652       0.00229746      -0.00301394
O       10.60445939       7.30543769      10.26643383       0.00167112       0.00840449      -0.00539623
C       11.16984253       5.99073957      10.30095784      -0.00159357       0.00752249       0.00133887
H       12.03593376       5.93517028      10.95694588       0.00647891       0.01144413      -0.00907385
H       11.47499993       5.67156669       9.30398470      -0.01459572      -0.00491491       0.00160515
H       10.42456473       5.30745416      10.69944898       0.00164053       0.01440430       0.01825117
H       11.17575192       7.82678097       9.66942363       0.00321555       0.00540697      -0.00743023
O        4.97386759       3.44137399       5.11341359      -0.00181713       0.00086132       0.00342420
C        4.74134923       2.10630178       5.54598464      -0.00608766       0.00103389       0.00117759
H        4.93415340       2.05421602       6.61899568       0.00388033      -0.00376914      -0.00098088
H        5.40712078       1.41002448       5.02897519      -0.01532423      -0.00119373      -0.00733502
H        3.70618578       1.80209582       5.36787608      -0.00947508       0.00763812       0.01042509
H        4.53801442       3.56907906       4.22740808      -0.00014791       0.00273626       0.00286482
O        0.65799478       8.25424823       8.58371006      -0.00219077       0.00992793       0.00135177
C        1.58059908       7.20692779       8.28916806      -0.00425667       0.00661868       0.00679745
H        1.13934985       6.43679333       7.64946332      -0.00433764       0.00621456       0.00770220
H        1.87183520       6.73097069       9.22778081      -0.00857906       0.00856950       0.00902486
H        2.46900329       7.59079682       7.77290802      -0.00176302       0.00317350       0.00906380
H        0.39098769       8.61318829       7.70596649       0.00246103       0.00953024      -0.00042719
O        5.42900682       1.42663654       2.33718924       0.00866485      -0.00093419      -0.00959408
C        6.39341405       0.37878796       2.33486741       0.00324064      -0.00143150      -0.00146529
H        6.37936844      -0.18799307       1.39668391       0.00909600      -0.00521369       0.00111181
H        6.23437207      -0.31163772       3.17161393       0.00081356       0.00189005       0.00055802
H        7.36941473       0.84863907       2.44396284       0.00377166      -0.00046259       0.00139385
H        4.56156642       1.04682957       2.16771444       0.00239718      -0.00446692      -0.01542894
O        7.93236505      10.35334264      10.36286945      -0.00204009      -0.00249386      -0.00985862
C        9.23221948      10.82754043      10.77401241      -0.00374476      -0.00598292      -0.00473007
H        9.95336066      10.01076608      10.81711247      -0.00307748      -0.00578800      -0.01020000
H        9.20270944      11.33876516      11.73636268      -0.00508840      -0.01347247      -0.00066042
H        9.57097886      11.54522736      10.02757829      -0.00205329       0.00057720       0.00233766
H        7.78427935       9.46239103      10.73308209      -0.00039688      -0.00665250      -0.01651207
O       10.71448753       4.62019793       1.04116872       0.00614047      -0.00764840       0.00178730
C       11.31732911       4.79580216       2.29443338       0.00866434      -0.00444178       0.00077403
H       12.38902810       5.02039636       2.20809248       0.00648320       0.00466219      -0.00244644
H       11.22298490       3.89846636       2.91675587       0.01857310      -0.00667989      -0.00120997
H       10.83435346       5.64083252       2.79511866       0.00398073      -0.01024875       0.00448713
H       11.07830409       3.77444801       0.67942712       0.00445923      -0.00626428       0.00222868
O        8.68654104       2.80431046       2.67963679       0.01000786      -0.00542605      -0.00490421
C        7.93412482       3.61997410       1.80710883       0.01024637      -0.00288078      -0.00159830
H        8.15395359       3.38725288       0.76233681      -0.00155531      -0.00841291      -0.00288033
H        8.17286012       4.67928128       1.94726667       0.01918077      -0.00409788      -0.00845371
H        6.86584232       3.46513401       2.00451788       0.01101285       0.00611047       0.00873014
H        9.30310967       2.24937500       2.12917207       0.01037980      -0.00530066      -0.00631615
O       11.39054114      11.23531655       5.13488528       0.00047761       0.00459704       0.00610048
C       10.42177711      11.29349442       4.07560248       0.00242643       0.01094710       0.00416939
H       10.02530542      12.30117755       3.95201114      -0.00010266       0.01076800       0.01208071
H        9.61303700      10.57631585       4.23620319       0.00363219       0.00817063      -0.00320660
H       10.94467812      11.05775706       3.15561287       0.00459166       0.02063240       0.00324735
H       11.01751503      11.57797676       5.95640370      -0.00159138      -0.00213885       0.00725126
O        1.77887864       4.98011973       5.75243195      -0.00893707       0.00646174       0.00646818
C        2.09426221       5.97133659       4.78630461      -0.00595659       0.00455716       0.00576180
H        1.39758236       5.85053285       3.95631259      -0.01816927       0.01878882       0.01463100
H        3.10644031       5.84016678       4.39334323      -0.01349884      -0.00949713      -0.00818607
H        1.99737622       6.98549887       5.19116521       0.01427170       0.00459188       0.00908670
H        2.53277729       4.96780091       6.36607941      -0.00802094       0.00375472       0.00487715
O        6.49753512       0.76253218      10.04262569      -0.00023553      -0.00607109       0.00072142
C        7.18411220       1.75427565      10.78566794       0.00548449      -0.01236495       0.00410824
H        6.82544070       2.72779912      10.43884967       0.00982463      -0.00930810       0.00903849
H        8.27167812       1.71645393      10.65629610       0.00506106      -0.01684153       0.00252369
H        6.98412889       1.68016449      11.85906669       0.00667870      -0.01637565       0.00398096
H        6.90750394      -0.10055931      10.23531613      -0.00210443      -0.00809211      -0.00571375
