195
Lattice="12.68890742172221 0.0 0.0 0.0 12.68890742172221 0.0 0.0 0.0 12.68890742172221" Properties=species:S:1:pos:R:3:forces:R:3 energy=-548534.875 stress="-0.0023114520590752363 0.0002222068651462905 -5.4684196584275924e-05 0.0002222068651462905 -0.0012208406114950776 3.68910186807625e-05 -5.4684196584275924e-05 3.68910186807625e-05 -0.0025293128564953804" pbc="T T T"
N        6.97096882      10.52176774       7.73853494       0.00655873      -0.01251965      -0.00331790
C        5.62842409      10.05540193       8.18755003      -0.01988375       0.01702201      -0.00912231
C        7.87227454       9.34771517       7.62024654      -0.00597227       0.00105369       0.02505421
C        7.51380302      11.48801147       8.74283436      -0.03072566       0.01320833       0.00589192
C        6.84598159      11.18351072       6.40852065      -0.03883815       0.02624062       0.01576871
H        5.24107810       9.36529245       7.44314904      -0.00335270      -0.00665753      -0.00871520
H        5.74053407       9.54629463       9.14162766      -0.01265725      -0.00716174       0.00401779
H        4.97553430      10.92066749       8.25667730      -0.00605690      -0.01311986      -0.00804617
H        8.85204645       9.68776158       7.29267093       0.00143453       0.00424103       0.01273971
H        7.92953011       8.84306832       8.57891545      -0.00916632       0.00205276       0.00089316
H        7.44491934       8.66763683       6.89018834      -0.00168681      -0.00295866      -0.00133704
H        8.51218015      11.77906938       8.43030586      -0.00605302       0.00514356       0.01001425
H        6.85396330      12.35271464       8.78337646      -0.01021202      -0.00629149       0.00267434
H        7.55498831      10.99328159       9.71066232      -0.01755489      -0.00023773       0.01124212
H        7.82961962      11.50466929       6.07508677       0.01457934       0.00548084       0.00223728
H        6.43007833      10.46349157       5.70765590       0.00390937      -0.00876784      -0.00417946
H        6.17419371      12.02612860       6.51897535       0.01000138      -0.02144116      -0.00671457
N        2.17099427      11.05790996       2.93028616       0.00038078       0.01406231       0.00957303
C        3.22259632      11.89077099       2.27029344      -0.01247466       0.02095175      -0.00183973
C        2.11563337      11.38019828       4.37754597       0.01332070       0.01259513       0.01016605
C        2.45810581       9.61032363       2.74123140       0.00557104       0.01442003       0.00569990
C        0.83937873      11.40954096       2.33085671      -0.01017326       0.00087224       0.02228343
H        2.94223015      12.93424277       2.38880104      -0.01996146       0.01803091       0.00004275
H        4.19031966      11.67394897       2.71733405      -0.00610843       0.02829363      -0.01247269
H        3.24353281      11.65338167       1.21193514      -0.02339465       0.01977585      -0.00223964
H        1.32116755      10.78680979       4.82346054       0.01666652       0.01405030       0.01789749
H        3.06106770      11.14441860       4.85834642       0.01687331       0.01367792       0.00304452
H        1.87863684      12.43712279       4.47404871       0.01384788       0.01299506       0.01265134
H        1.67166660       9.03471982       3.22625044       0.01559177       0.00974680       0.01428084
H        2.46534672       9.39337942       1.67678688      -0.00477741       0.01535227       0.00605360
H        3.42487590       9.36014997       3.17318292       0.01253445       0.01862373      -0.00458587
H        0.07639676      10.76042297       2.74603990       0.00047167      -0.00302069       0.02835621
H        0.63228596      12.44714972       2.59841081      -0.01346911       0.00369459       0.02407427
H        0.90038538      11.34962617       1.24338243      -0.01837318       0.00437041       0.02250794
O       10.72713483       1.95634227      -0.14309183       0.01854038      -0.03298116      -0.01202333
O       13.08972855       0.15956020      -0.20454968       0.01109791      -0.03351879      -0.02280498
O       10.93286493      -0.39470857       1.64633546      -0.00490475       0.00381279       0.02199209
O       12.65085008       1.84890675       2.09743847       0.01508117      -0.01700747      -0.04304361
W       11.82324660       0.91688506       0.80892346       0.00901340      -0.03227537      -0.01853989
O        2.72501578      10.15337415       7.10754590      -0.01338511       0.00867356       0.01042045
C        0.78845035       9.15064211       7.97961759      -0.01684645       0.00736851       0.00013143
C        1.21151236       8.36624614       6.74385903      -0.00803536       0.00678769       0.00376722
C        1.47937746      10.48080278       7.75246103      -0.01483127       0.00680429       0.00790672
C        2.66346555       8.80710042       6.61523568      -0.00828454       0.00770350       0.01405276
H       -0.28647020       9.24625027       8.09454102      -0.01861608       0.00507065      -0.00777976
H        1.19008851       8.66716752       8.87342300      -0.02581668       0.00691222       0.00368166
H        1.10538221       7.28867921       6.85892221      -0.01025399       0.00588319      -0.00037426
H        0.62439169       8.67355570       5.87202557      -0.00094795       0.00951679      -0.00103824
H        0.88556550      11.12983742       7.09509491      -0.01082122       0.00506783       0.00267130
H        1.69137233      11.02969992       8.67136015      -0.01879273       0.00818598       0.00878465
H        3.30749340       8.16728711       7.23348668      -0.01261273       0.00692415       0.01933587
H        3.04411766       8.79078053       5.58959473       0.00158424       0.00831850       0.01710668
O        4.39879435       8.60716804      10.81752426      -0.00897714       0.00771056      -0.00088018
C        2.26381265       8.13451929      11.67971913      -0.00553817       0.00292882       0.00255711
C        2.36034480       9.64518511      11.47097689      -0.00831267       0.00334978       0.00744763
C        3.73162003       7.74545635      11.74966920      -0.00571853       0.00593733      -0.00045480
C        3.57380571       9.76123587      10.56199748      -0.00950894       0.00894321       0.00723000
H        1.70146021       7.84332423      12.56763241      -0.00412320       0.00049715       0.00258319
H        1.79398977       7.65361740      10.81716830      -0.00612860       0.00541609       0.00169387
H        1.47141488      10.11361494      11.04982776      -0.00985894       0.00289549       0.00933275
H        2.55705586      10.15521563      12.41561786      -0.01055777       0.00018679       0.00961080
H        4.13703258       7.89957862      12.75911429      -0.00430183       0.00628476      -0.00060964
H        3.92820625       6.71671622      11.45484843      -0.00413744       0.00587416      -0.00189880
H        3.28677063       9.73981172       9.50707832      -0.00904052       0.01686277       0.00790903
H        4.15494192      10.66997496      10.74897328      -0.00822744       0.00803772       0.01320542
O        6.17324869       2.51870054      10.83992801      -0.02765708      -0.02076975      -0.02743930
C        5.97964859       4.81448760      11.47612785      -0.00401976      -0.02152842      -0.00703672
C        4.62095458       4.11252030      11.52926844      -0.00993270      -0.00396469       0.00328039
C        6.83635210       3.78999819      10.72939957      -0.01879518      -0.02114558      -0.00737576
C        5.05626023       2.66965781      11.71726221      -0.01249626      -0.00883362      -0.00880710
H        5.97265343       5.77517799      10.96112842      -0.01516988      -0.01797780       0.00763400
H        6.35310384       4.97437985      12.48899240      -0.00008084      -0.00614455      -0.01598188
H        3.96723818       4.47119908      12.32424146       0.00752839      -0.00815704       0.02497962
H        4.09940691       4.22027474      10.57309831      -0.03535513      -0.00051205       0.01377556
H        6.89624669       4.04578076       9.66839013      -0.00580893      -0.01090755       0.00454712
H        7.85429142       3.70309647      11.12220866      -0.02327400      -0.01815749      -0.01509842
H        5.36490889       2.49108333      12.75711705      -0.00607134      -0.02572776      -0.01634675
H        4.30289622       1.92814895      11.44681143      -0.01850951      -0.01143524       0.02296586
O       10.84033953      10.93932088      11.69404782      -0.03602193       0.00498235       0.00628382
C       11.29714346       8.73515482      10.93457785      -0.00671795       0.00710255       0.01726693
C       10.45876149       9.53497486       9.93349022      -0.00197428       0.00032362       0.00682202
C       11.34293470       9.68923261      12.14741631      -0.00687300       0.01824927       0.01020271
C       10.89491485      10.95068521      10.28994321      -0.01497376       0.00368932       0.00742501
H       10.87796126       7.75885721      11.17862685      -0.01441248       0.01094082       0.02505855
H       12.29658853       8.56977527      10.52977900      -0.00744343      -0.00275269       0.02213184
H       10.60862930       9.24100347       8.89479155       0.01029710      -0.00175774       0.00859328
H        9.39707944       9.42938313      10.17652259      -0.00266945      -0.00449551      -0.00376897
H       10.69595088       9.36035110      12.96081779       0.01424050       0.01584476       0.02384427
H       12.35763625       9.81102611      12.54175988      -0.00330806       0.04435347      -0.01063557
H       11.91375379      11.16461140       9.92567350      -0.01019990       0.01035313       0.02649271
H       10.24390399      11.75340831       9.94593124      -0.01567301      -0.00161958      -0.00478415
O        7.61793761       6.42427583       8.75792881      -0.00024359      -0.00591154      -0.00831766
C        9.74774802       6.27156301       7.80093226       0.00453281      -0.01165774       0.00584075
C        8.80994077       5.40782866       6.95390946       0.00794402      -0.00479630      -0.00318724
C        8.99799014       6.30964187       9.12088017      -0.00355637      -0.01217549       0.00029862
C        7.42513988       5.79064706       7.48469600       0.00590178      -0.00347426      -0.01052833
H       10.75059908       5.85434623       7.89026919       0.00261007      -0.01516998       0.01123109
H        9.83742072       7.27953559       7.38185398       0.01013055      -0.00994286       0.00971998
H        8.90316252       5.57897776       5.88111233       0.01533911      -0.00109109      -0.00159681
H        9.01914133       4.35346802       7.13507577       0.00441140      -0.00662944      -0.00535092
H        9.17222431       5.38881727       9.69174111      -0.01145926      -0.01539844      -0.00113691
H        9.24087117       7.16097764       9.75518280      -0.00311242      -0.01563695       0.00450110
H        6.91871319       6.50772303       6.83047840       0.01095569      -0.00078356      -0.01208737
H        6.76389727       4.92511323       7.60271328       0.00332764      -0.00223780      -0.01652804
O        5.90115813      11.60852485       0.80062520       0.00434187       0.00925753       0.00544573
C        8.12688469      10.83415046       0.98343713       0.00554353       0.00861566      -0.01123047
C        7.17473628       9.70934430       1.38918409       0.00835127       0.00892425      -0.00949988
C        7.23521807      12.04282629       1.17197191       0.00819001       0.00892442      -0.00651503
C        5.88666641      10.17864038       0.73393990       0.00606164       0.01074672      -0.00262134
H        9.05606255      10.94173077       1.54444746       0.00847355       0.00607088      -0.01547760
H        8.40975828      10.73286759      -0.06759779       0.00117477       0.00971222      -0.01285297
H        7.46443454       8.71277799       1.05819795       0.00823870       0.01048151      -0.01253705
H        7.05948931       9.67017486       2.47732624       0.01354807       0.00780629      -0.00817478
H        7.22655716      12.33867838       2.22988636       0.01580141       0.01215895      -0.00748205
H        7.51074649      12.91247341       0.57883299       0.00385225       0.00847298      -0.01048729
H        5.84479853       9.85493679      -0.31298425       0.00503737       0.01627998      -0.00521702
H        4.98631705       9.80371164       1.23186580       0.00664282       0.00735669      -0.00410339
O        4.26943874       6.65393469       3.17642780      -0.00679093       0.01695345      -0.01028606
C        3.11135145       5.73495759       4.98489435      -0.00164205       0.00869877      -0.01185870
C        4.54027338       5.99737370       5.45209984      -0.00254470       0.00871846      -0.01298231
C        3.30617540       5.63703587       3.48459036      -0.00658371       0.01626722      -0.01237366
C        5.10156583       6.87455054       4.32733763      -0.00405796       0.01133853      -0.01116243
H        2.66003583       4.84769552       5.42684964      -0.00035965       0.00651595      -0.01483167
H        2.47330670       6.58877722       5.21375483      -0.00262208       0.00784972      -0.00569595
H        4.59486245       6.47273768       6.43118306      -0.00143666       0.00575435      -0.01224107
H        5.09356730       5.05875191       5.51868462      -0.00160785       0.00753847      -0.01598723
H        3.69251631       4.64878948       3.20583787      -0.00547951       0.01702574      -0.01777887
H        2.40691667       5.83448283       2.90027617      -0.00735524       0.01711787      -0.00857651
H        5.04215846       7.94096331       4.58326251      -0.00447510       0.01072791      -0.00660622
H        6.14190452       6.64549086       4.07958007      -0.00477564       0.01261641      -0.01412005
O       11.42122631       1.69959263       8.61270481       0.01610476      -0.00816621      -0.01406309
C        9.40816678       1.46418768       7.42026368       0.00538331      -0.00273739       0.00769341
C        9.07271011       1.93884633       8.83068772       0.01875973      -0.00721338       0.01197508
C       10.80930040       0.90249445       7.60521265       0.00290132      -0.00815603      -0.00489002
C       10.41856325       2.46265258       9.32174812       0.02411771      -0.01310964       0.00096697
H        8.70664141       0.73783994       7.00932288      -0.00164083       0.00014912       0.01219766
H        9.45638346       2.29785492       6.71941530       0.00013720      -0.00028101       0.00991344
H        8.29272473       2.69726432       8.84529256       0.02142519      -0.00491501       0.02091807
H        8.73682125       1.12458579       9.47625041       0.02063233      -0.00868994       0.01080838
H       10.77639018      -0.14766853       7.94030462       0.00280717      -0.00672191      -0.00112545
H       11.40655850       0.95510402       6.69246167      -0.00696659      -0.01243978      -0.01303655
H       10.54475894       3.51897087       9.04148405       0.02184699      -0.01157618       0.01080911
H       10.57345561       2.35515626      10.40168676       0.03409384      -0.02270442       0.00061101
O        8.06801072       2.65640263       1.69837052      -0.01758963      -0.01969200      -0.00579742
C        7.57956373       4.91680781       2.28468561       0.00924014      -0.01373881      -0.00816849
C        6.43569039       3.98794959       2.69383513       0.00231594      -0.00146821      -0.00046421
C        8.47102067       4.00615532       1.42322571      -0.00051019      -0.02532244      -0.00584044
C        7.16078706       2.65670250       2.78327335      -0.00971311      -0.00766590       0.00013041
H        7.23909635       5.80743798       1.75568844       0.01547901      -0.01430880      -0.01276571
H        8.11572984       5.26798725       3.16691189       0.01428832      -0.01390408      -0.01097152
H        5.96041599       4.27257037       3.63097605       0.00969077       0.00615499       0.00078240
H        5.66764484       3.94754000       1.91751911      -0.00139636       0.00316342       0.00252998
H        8.33728614       4.17837583       0.35487588       0.00311925      -0.02521086      -0.00658226
H        9.53791752       4.11862529       1.62624056      -0.00002968      -0.03699135      -0.00410807
H        7.69591606       2.57310303       3.74464104      -0.00349164      -0.00917805      -0.00344700
H        6.50797425       1.78767454       2.67698094      -0.01873815      -0.00187522       0.00884566
O       10.97281597       2.92936063       5.19673643       0.01344249       0.00130892       0.00753314
C       11.74035744       4.53546957       3.63938619       0.01045898      -0.01443377      -0.01042306
C       12.09305850       4.97733942       5.05973701       0.01586295      -0.00307769      -0.01608112
C       10.66393617       3.49359260       3.90279843       0.01385666      -0.01457515      -0.00005627
C       12.05919408       3.63980664       5.78055731       0.01829210       0.00304532      -0.00515562
H       11.38767060       5.34934762       3.00667223       0.00717263      -0.01922891      -0.01505227
H       12.57928790       4.03927783       3.14502654       0.00944278      -0.01499191      -0.01163456
H       13.05439947       5.48176385       5.14535367       0.01608910      -0.00230609      -0.02402417
H       11.31944592       5.64059896       5.46082634       0.01689681       0.00010173      -0.01815075
H        9.67108119       3.95240808       3.97547328       0.01138210      -0.01928249      -0.00709377
H       10.66336505       2.69866786       3.15771598       0.01899110      -0.02336520       0.00913370
H       12.99610399       3.09256925       5.60200578       0.01643980       0.00017300      -0.00687961
H       11.89392862       3.69483582       6.86041849       0.02495196       0.01198186      -0.00478619
O        4.63149571       0.58240194       7.62883600       0.00675251       0.00045484      -0.00494507
C        2.80585761       2.03120286       7.28218947       0.00129592      -0.00657183       0.00831768
C        4.03128605       2.63078565       6.59557279      -0.00700575      -0.00020963       0.00246736
C        3.46854816       1.11904294       8.29745432       0.01121262      -0.00249180       0.00419015
C        4.96370298       1.43264738       6.51815464       0.00118950       0.00665486      -0.00166895
H        2.15019341       2.76772065       7.74402455      -0.00125603      -0.01066339       0.01200706
H        2.21159549       1.45222010       6.56975616      -0.00002702      -0.01089811       0.01216337
H        3.83205835       3.04294867       5.60795889      -0.01493544      -0.00193770       0.00314844
H        4.46544353       3.41510526       7.22140014      -0.00926952       0.00409710      -0.00019595
H        3.79661189       1.68387935       9.17630186       0.01755558       0.00065687       0.00015417
H        2.84467233       0.28687540       8.62105664       0.01727772      -0.00353482       0.01002502
H        4.79235158       0.87592314       5.58605756       0.00449929       0.00640610      -0.00186455
H        6.02341215       1.70210425       6.57321208      -0.00013113       0.01321833      -0.00069380
O        8.75451591       7.64072142       3.41047675       0.01112854      -0.00592095       0.00949548
C       10.11098339       9.36662508       4.33198376       0.01361792       0.00195014      -0.00860699
C       10.95276860       8.45072460       3.44088826       0.00816649       0.00079815      -0.00973409
C        8.84902761       8.52146007       4.52565184       0.01425990       0.00429243       0.00158766
C        9.87827490       7.85882445       2.54846388       0.00510758      -0.00880992       0.00143315
H       10.59394408       9.61093300       5.28068793       0.01732505       0.00813998      -0.01308013
H        9.90037357      10.30007935       3.80381771       0.00998077       0.00150332      -0.01344040
H       11.70780022       8.98857988       2.87001979       0.00443301      -0.00283872      -0.01683640
H       11.43312532       7.66452702       4.03053072       0.01398775       0.00275555      -0.00751339
H        8.91538280       7.90662044       5.42997835       0.01820219       0.01030204       0.00696087
H        7.93568524       9.12424482       4.57957049       0.01550865       0.00409557       0.00131255
H        9.60620904       8.57251141       1.76489435      -0.00307372      -0.01002875      -0.00061384
H       10.14005459       6.90572928       2.08744441       0.00412918      -0.00709864       0.00347753
