198
Lattice="12.077005349315714 0.0 0.0 0.0 12.077005349315714 0.0 0.0 0.0 12.077005349315714" Properties=species:S:1:pos:R:3:forces:R:3 energy=-120463.6171875 stress="-0.0024762314278632402 -5.2901181334163994e-05 0.0001961259258678183 -5.2901181334163994e-05 -0.0036549593787640333 -0.0009943885379470885 0.0001961259258678183 -0.0009943885379470885 -0.0033745744731277227" pbc="T T T"
N        9.95760766      10.28353651       7.26213772       0.00456074       0.00321631       0.00199041
C        8.45869382      10.05463067       7.35629663       0.00366002       0.00702804      -0.00288238
C       10.47828463      10.90558243       8.54406805       0.00084454       0.00404429       0.00325033
C       10.22407054      11.23631485       6.10494556       0.01061223       0.00113064       0.00201321
C       10.66628176       8.96889119       7.05512522       0.00205067       0.00171974       0.00539918
C        7.65934362      11.25319764       7.81733712       0.00503473       0.00777236      -0.00255822
C       10.16803182      10.13853669       9.80666715      -0.00047329       0.00279126       0.00167790
C       11.68483734      11.45955580       5.78664271       0.01273689      -0.00579364       0.00474077
C       10.34640722       8.26687412       5.76083065       0.00545569       0.00194383       0.00456798
H        8.13130662       9.73503817       6.36930765       0.00655171       0.00982573      -0.00460100
H        8.32758523       9.21142751       8.03583049      -0.00081844       0.00578558      -0.00542048
H       11.55340810      11.01637334       8.40979043       0.00121272       0.00520042       0.00541212
H       10.04818990      11.90085675       8.58132237      -0.00030023       0.00248888       0.00237155
H        9.68850578      10.83254551       5.24571036       0.01107018       0.00318485       0.00139731
H        9.76369818      12.17689243       6.39353863       0.01519449       0.00310749       0.00058252
H       11.73123649       9.19487349       7.12041961       0.00216487      -0.00040213       0.00945718
H       10.40058114       8.34453269       7.90618979      -0.00251760       0.00285763       0.00462747
H        6.60998051      10.96978671       7.76935327       0.00422806       0.01199507      -0.01270424
H        7.87048016      11.54958005       8.84222160      -0.00219910       0.00128472       0.00092682
H        7.78074404      12.11781825       7.16660082       0.01421883       0.01083155       0.00347447
H       10.53245404      10.73207763      10.64414764      -0.00306404       0.00354482       0.00276706
H        9.10128840      10.02681865       9.98852480      -0.00072843       0.00155454      -0.00051725
H       10.63791918       9.15573351       9.83821057       0.00085095       0.00424150       0.00287353
H       11.72697658      12.22224920       5.00880905       0.01743086      -0.00198494       0.00842705
H       12.23883792      11.85668547       6.63463806       0.01405364      -0.01340063       0.00670841
H       12.17416724      10.57063105       5.39244792       0.00753420      -0.00692081       0.00099771
H       10.88899078       7.32079563       5.74883755       0.00237805       0.00040129       0.00775572
H        9.28963837       8.02582810       5.66611911       0.00523931       0.00489493       0.00044356
H       10.67357082       8.83563809       4.89520330       0.01096683      -0.00014882       0.00525382
N        2.31901251       6.51719289       9.76015487      -0.00152297       0.00149128      -0.00495671
C        2.20219917       5.71501302      11.04180524       0.00404418       0.00437883      -0.00286514
C        1.31470081       7.65234384       9.72628827      -0.00233710       0.00059253      -0.00229919
C        2.04915901       5.59276728       8.59370517      -0.00604618      -0.00156593      -0.00115076
C        3.71703208       7.10633134       9.70395956      -0.00267822       0.00241405      -0.01179777
C        0.82735505       5.20189029      11.38306024       0.00571486       0.00470947       0.00351632
C        1.37683457       8.60459477      10.89528597       0.00264660       0.00298876      -0.00471112
C        2.17927269       6.22780830       7.22864939      -0.01347446      -0.00429334      -0.00309223
C        4.85074917       6.10745935       9.70386980      -0.00163004       0.00394192      -0.01510407
H        2.90387786       4.88945470      10.93658593       0.00382575       0.00424907      -0.00399882
H        2.57300801       6.37088251      11.82357525       0.00648341       0.00626460      -0.00615475
H        1.51256400       8.19029427       8.80038147      -0.00645332      -0.00118603      -0.00427422
H        0.33543620       7.17589806       9.64798505      -0.00238389       0.00019334       0.00258704
H        2.74012678       4.75940517       8.70617186      -0.00423193      -0.00019823      -0.00255802
H        1.03937233       5.21663733       8.74518905      -0.00449201      -0.00204341       0.00431580
H        3.74257104       7.74946211       8.82473185      -0.00715796       0.00096487      -0.01297137
H        3.78280562       7.75275699      10.57619478       0.00067861       0.00390881      -0.01352331
H        0.92616325       4.61301173      12.29499262       0.01005735       0.00801867       0.00541130
H        0.09612848       5.98743794      11.56542595       0.00631142       0.00505033       0.00427410
H        0.41827562       4.54033217      10.62379168       0.00343607       0.00181320       0.00798909
H        0.59165936       9.34425802      10.75621164       0.00110966       0.00164191      -0.00243481
H        1.18652175       8.12250143      11.85294879       0.00813223       0.00485303      -0.00274067
H        2.30978194       9.16236199      10.95011011       0.00171655       0.00463196      -0.01051861
H        2.06068602       5.44022640       6.48409618      -0.01346684      -0.00665677      -0.00064638
H        1.41720193       6.98103929       7.03224270      -0.01728557      -0.00809313      -0.00157858
H        3.16051983       6.66911713       7.06875001      -0.01609430      -0.00082598      -0.00786201
H        5.78193374       6.66947848       9.62710025      -0.00298567       0.00524631      -0.01979006
H        4.90158132       5.52621074      10.62211860       0.00272724       0.00526392      -0.01465628
H        4.83371527       5.40778507       8.87111567      -0.00389389       0.00289240      -0.01408921
O        6.70309105      -0.03107164       0.68721376      -0.01304317       0.01887459       0.01408897
O        9.22979204       0.22077221      -0.23888019      -0.02089405       0.00205982      -0.00406075
O        8.83503440      -0.39916298       2.31087244      -0.00393200      -0.00285244      -0.00251079
O        8.22227050       2.06181816       1.44633205       0.00785342       0.00587964       0.00991464
Cr       8.25861182       0.45586303       1.04284284      -0.00671223       0.00484570       0.00035369
O       11.18415271       2.65694164       4.07529436      -0.01453000      -0.04198229      -0.00233974
C       11.16237298       3.53326617       2.93339232      -0.01282072      -0.02015056       0.00316092
C       11.38939926       2.76073423       1.65264013       0.00028249      -0.00643483      -0.00316340
H       10.20892614       4.06811381       2.89274955      -0.01557523      -0.03259936       0.00601514
H       11.95481589       4.26641940       3.11317721      -0.02013859      -0.02335279       0.01965559
H       11.20182812       3.39445033       0.78517116       0.01562735       0.01416612       0.00588999
H       12.40306083       2.35808063       1.59595933      -0.00106613      -0.00941119       0.00258372
H       10.67571683       1.94015094       1.58262200      -0.00448498       0.00088766      -0.02841186
H       10.50131288       1.99786903       3.89869395      -0.02074707      -0.03062517      -0.00871539
O        7.15642003       2.75510434       3.69285460       0.00540721      -0.02301496       0.01252243
C        7.70490710       1.60735409       4.32868428       0.00173930      -0.02189547       0.01546180
C        6.71967455       0.45438959       4.32437903       0.00054204      -0.02059966       0.02152334
H        8.60026105       1.28772096       3.78777336       0.00015655      -0.02826741       0.01490048
H        7.98331886       1.88569410       5.35041961       0.00492297      -0.01912382       0.01372713
H        7.21260027      -0.44296328       4.70395375       0.00049552      -0.01929531       0.02352157
H        5.85330476       0.69799214       4.94601592       0.00257447      -0.01840010       0.02399421
H        6.40569761       0.24848450       3.29878875      -0.00262663      -0.02311214       0.02320117
H        7.44200775       2.65379507       2.73393444       0.01121464      -0.01840726       0.01271152
O        3.58970701       2.11517841       1.21397944       0.02142864       0.00305530       0.00055745
C        3.28299004       2.87184460       2.39004003       0.00824037       0.00115290      -0.00135246
C        2.81676563       2.02935508       3.56190240       0.00652775      -0.00379717      -0.00546604
H        4.14886481       3.47829674       2.67417734      -0.00006342       0.00922239       0.00623724
H        2.47983005       3.54962962       2.09020347       0.00562599      -0.00676078      -0.00946919
H        2.43464681       2.67765990       4.35392212      -0.00544496      -0.00931977      -0.00649194
H        2.00889356       1.35931035       3.26647379       0.01316801      -0.01045151      -0.01022920
H        3.63643836       1.43973299       3.97393652       0.00822046       0.00288528       0.00027267
H        4.49195059       1.77461944       1.27606558       0.02062950      -0.00087788       0.00649920
O        5.96323436       3.24013680       6.05705453       0.00698650       0.00428700      -0.00198007
C        4.87551111       4.14442754       6.12868506       0.00134741      -0.00160760      -0.01044111
C        5.28694854       5.53009257       5.66767341      -0.00339186       0.00341159       0.00058258
H        4.03673228       3.77280041       5.52668153       0.01005918      -0.00333233      -0.02156433
H        4.55199166       4.14213957       7.17271974      -0.01025593      -0.00720032      -0.01445439
H        4.42225921       6.15851803       5.46004794      -0.00680831      -0.00195496      -0.00218631
H        5.91579576       6.02192669       6.41083461      -0.01347061       0.00326750       0.00912602
H        5.85118939       5.44862668       4.73853544       0.00459601       0.01352715       0.00461592
H        6.25273284       3.20421419       5.11911125       0.01038727      -0.00323541      -0.00018494
O       10.78661441       2.07894707       6.90971691       0.00227228      -0.02610146      -0.01549417
C       11.13517086       2.93159462       7.99302969       0.00180240       0.00767173       0.01291192
C       11.29438955       2.08042046       9.23407348      -0.00815760       0.02704853      -0.00708956
H       12.08174249       3.44201220       7.76396216       0.01163667       0.00021659      -0.00892105
H       10.36913442       3.69836751       8.13982169       0.00482953       0.00440705      -0.02587612
H       11.69880086       2.65596717      10.06911165      -0.02740939       0.01890941      -0.02081504
H       10.34545096       1.66616307       9.56932516      -0.01913670       0.01178885      -0.01591728
H       11.98222386       1.26158006       9.02754437      -0.00595193       0.00601818       0.00799317
H       10.93477135       2.54197743       6.07208310       0.00289978      -0.00640397      -0.02781745
O        5.64832204       2.87554837       9.90232020      -0.01144105      -0.00977775       0.02174002
C        6.72676933       3.20414450      10.78053443      -0.00845647       0.00084334       0.01338911
C        8.05772521       2.67893860      10.29233849      -0.00718856       0.01486415       0.00302902
H        6.75115591       4.29611826      10.83226956      -0.01886419       0.00131977       0.01351054
H        6.53651851       2.82814394      11.79127996       0.00335003      -0.00056347       0.01539874
H        8.82426391       2.87113754      11.04846058      -0.00262430       0.02712485      -0.00452268
H        8.02121385       1.59312036      10.19252535       0.00415134       0.01386234       0.00697074
H        8.31739466       3.12209496       9.33046703      -0.02074675       0.01506665      -0.00056118
H        5.57853656       1.90770585       9.90632204      -0.00332333      -0.01142056       0.02460093
O        7.95521101       4.55969916       7.57503223      -0.00484782       0.00655067      -0.00625554
C        8.63938187       5.50244269       6.76657952      -0.00382754       0.00502315      -0.00557059
C        9.00125407       4.96326181       5.40279277       0.00363730       0.00087997      -0.00228709
H        8.03639768       6.41963073       6.66404803      -0.00682050       0.00260258      -0.01444174
H        9.54021516       5.77555076       7.32533879      -0.00809714       0.01053198      -0.00345966
H        9.49985957       5.71666780       4.79364073       0.01156276      -0.00346367       0.00025871
H        9.65933222       4.10062002       5.49336846       0.00103550      -0.00273065       0.00672063
H        8.12130621       4.64942043       4.84424703       0.00772855       0.00177314      -0.00736830
H        7.32137406       4.05781203       7.02549870      -0.00366274       0.00575035      -0.00576399
O        5.17612158       6.30633949       2.55996575       0.00332787       0.00036269      -0.00691450
C        3.96536879       6.25113389       1.82137941       0.00191179       0.00230762      -0.00477585
C        2.74054153       6.30909694       2.71568318       0.00337777       0.00029186      -0.00266710
H        3.94374290       7.07031530       1.09270882       0.00081006       0.00370091      -0.00248760
H        4.00503542       5.31009681       1.27146505       0.00060361       0.00364748      -0.00683281
H        1.82173696       6.23207391       2.12765532       0.00292036      -0.00285927      -0.00111727
H        2.75373015       5.48964273       3.43523666       0.00671485       0.00059380      -0.00243025
H        2.70190286       7.25455135       3.26064220       0.00149545       0.00024617      -0.00332622
H        5.16097130       7.10467981       3.10007060       0.00442579      -0.00120565      -0.00491235
O        5.69367395      11.99408058      10.41150496       0.00426015       0.00543284       0.00956410
C        5.15880130      10.69062311      10.35974031       0.00326564       0.00630480       0.00776029
C        6.19463689       9.63200973      10.70438028       0.00309360       0.00494483       0.00462393
H        4.30688919      10.59331919      11.05159902       0.00339603       0.00618115       0.00724718
H        4.75955797      10.53384426       9.34958040       0.00393760       0.00862494       0.00713497
H        5.73228617       8.65482537      10.85488058       0.00236139       0.00549943       0.00723112
H        6.93999164       9.53599731       9.91465361      -0.00027385       0.00316666       0.00170001
H        6.70151928       9.91776590      11.62726980       0.00758183       0.00389796       0.00233132
H        6.13338945      12.08043982      11.32370793      -0.00384942       0.00768167       0.01280412
O        2.41155410      11.62683409       1.29047331       0.01887661       0.00850159      -0.04483074
C        3.65572794      11.14987078       1.78854527       0.00554791      -0.00471419      -0.01127607
C        3.52592338       9.66728334       2.01573702      -0.00000207       0.00171787      -0.00871363
H        4.47267729      11.36948096       1.09356618       0.02973211      -0.00954704       0.01186514
H        3.91399961      11.64671099       2.73490914      -0.01885722      -0.00642398      -0.00238538
H        4.48930180       9.24593880       2.30978946      -0.00444712       0.01528717       0.01210254
H        2.77371998       9.46354419       2.77828306      -0.01698986       0.00438080      -0.02103706
H        3.20133862       9.18354234       1.09300353       0.01895729      -0.00919692      -0.01271020
H        2.55968080      12.56341335       1.08701708       0.00765847       0.01775694       0.02189865
O        2.09102693      -0.26524573       8.77322693      -0.01167056      -0.00991190       0.00621164
C        2.38549077       0.64283816       9.85164480      -0.00927823      -0.00490820       0.00853063
C        2.66303033       2.04059440       9.34900810      -0.00250335      -0.00903350      -0.00155646
H        1.51048574       0.61678372      10.50129473      -0.00571117      -0.00121838       0.00317918
H        3.24218242       0.28711988      10.42568099      -0.01051539      -0.00767440       0.00642589
H        2.88315436       2.69302625      10.19571357       0.00876988      -0.00866034      -0.00287756
H        3.55034389       2.05629488       8.71067135      -0.00612533      -0.01558435      -0.00621470
H        1.81444043       2.43249568       8.78833611      -0.00271839      -0.00389223       0.00452846
H        2.75053207      -0.10230113       8.09157860      -0.00716099      -0.01575701       0.00805240
O        5.63825649       9.85521009       5.74351599      -0.01110327      -0.01296800       0.01297459
C        4.46138995       9.08077711       5.59828007      -0.01309493      -0.00813366       0.00323224
C        3.19326030       9.86964199       5.84621013      -0.01128358      -0.00455660      -0.00063390
H        4.42509357       8.62118695       4.60128882      -0.00923111      -0.00400294       0.00144780
H        4.56395760       8.27087359       6.32164721      -0.01996841      -0.01097828       0.00078118
H        2.31121623       9.25150466       5.66524583      -0.01244080      -0.00079092      -0.00651303
H        3.16412673      10.23193653       6.87553055      -0.01449183      -0.00750078       0.00040865
H        3.12617886      10.72377884       5.16769124      -0.00477040      -0.00227883       0.00183623
H        5.60848224      10.58775647       5.11586279      -0.00459059      -0.01242264       0.01335579
O       10.11800309       5.57465342       9.86886081       0.00503972       0.01290035      -0.01570250
C        8.97788953       6.43794141       9.93337981      -0.00256494       0.00070238      -0.00067893
C        8.74834099       6.95299713      11.33309217       0.00450559      -0.01027009       0.00488144
H        9.19937667       7.27048089       9.25919680      -0.01861039       0.00759777       0.00260040
H        8.10550042       5.92069525       9.52805382      -0.00149053      -0.00629461       0.00483543
H        7.93025397       7.67544333      11.35357827      -0.00177470      -0.01765712       0.01575962
H        8.51413068       6.14564648      12.02893240       0.01747044      -0.01698023       0.00130525
H        9.64508503       7.46068897      11.69255573       0.00327891      -0.00467431       0.00016845
H        9.81224713       4.69044246      10.10521928       0.01307566       0.00731632      -0.02623133
O        8.06854285       6.40112793       2.56317106       0.00163704       0.00904888       0.01497128
C        8.47414001       7.76248858       2.52772866       0.00008959       0.00968134       0.00284726
C        7.33404297       8.75323981       2.58606267       0.00010371       0.00954568       0.00779554
H        9.14550589       7.90920738       3.37842449       0.00665507       0.01284842      -0.00309241
H        9.06685783       7.95056370       1.62694200      -0.00712889       0.00540187      -0.00267714
H        7.71185420       9.77907405       2.52572764      -0.00035761       0.00948659       0.00406644
H        6.65958397       8.60089123       1.73953195      -0.00445407       0.00867469       0.01181385
H        6.76889517       8.64338162       3.51709175       0.00529065       0.01079067       0.01099028
H        7.14021147       6.33597011       2.30299891       0.00662655       0.00390866      -0.00289275
O       12.40307163       9.23975904       3.33854937      -0.00102569      -0.01151252      -0.01063196
C       11.45510388      10.12664730       2.70369229       0.00749417       0.00345338      -0.00252056
C       11.35815947       9.90761482       1.21869327       0.00765850       0.02119288      -0.00500107
H       10.46637581      10.02582260       3.16155296       0.00564820       0.00617742      -0.00555837
H       11.81111409      11.13405468       2.90888669       0.01561752      -0.00180712       0.00953533
H       10.55339340      10.52850562       0.81921394       0.01238677       0.03218663       0.00249826
H       12.29997200      10.17822574       0.74550165       0.01049390       0.01811021      -0.00147089
H       11.12739309       8.85936727       0.99789607      -0.00203598       0.02588115      -0.01726683
H       12.18555869       8.34919479       3.04752774      -0.01065351      -0.00611080      -0.01856947
