199
Lattice="13.205946960357863 0.0 0.0 0.0 13.205946960357863 0.0 0.0 0.0 13.205946960357863" Properties=species:S:1:pos:R:3:forces:R:3 energy=-714249.5 stress="-0.003105736803263426 9.829283953877166e-05 -0.00010927861512755044 9.829283953877166e-05 -0.004931590054184198 0.0004041656793560833 -0.00010927861512755044 0.0004041656793560833 -0.004477137234061956" pbc="T T T"
N        4.23235157      12.08732318       5.18691746      -0.01032054       0.01849297       0.00412480
C        4.30269795      12.20334229       6.67401509      -0.00170643       0.00618842       0.00393772
C        4.64287180      10.72682321       4.73154337      -0.01277880       0.02221954      -0.00782806
C        5.16204268      13.08286759       4.56387633      -0.01449084       0.02280337       0.00568873
C        2.82432820      12.34401809       4.74323187      -0.01227796       0.02149186       0.01404209
H        3.57726856      11.53044956       7.12127311       0.00168534       0.00252801       0.00317348
H        5.29959229      11.93707277       7.01495951      -0.00001469       0.00276572      -0.00453423
H        4.07099405      13.22943631       6.94714149       0.00019299       0.00358754       0.01391456
H        4.63521000      10.72195386       3.64573248      -0.01888701       0.03156945      -0.00763637
H        5.63725645      10.50982720       5.11233609      -0.01069744       0.02053354      -0.01494484
H        3.94204280       9.99238415       5.11780476      -0.01035292       0.01942904      -0.00929207
H        5.05882865      12.99435272       3.48435801      -0.02023506       0.02762661       0.00617865
H        4.88088228      14.08065382       4.89107998      -0.01332739       0.02061152       0.01261941
H        6.17531502      12.85305703       4.88824338      -0.01286314       0.02202465      -0.00108166
H        2.79973137      12.32274639       3.65400704      -0.01905458       0.02180924       0.01463649
H        2.19125172      11.57325455       5.17804238      -0.01030818       0.02186431       0.01685639
H        2.53026688      13.32799016       5.09584914      -0.00829961       0.02103429       0.01772015
N        8.88355495      11.41714370       9.42040244      -0.00071516       0.00018314       0.00205982
C        7.44801968      11.82652136       9.36879488      -0.00110066      -0.00029582       0.01461472
C        9.42005196      11.22912218       8.04406626      -0.01276737      -0.00019880      -0.00215167
C        8.96384890      10.14032249      10.19251616       0.00679606       0.00111651       0.00178194
C        9.68282283      12.48256117      10.10579058       0.00554520       0.00057340      -0.00670886
H        7.38053424      12.77434772       8.84291311      -0.00685430      -0.00246540       0.01211380
H        6.87211342      11.04682917       8.87785490      -0.00582604      -0.00153589       0.02238150
H        7.09048131      11.93491292      10.38902316       0.00962156       0.00383049       0.01757053
H       10.47778144      10.98300245       8.12511267      -0.01244856      -0.00061326      -0.01124215
H        8.89835528      10.40533028       7.56258997      -0.01691912      -0.00019780       0.00288805
H        9.30575114      12.16621194       7.50114463      -0.01720662      -0.00039464      -0.00091723
H       10.01373031       9.87279159      10.29434138       0.00773960       0.00311182      -0.00543407
H        8.51040915      10.31625756      11.16637703       0.01304725       0.00081827       0.00444260
H        8.43271651       9.36851181       9.64048150       0.00472748       0.00016303       0.00579709
H       10.70299811      12.12615889      10.22419884       0.00545265      -0.00102191      -0.01282544
H        9.66707365      13.37184038       9.48320298       0.00320220      -0.00209752      -0.00988398
H        9.24562494      12.68457385      11.07562105       0.01314056       0.00451091      -0.00421646
O       10.54315142       1.13011191      -0.86109837       0.02539778      -0.00512120       0.01180959
O       10.76788732       0.64735242       2.00099864       0.00488383      -0.01133168       0.00632346
O       11.70395921       3.17843251       0.94322237       0.03572333      -0.03002048       0.01561961
O       13.15144769       0.74329659       0.29164930       0.01281142      -0.03767920       0.02377254
W       11.55628181       1.44340646       0.58936521       0.01256454      -0.01400146       0.01692660
S       11.75800440       2.97124805       5.41112762       0.00055313      -0.00788414      -0.00147521
O       12.48412594       3.40339044       6.65409319      -0.00234497      -0.02271229       0.00586152
C       12.26968831       1.27910910       5.07707407       0.00183138      -0.00216556      -0.02230137
C       12.59805380       3.75985357       4.03724932       0.00344950       0.00956738       0.01100367
H       11.86317964       0.68052457       5.89149749       0.00254814      -0.01231122      -0.03011648
H       13.36035679       1.23880710       5.08739746       0.00174491      -0.00140028      -0.02374734
H       11.85881523       0.95806567       4.11468712       0.00057815       0.00854307      -0.02555932
H       12.25994926       3.35042083       3.07953199       0.00799958       0.01859464       0.00542508
H       13.67425621       3.66586576       4.18402010       0.00273806       0.00892495       0.01313250
H       12.32560194       4.81348045       4.06891188       0.00221531       0.00850889       0.02261387
S        9.47270682       3.11083311       3.04691491       0.00434685       0.00310564       0.00291622
O        9.16550685       4.48926729       3.58317488      -0.00142640       0.00344861       0.00120342
C        8.51566509       2.96913930       1.53418382       0.01567197       0.00023123      -0.00316882
C        8.50084928       1.95856481       4.03279816      -0.00010836       0.00637802      -0.00045714
H        8.93768385       3.66221602       0.80854922       0.01904985      -0.00171773      -0.00236390
H        7.47257989       3.20693703       1.75341360       0.01397280       0.00050510      -0.01256104
H        8.62136936       1.95216465       1.15851506       0.01919292      -0.00023669      -0.00019742
H        8.62096753       0.98316216       3.56330211       0.00626959       0.00344662       0.00735284
H        7.46241605       2.28889911       4.07700726      -0.00057533       0.00487748      -0.01182176
H        8.92004068       1.95321370       5.03828690      -0.00741694       0.01483601       0.00248756
S        8.91858644      12.40942219       0.55156991       0.00236714      -0.00494480      -0.00006998
O        7.95737025      11.82142317      -0.45910131       0.00073397      -0.00275540      -0.00076878
C       10.42339028      11.43018989       0.37185758      -0.00185066      -0.01018465       0.00105991
C        8.39158203      11.68788010       2.12712242      -0.00075284      -0.00156951       0.00006795
H       10.93822220      11.83493859      -0.49711811      -0.00222780      -0.01501642      -0.00121972
H       10.12780318      10.39172650       0.23170481      -0.00467041      -0.00952318       0.00573223
H       11.05355753      11.57614482       1.24441540      -0.00010056      -0.00842310      -0.00084114
H        9.19986042      11.80986512       2.84523427      -0.00117892       0.00057590      -0.00018983
H        8.13016079      10.64520809       1.95216373      -0.00130201      -0.00167885       0.00305425
H        7.51428076      12.24363381       2.45586047      -0.00061721       0.00010522      -0.00251021
S        2.92721187       2.53655622       3.21953143       0.00094141       0.01601911      -0.00298788
O        2.77994772       3.95358712       3.70119321       0.00435936       0.01770401      -0.00869143
C        4.55018595       2.44511769       2.44694219      -0.00142753       0.01176874      -0.00655931
C        1.91833942       2.36091878       1.75626393      -0.00234267       0.01122215       0.00012416
H        5.27327913       2.61171203       3.24300842       0.00077932       0.01268326      -0.00886999
H        4.62085468       3.24239314       1.70969343      -0.00254053       0.00948498      -0.00874969
H        4.65521580       1.47103004       1.97455560      -0.00355766       0.01060119      -0.00385747
H        2.03328650       1.36049745       1.34830913      -0.01963878       0.00369778       0.01403464
H        2.18355858       3.12533560       1.02763701       0.00908427      -0.00415012      -0.01146196
H        0.87951800       2.49000019       2.04553694      -0.00022767       0.03340207      -0.00167152
S        5.74648925       5.23317559       4.97041524      -0.00834519       0.00782943      -0.00179011
O        5.73967042       3.73812278       5.13024635      -0.00164179       0.00886369       0.00419974
C        6.09391844       5.61423451       3.24799014      -0.01707035       0.00154898      -0.00435364
C        7.33236802       5.78979297       5.60084927      -0.00843394       0.01789862      -0.01116514
H        5.24682974       5.26089898       2.66565043      -0.02201904       0.00360408       0.00216990
H        7.03595185       5.13948960       2.97018060      -0.02130961      -0.00415669      -0.00799381
H        6.20683097       6.69248454       3.14376347      -0.01190379       0.00035647      -0.00791560
H        7.44135174       6.85480923       5.40315352      -0.01879114       0.01918684      -0.00896509
H        8.10080662       5.20370351       5.09361786      -0.00734591       0.02500042      -0.01740119
H        7.34648519       5.63188842       6.67344874      -0.00005553       0.01472815      -0.01188524
S       12.24327463       2.89823976      10.84577687       0.00738406       0.00135708       0.00745273
O       13.06772094       4.02206279      10.29775818       0.00315630       0.00255013       0.00327396
C       13.06411197       1.37688912      10.35007825       0.00944957       0.00299615       0.00619999
C       10.83444367       2.77917642       9.73430141       0.00441045      -0.00326252       0.01270288
H       13.96551081       1.29009242      10.95237517       0.01189610       0.00532517       0.00280736
H       13.28007098       1.42975647       9.28157437       0.00604776       0.00277579       0.00609982
H       12.39773310       0.55751305      10.61051867       0.01251115       0.00144030       0.00849957
H       10.08739754       2.15314263      10.21484010       0.01148583      -0.01205529       0.01159792
H       11.14544215       2.43595625       8.74869167       0.00327437       0.00435900       0.00981082
H       10.45887594       3.79612153       9.65105058      -0.00484045      -0.00627733       0.01991505
S       10.60049493       7.80358972       6.97408979       0.00458646      -0.00643283       0.01182908
O        9.17305460       8.03149980       7.39058939       0.00578249      -0.00679784       0.01334885
C       10.72069002       6.11325835       6.38508907       0.00480261      -0.00805658       0.01699477
C       11.55512316       7.55186266       8.48088146       0.00689816      -0.00115407       0.01071781
H       10.22583252       6.03948459       5.41870124       0.00371817      -0.01114038       0.01796168
H       10.23893957       5.45338103       7.10564472       0.00551659      -0.00478391       0.02000329
H       11.77031041       5.83731099       6.29180248       0.00435258      -0.00877480       0.01697106
H       12.57802467       7.30240414       8.20305926       0.00764337       0.00306984       0.01074954
H       11.10380622       6.74858428       9.06424181       0.01061702      -0.00210334       0.01184767
H       11.54524538       8.48787739       9.03454554       0.00298044      -0.00079191       0.00943705
S        1.35527248       6.68601506       2.57812400      -0.01153224       0.01524186      -0.00737953
O        0.88346791       8.03908561       2.13811712      -0.01231632       0.01308453      -0.01311946
C        2.66943797       6.97764484       3.78317367      -0.01258522       0.01998806      -0.00755236
C        2.42537453       6.06153071       1.26890754      -0.01131183       0.01046818      -0.00382185
H        2.19108968       7.44551481       4.64186325      -0.01267043       0.02811698      -0.01237526
H        3.41183547       7.64485251       3.34104612      -0.00945675       0.01407671      -0.01047672
H        3.10124310       6.02088076       4.06726761      -0.01548287       0.02123117       0.00050910
H        2.93699343       5.18243573       1.65474266      -0.01521184       0.00998433      -0.00038740
H        3.13360931       6.84899943       1.00349450      -0.00868977       0.00760251      -0.00414296
H        1.79599758       5.79466638       0.42087047      -0.01052527       0.01056901      -0.00406189
S        4.88927061       8.11644608      12.43474940       0.00466526      -0.01012391      -0.00405383
O        6.05148562       8.87172492      11.87861426       0.00004828      -0.00827467      -0.01364332
C        5.04226092       6.42608929      11.85190653       0.01511406      -0.01414341       0.01194970
C        3.44569505       8.57734377      11.45086246       0.00442201      -0.02599868      -0.00888163
H        5.82820432       5.94702352      12.43276253       0.01753299      -0.00378239       0.01683278
H        5.33345328       6.47252703      10.80124764       0.01564419      -0.02341375       0.01208119
H        4.08981639       5.90702305      11.93943902       0.01833911      -0.01861248       0.01646121
H        2.57513548       8.01062786      11.78126541       0.00738852      -0.03135224      -0.01091521
H        3.67143254       8.40997757      10.40151237       0.00932528      -0.02872904      -0.00707985
H        3.29506072       9.64552147      11.60353196      -0.00319152      -0.02670705      -0.01368354
S        3.49578940      11.79955617       0.65781326      -0.00045556       0.01553833       0.00270140
O        3.46371469      12.78326649       1.80723223       0.01643009       0.00027788       0.01634324
C        2.62235831      10.35500564       1.27531120      -0.00740224       0.01600581      -0.00921965
C        5.17232390      11.18323025       0.68299990      -0.00656474       0.00012073      -0.01752827
H        1.55725100      10.56441042       1.24548523      -0.00516051       0.02766275       0.00540046
H        2.93161354      10.16887152       2.30281781       0.00220279      -0.00252475      -0.01563676
H        2.83598487       9.47456233       0.67671673      -0.02288324       0.02320924      -0.02503194
H        5.41291075      10.54702700      -0.16704437      -0.02104298       0.00535829      -0.02483776
H        5.37229093      10.66129631       1.62039440      -0.00340544      -0.01010901      -0.02405117
H        5.80715752      12.06168396       0.59855657       0.00217241      -0.00636737      -0.01559105
S        5.45364064       2.17750616      10.90778401       0.00706851      -0.00801694      -0.00513253
O        4.72758047       1.00790029      10.30968817       0.02408803      -0.01743042      -0.00860864
C        6.75374618       1.54951856      11.96919352       0.00406444       0.00868112       0.00685495
C        4.39268605       2.86357400      12.18581210      -0.01107717      -0.01820213      -0.01561630
H        7.35245345       0.87720884      11.36180254       0.01868066       0.01664519       0.01301973
H        6.33253249       0.99993491      12.81135890       0.00378999       0.00395969       0.00341629
H        7.37972444       2.38268220      12.28911980      -0.01069815       0.01761590       0.01150470
H        4.98858915       3.56957698      12.76466516      -0.02301481      -0.01223476      -0.01121981
H        4.03303718       2.04735662      12.81159660      -0.00844159      -0.02077504      -0.01781121
H        3.56879401       3.38607857      11.69843700      -0.01155637      -0.02656077      -0.02296552
S        4.87309955       9.14128397       7.65217391      -0.00102022      -0.00477540      -0.01266813
O        5.01762244       9.90288045       8.92703984      -0.01156412       0.01545095      -0.02376294
C        3.13403686       8.65003178       7.54785291       0.00085682      -0.00849587      -0.01596268
C        5.58560372       7.51476771       7.87365854      -0.00191298       0.00007790       0.01952553
H        2.55050133       9.56617349       7.63195325      -0.00025754      -0.00718184      -0.04175616
H        2.88838813       7.97632473       8.36672995      -0.00582401       0.01015142      -0.00317088
H        2.95111851       8.16043937       6.59183929       0.00747354      -0.02930177      -0.00614242
H        5.29849236       6.90834072       7.01358485      -0.00108016      -0.01272913       0.02887574
H        5.20800630       7.07618065       8.79528197      -0.00509772       0.01694437       0.02584244
H        6.66859481       7.63677019       7.89905671      -0.00216697      -0.00067929       0.02083619
S        9.48977881       5.77410661      11.24082707      -0.00202733       0.00523472       0.00854623
O        8.76521575       4.54643275      11.70196102      -0.02228731       0.01061046       0.00029117
C       11.03909869       5.91381138      12.15925680      -0.00723946      -0.02257800       0.01873112
C        8.62639360       7.15640141      11.97991471       0.01302534       0.01157755       0.00965536
H       11.81636557       5.37732690      11.61465285      -0.00831804      -0.01773040       0.01340377
H       10.90011735       5.46128864      13.14145203      -0.01479600      -0.03767632       0.01016359
H       11.30175046       6.97051486      12.22369813       0.00116522      -0.02597979       0.03969542
H        9.20860958       8.06705441      11.85402675       0.02915553       0.00245257       0.01656306
H        8.46108625       6.95872252      13.04026435       0.00223641       0.01121119       0.00757554
H        7.67784096       7.27948035      11.46573453       0.01857091       0.02768032       0.00374746
S        9.51631739       8.32349758       2.30425702      -0.00090885      -0.00453830       0.00749388
O        8.31516694       7.49927926       1.97028285      -0.01042390       0.00777245       0.01101708
C       10.88927659       7.21709488       2.64638175      -0.01298475      -0.01931751       0.00397417
C        9.24381978       8.88230490       3.99769410       0.01143973      -0.00186929       0.00784326
H       11.29377812       6.89029205       1.69160632      -0.01961464      -0.02392464       0.00313392
H       10.50311496       6.35991787       3.19905079      -0.02097042      -0.01483288       0.00497846
H       11.66733387       7.77081566       3.17217737      -0.00647835      -0.02730970       0.00213578
H       10.07632829       9.49726251       4.33596643       0.01917975      -0.01031941       0.00340527
H        9.10945519       8.01419612       4.63945830       0.00627165      -0.00016752       0.00871799
H        8.32931897       9.47179376       3.97926888       0.01761454       0.00710050       0.01168713
S        7.88915037       2.10369257       8.35516398       0.00259662      -0.01186645       0.00157309
O        8.94105436       1.92703597       7.30169720       0.00889623      -0.03241401       0.01069188
C        6.31950614       1.77998493       7.53153961       0.00725859      -0.00621509      -0.00739396
C        7.67373884       3.87932160       8.68794544       0.01391600      -0.00713485      -0.01801022
H        6.47360706       0.81129559       7.06001415       0.00337999      -0.01044592       0.00099469
H        6.12923301       2.53756880       6.77031741       0.01723686      -0.00961599      -0.01278469
H        5.52461931       1.69696817       8.27295847       0.00235440       0.00424593      -0.01212192
H        7.49263441       4.00975623       9.75342539       0.01851176       0.00482865      -0.01879412
H        6.87068392       4.28511375       8.08018298       0.01388676      -0.01001062      -0.01950648
H        8.62004747       4.34568631       8.42627722       0.01480570      -0.01510356      -0.02741607
S        2.78841236       5.46485665       9.18710272       0.00902486      -0.00775838      -0.01648605
O        2.51938119       5.11492316      10.61098121       0.01381117       0.00299585      -0.01317132
C        1.43696618       4.92901372       8.13178439       0.00194132      -0.00861469      -0.00663662
C        3.98590300       4.26674548       8.58186276       0.00099695      -0.01633906      -0.01330598
H        0.53167547       5.41567808       8.47676281       0.00621438      -0.00290696      -0.00419521
H        1.28068056       3.85794222       8.20941867      -0.00247821      -0.00728583      -0.00091448
H        1.68478449       5.21774239       7.10892903      -0.00310887      -0.01468825      -0.00936534
H        4.15860688       4.40693324       7.51395419      -0.00482684      -0.02395704      -0.01494253
H        3.59620640       3.26744179       8.78459704      -0.00147891      -0.01328231      -0.00405549
H        4.90598402       4.42406767       9.14082281       0.00478993      -0.01594388      -0.02005203
