198
Lattice="12.917914933046031 0.0 0.0 0.0 12.917914933046031 0.0 0.0 0.0 12.917914933046031" Properties=species:S:1:pos:R:3:forces:R:3 energy=-114684.7265625 stress="-0.0029874462634325027 9.013931412482634e-05 -0.00037029785744380206 9.013931412482634e-05 -0.00474371574819088 0.0002960168640129268 -0.00037029785744380206 0.0002960168640129268 -0.0037021287716925144" pbc="T T T"
N        4.33231457       7.62780803       5.68770552      -0.00007984      -0.00741664       0.00420525
C        4.81773714       8.74389140       4.78458199      -0.00620327      -0.00661698       0.00211799
C        4.14761529       8.09627868       7.11700064       0.00139962      -0.00584909       0.00346255
C        5.36463869       6.51272093       5.66289370       0.00453448      -0.00297686       0.00303233
C        2.98734604       7.15773961       5.16364562       0.00132251      -0.01436311       0.00763704
C        6.08712897       9.43481648       5.22230103      -0.01362807       0.00516729       0.00398359
C        3.21448377       9.27034166       7.29563610       0.00156388      -0.00596571       0.00242027
C        5.03247389       5.27770200       6.47010698       0.01083089      -0.00471401       0.00235754
C        2.99091722       6.73189483       3.72021677       0.00006373      -0.01092985       0.00689346
H        4.96425188       8.28536315       3.80927918       0.00018369      -0.00881018       0.00437364
H        3.99059420       9.44740983       4.69873916      -0.01157887      -0.01364572      -0.00275487
H        3.78108030       7.22950132       7.66289585       0.00239594      -0.00496879       0.00524807
H        5.14393229       8.32304624       7.49597082       0.00167960      -0.00500859       0.00171219
H        5.51734369       6.27209720       4.61111030       0.00470260      -0.00220389       0.00315547
H        6.28226484       6.96393741       6.03559401       0.00268093       0.00113533       0.00224155
H        2.66108639       6.36174449       5.83150997       0.00867515      -0.01811348       0.00642473
H        2.31893383       8.00449390       5.29477800      -0.00394671      -0.01926839       0.01178771
H        6.27037702      10.25499369       4.52642364      -0.01531505       0.00039484      -0.00159356
H        6.02472600       9.86440787       6.22152931      -0.02287402       0.01287670      -0.00022766
H        6.95344364       8.77658153       5.17336602      -0.00886419       0.01093480       0.01477400
H        3.21857815       9.54796738       8.34932547       0.00119681      -0.00507869       0.00195980
H        3.53046059      10.15774094       6.74971244       0.00171748      -0.00667101       0.00174980
H        2.18326431       9.04058584       7.02998127       0.00181487      -0.00596805       0.00233211
H        5.80918834       4.54047402       6.26744510       0.01870835       0.00253381       0.00713985
H        5.03372375       5.45787566       7.54382351       0.00357852      -0.00400235       0.00197732
H        4.09110384       4.81259694       6.18121865       0.01670268      -0.01299700      -0.00256795
H        2.00880837       6.32264876       3.48912021       0.00186610      -0.01539852       0.00820309
H        3.13796405       7.56935561       3.04485420      -0.00527413      -0.00888944       0.00851390
H        3.72929496       5.96686325       3.49492514       0.00334926      -0.00670585       0.00404269
N       10.35169253      11.11486475       4.70209366      -0.00414733       0.00990393      -0.01150097
C       11.09651744      11.52324663       3.43971994      -0.00482273       0.00826839      -0.01230592
C        9.46919164       9.91871089       4.42834973      -0.00532991       0.01057333      -0.00943578
C        9.48975519      12.28068908       5.13803471      -0.00286764       0.01071268      -0.01191888
C       11.33368105      10.73308204       5.78022290      -0.00273395       0.01052919      -0.01245892
C       10.23248241      11.63655725       2.21879160      -0.00622505       0.00710273      -0.01100740
C       10.16175010       8.72934430       3.79571329      -0.00684145       0.01047873      -0.00975366
C        8.78696061      12.09328578       6.46520253      -0.00023834       0.01218459      -0.01088050
C       12.23714192      11.83941128       6.26922871      -0.00369108       0.01170018      -0.01449324
H       11.54511134      12.49386544       3.64026731      -0.00560916       0.00822675      -0.01384390
H       11.88225698      10.78244367       3.30770234      -0.00488673       0.00793070      -0.01232316
H        9.04728538       9.63439947       5.39043103      -0.00442924       0.01138818      -0.00908160
H        8.67089188      10.28284971       3.78426770      -0.00580531       0.01119123      -0.00839394
H       10.14200210      13.15219414       5.14182182      -0.00340599       0.01079267      -0.01577493
H        8.77813412      12.43480889       4.32966011      -0.00474110       0.00901104      -0.01105875
H       10.74873543      10.32087289       6.59752739      -0.00105943       0.00968486      -0.01163778
H       11.92666344       9.92284221       5.36253733      -0.00260337       0.01145698      -0.01353273
H       10.90012734      11.97324519       1.42399468      -0.00752996       0.01078761      -0.01060402
H        9.78519360      10.69481483       1.90656987      -0.00368824       0.00685060      -0.01231591
H        9.47724566      12.41508847       2.29774329      -0.00799695       0.00497189      -0.00886524
H        9.39966105       7.98322956       3.56804319      -0.00737631       0.01122893      -0.00979609
H       10.66287404       8.97685307       2.86354496      -0.00694808       0.01026496      -0.00953496
H       10.87586187       8.25889434       4.46926258      -0.00710104       0.01001501      -0.01024261
H        8.12767267      12.94655689       6.62008715      -0.00186393       0.01043017      -0.01170755
H        8.16673543      11.19826063       6.49592399       0.00231953       0.01074350      -0.00795334
H        9.47215080      12.05379980       7.31130960       0.00122505       0.01553184      -0.01199761
H       12.89332295      11.40657559       7.02572208       0.00134365       0.01239009      -0.01858033
H       12.86135175      12.25207932       5.47802283      -0.00915007       0.01538402      -0.01675059
H       11.69200823      12.65538468       6.74406718      -0.00397037       0.00883435      -0.01050373
S       11.09472115       1.94004917       1.34344889      -0.00888777       0.00353068       0.02850935
S       12.54253032       0.75051909       0.41987326       0.00651824       0.02043390       0.03974307
O        9.80417971       1.58088174       0.73462065       0.01189423       0.02537644       0.00736576
O       11.48276987       3.32558567       1.09445666       0.00970477       0.02807617       0.03769740
O       11.10039295       1.58397514       2.77452759      -0.02163355       0.01258269       0.02205634
C       10.69214047       4.79318978       8.93567525      -0.01267991      -0.00318280       0.00201115
C        9.39044239       5.04612077       9.35622333      -0.01257780      -0.00340913       0.00294146
C       11.73981897       5.24575112       9.73479563      -0.01200083      -0.00686268       0.00222338
C       10.99117324       4.00025285       7.69561643      -0.01452927      -0.00082698       0.00034225
C        9.14117631       5.66096738      10.57610868      -0.01138207      -0.00562530       0.00502660
C       11.49900272       5.85548764      10.95513159      -0.01074737      -0.00959105       0.00438252
C       10.19514559       6.04040237      11.39360276      -0.01050831      -0.00876654       0.00513852
H        8.55612927       4.69505556       8.76154162      -0.01244278      -0.00103350       0.00302137
H       12.75564279       5.08299977       9.40654957      -0.01245099      -0.00709539       0.00230447
H       11.78167461       3.27496523       7.89692632      -0.02936453      -0.01579225       0.00389186
H       10.11074415       3.46267855       7.34192832      -0.02015842       0.01669385      -0.01151546
H       11.34825289       4.62295670       6.87199353       0.00501972      -0.00154790       0.00866321
H        8.11836973       5.78501304      10.91003801      -0.01067805      -0.00420768       0.00522593
H       12.33282155       6.14436140      11.58342005      -0.01067644      -0.01293312       0.00495414
H       10.00532123       6.46082016      12.37271934      -0.00905053      -0.01072564       0.00561100
C        2.22459858       5.17023188      10.31191029      -0.00197840       0.00724798       0.00347012
C        1.60239316       4.31966786      11.22587518       0.00079013       0.01202008       0.00728044
C        2.34724471       4.74236476       8.98880501      -0.00231555       0.00374937       0.00502695
C        2.72768050       6.52634473      10.71173844      -0.00019026       0.00826883      -0.00120275
C        1.07628110       3.09687025      10.82609531       0.00148018       0.00745859       0.01296457
C        1.83532645       3.51965291       8.57698385      -0.00234171      -0.00130366       0.01111703
C        1.18024746       2.70840563       9.49735932       0.00166527       0.00382246       0.01490431
H        1.47291182       4.62576567      12.25798543       0.00208177       0.01464185       0.00594085
H        2.82402680       5.39428355       8.26648910      -0.00324834      -0.00136040       0.00210913
H        2.51445644       7.26708350       9.93699871      -0.00605962       0.00780938       0.00044562
H        2.25660467       6.86301060      11.63447772       0.00593229       0.00805163       0.00191067
H        3.80685004       6.52520913      10.88628722       0.00091547       0.00900921      -0.00857633
H        0.55819139       2.46922098      11.54774514       0.00476001       0.01105100       0.01671249
H        1.92347869       3.21361670       7.53935896      -0.00153531      -0.00420571       0.01267247
H        0.73451269       1.77898228       9.17925014       0.00310213      -0.00009705       0.02015996
C        4.35108490      11.90971503       9.01700204       0.00235219      -0.00497056       0.00499648
C        3.62448969      12.55517838       8.01486556       0.00366956       0.00042136       0.00647195
C        3.67519416      11.51731369      10.17249639       0.00017639      -0.00912080       0.00115366
C        5.80907463      11.62222593       8.81805639       0.00236660      -0.00384803       0.00573933
C        2.25493498      12.73918361       8.12857259       0.00389051       0.00222924       0.00575131
C        2.30540351      11.72705275      10.30220423       0.00231895      -0.00962254      -0.00030386
C        1.58605970      12.30702085       9.26860705       0.00222771      -0.00382975       0.00525252
H        4.13741122      12.90365364       7.12625586       0.00447690       0.00412274       0.00950013
H        4.22796931      11.03751567      10.97243695       0.00020568      -0.01369268       0.00056811
H        6.15299345      10.80905709       9.45689525       0.00147953      -0.00454864       0.00558858
H        6.00517848      11.36063899       7.77605472       0.00401198      -0.00266593       0.00630298
H        6.42694033      12.49391260       9.04222124       0.00128317      -0.00410071       0.00754511
H        1.71471116      13.23682495       7.33192917       0.00543423       0.00638524       0.00991111
H        1.78636690      11.45309704      11.21009034       0.00042301      -0.01380470      -0.00071412
H        0.51821509      12.45204592       9.37683570       0.00324589      -0.00275623       0.00407980
C        1.92978650      10.56872172       1.89063340      -0.00496652      -0.00547460      -0.00559932
C        1.56974284       9.86250684       0.74202272      -0.00780541      -0.00805005      -0.00464283
C        1.49147421      10.07126393       3.12140547      -0.00289895      -0.00535477      -0.00507489
C        2.69462657      11.84945092       1.79184085      -0.00613807      -0.00622618      -0.00965547
C        0.77893541       8.72212160       0.80560065      -0.00798074      -0.00722283      -0.00039343
C        0.70577359       8.92506405       3.18980482      -0.00124578      -0.00260771      -0.00068022
C        0.33925749       8.24446093       2.03404908      -0.00518872      -0.00496915       0.00091317
H        1.91597921      10.21970229      -0.21883079      -0.00976544      -0.00959602      -0.00484237
H        1.74513579      10.61197099       4.02995799       0.00067758      -0.00205796      -0.00622786
H        3.32161915      12.02061649       2.66663242      -0.00365689      -0.00504111      -0.01156631
H        3.32567554      11.87056545       0.90223178      -0.00930471      -0.00583189      -0.01147898
H        1.99328002      12.69005022       1.71446543      -0.00668862      -0.00641017      -0.00732535
H        0.50270594       8.20783918      -0.10721011      -0.01055731      -0.00792164       0.00092492
H        0.36812465       8.55678901       4.15310006       0.00028704      -0.00231096       0.00063857
H       -0.27343602       7.35239239       2.08856984      -0.00631927      -0.00327099       0.00409198
C        2.05804489       2.26187761       4.30416773       0.01230829      -0.00959900       0.00036474
C        2.67680497       1.06739743       4.67608074       0.01482958      -0.00583233       0.00763602
C        2.87439774       3.30466975       3.86900291       0.01236632      -0.01355347      -0.01366597
C        0.57357067       2.41955723       4.34167655       0.01291966      -0.00609192       0.00768226
C        4.05856530       0.93226977       4.63576435       0.01207934      -0.00847474       0.00203507
C        4.25749353       3.17886862       3.83117893       0.01109091      -0.01573229      -0.01730946
C        4.86067176       1.99068831       4.22521952       0.01249884      -0.01082705      -0.01092906
H        2.05989042       0.22419320       4.96768979       0.01449665      -0.00289855       0.01971098
H        2.39711751       4.21251263       3.52945749       0.01083150      -0.01727793      -0.02118465
H        0.23031967       3.21923307       3.68679952       0.01188637      -0.00406969       0.01141198
H        0.06051925       1.52797930       3.98952668       0.00963466      -0.00432673       0.00924648
H        0.21927664       2.63919766       5.35508192       0.01945571      -0.00784480       0.00994936
H        4.51376277      -0.01448212       4.90525570       0.01373151      -0.00541763       0.00732429
H        4.86951121       3.99936478       3.47360979       0.00997520      -0.01791468      -0.02696896
H        5.93799355       1.88537176       4.19228622       0.01187351      -0.01293830      -0.01433959
C        7.91419636      11.31536345      11.98433984       0.00203373       0.00141376       0.00380944
C        9.25192226      11.69295286      12.11740129       0.00360294       0.00420773      -0.00735681
C        7.62232301       9.97364705      11.73580647       0.00320536      -0.00050491       0.01343298
C        6.82546169      12.32999877      12.14527179       0.00226542      -0.00016764       0.00534095
C       10.26015789      10.73907632      12.05673096       0.00364751       0.00389372      -0.01026348
C        8.62755686       9.01825325      11.69501163       0.00221409       0.00100127       0.01090125
C        9.95169610       9.39712341      11.87615078       0.00437538       0.00360537      -0.00113691
H        9.50473292      12.72558997      12.33643031       0.00321566       0.00436866      -0.01367466
H        6.59184035       9.66444780      11.59829760       0.00202982      -0.00176766       0.02252104
H        5.87205687      11.85946696      12.38578571       0.00331087      -0.00120258       0.00731546
H        7.07878771      13.03943353      12.93337430       0.00236947       0.00055474       0.00480433
H        6.68726218      12.91867621      11.23815818      -0.00022937      -0.00065763       0.00569251
H       11.28629336      11.05844398      12.20451294       0.00435467       0.00540954      -0.01766450
H        8.37877179       7.98455879      11.50405511       0.00254323      -0.00024934       0.02001260
H       10.73605217       8.65226317      11.84086023       0.00391361       0.00350929      -0.00239884
C        6.08524233       2.48715676      10.87936559      -0.00287543       0.00185619      -0.00588176
C        7.21222949       2.67503679      11.68175253       0.00225133      -0.01172899      -0.01075730
C        6.28355949       2.17915220       9.53237904      -0.00977992       0.00406850      -0.00878429
C        4.69906981       2.53895415      11.44860802      -0.00029463       0.01377586      -0.00268701
C        8.49492477       2.50613409      11.18244443      -0.00184995      -0.02174990      -0.01274450
C        7.56739365       1.99868344       9.02681332      -0.01386398      -0.00371558      -0.01274066
C        8.67211591       2.13509810       9.85632374      -0.00929883      -0.01752889      -0.01891275
H        7.09619301       2.90205412      12.73543995       0.00781299      -0.01429018      -0.00875185
H        5.42003296       2.03056389       8.89251817      -0.01377904       0.01316229      -0.00515100
H        4.01764186       1.89963742      10.88586990      -0.00874265       0.02415164      -0.00392564
H        4.69133311       2.20849896      12.48887168      -0.00121423       0.00910055      -0.00425485
H        4.28181128       3.54708799      11.42069185       0.01093452       0.01838100       0.00326607
H        9.33830750       2.62802139      11.84767095       0.00032437      -0.03465829      -0.01581609
H        7.70186243       1.74140468       7.98258032      -0.02013727      -0.00016528      -0.01545067
H        9.67382882       1.98611041       9.47407692      -0.01295415      -0.02411226      -0.02160411
C        9.88952011       7.46845543       7.02165950       0.00247328       0.00564516      -0.00605984
C       11.26001137       7.52992184       7.26948267       0.00281106       0.00255105      -0.01218429
C        9.05727395       8.35976619       7.70378009       0.00593239       0.00488124      -0.00087774
C        9.30426980       6.44445746       6.09476875      -0.00233980       0.00835249      -0.00634979
C       11.78097640       8.43834677       8.18485363       0.00826424      -0.00054960      -0.01242073
C        9.57306316       9.28463807       8.60048356       0.01218793       0.00159047       0.00046832
C       10.94251125       9.32376545       8.84661289       0.01282677      -0.00193837      -0.00606661
H       11.92149776       6.83072565       6.77007633      -0.00065589       0.00225580      -0.01654215
H        7.98348147       8.31009311       7.54425294       0.00635178       0.00768922       0.00456644
H        8.51437155       6.87019372       5.47266709       0.00075437       0.01232933      -0.00731122
H       10.05497823       6.01669033       5.43139364      -0.00385970       0.00498542      -0.00552259
H        8.86491777       5.62152216       6.66361268      -0.00646704       0.01049381      -0.00658399
H       12.84372235       8.44402658       8.39872176       0.00960422      -0.00274533      -0.01764480
H        8.91289835       9.96183757       9.12734592       0.01542649      -0.00005435       0.00536194
H       11.33826038      10.03120749       9.56222106       0.01714842      -0.00519148      -0.00573708
C        5.51710817       7.95139382       1.07735779       0.00401873       0.00095963       0.01395509
C        4.35184830       7.24032153       0.78890556       0.00737607      -0.00241833       0.00613201
C        6.70216846       7.23541235       1.26375800       0.00476548       0.00547435       0.01693770
C        5.46530447       9.44659590       1.19195628      -0.00393054       0.00039878       0.01741432
C        4.35489870       5.85368212       0.73662523       0.01460293      -0.00377409      -0.00068169
C        6.71527322       5.84460046       1.19430288       0.01198040       0.00694520       0.01144423
C        5.53488610       5.15151326       0.94821761       0.01808010       0.00221822       0.00164708
H        3.43128364       7.78855881       0.62149758       0.00637493      -0.00733908       0.00526637
H        7.62737225       7.77613567       1.43022281       0.00221571       0.00981188       0.02420361
H        6.45933630       9.89032371       1.18472110      -0.00500599       0.00367163       0.03345499
H        4.89657536       9.87847767       0.36641389       0.00803274       0.00065322       0.01004481
H        4.94533940       9.76344935       2.10057937      -0.01895109      -0.00449819       0.00989586
H        3.43726110       5.31560511       0.52966591       0.01920137      -0.00633811      -0.00740840
H        7.64498833       5.30055590       1.31610113       0.01448803       0.01008384       0.01506548
H        5.53118243       4.07133448       0.90857443       0.02346330       0.00253586      -0.00437272
