198
Lattice="17.405136075090375 0.0 0.0 0.0 17.405136075090375 0.0 0.0 0.0 17.405136075090375" Properties=species:S:1:pos:R:3:forces:R:3 energy=-1426355.375 stress="-0.0005958309047855437 -7.879931945353746e-05 -0.00012011920989607461 -7.879931945353746e-05 -0.0007512971642427146 -1.2562368283397518e-05 -0.00012011920989607461 -1.2562368283397518e-05 -0.0002443804987706244" pbc="T T T"
N       13.72827939      15.07049405      12.17342581       0.00597189       0.00092930       0.00628317
C       14.04562586      13.71873478      12.79628392       0.00628956       0.00226939       0.00694126
C       14.94846483      15.97705796      12.16735833       0.00305030       0.00276536      -0.00537522
C       12.64532823      15.74104797      13.00279966       0.00100294      -0.00378699       0.00285178
C       13.28672698      14.84758547      10.74311243       0.00783354      -0.00326322       0.00513285
C       14.70139971      13.75663581      14.15683725       0.00177364      -0.00203857       0.00584495
C       16.15114947      15.43343273      11.43312004       0.00541893      -0.00411561       0.01012453
C       12.15803822      17.07226464      12.47545824       0.00361955      -0.00099745       0.00639565
C       11.97805880      14.10955121      10.56159446       0.00153735       0.00495239       0.00509255
H       13.09346477      13.19116301      12.84619388       0.00797525      -0.00121252       0.00367711
H       14.67497024      13.20231876      12.07322895       0.01004681       0.00180541       0.00581084
H       14.61397764      16.89978993      11.69659231       0.00551614      -0.00321940       0.00154772
H       15.17815196      16.19635986      13.21092518       0.00465343       0.00560829       0.00706637
H       11.82972754      15.02227029      13.06555123       0.00971237      -0.00065255       0.00934944
H       13.07488918      15.86662655      13.99524321       0.00886181       0.00367841       0.00717762
H       13.24543055      15.83515033      10.28358333       0.00392301       0.00273451       0.00546131
H       14.09681698      14.29450493      10.27093939       0.00280306       0.00263935       0.00584073
H       14.82765380      12.72092862      14.47526032       0.00836352       0.00457838       0.00472224
H       15.67839996      14.23279125      14.14970922       0.00355165       0.00847396       0.00966001
H       14.10419568      14.26223250      14.91140500      -0.00051214      -0.00130542       0.00650111
H       16.94874461      16.16391534      11.55494113       0.00711365       0.00008500       0.00726505
H       16.51758711      14.49409400      11.84608142       0.00401152       0.00177434       0.00673996
H       15.98562587      15.31039559      10.36234104       0.00785899      -0.00155939       0.00454189
H       11.30271412      17.36109527      13.08546640       0.00595859      -0.00083433       0.01075222
H       12.90184247      17.86061802      12.57484818      -0.00076334      -0.00372030      -0.00697240
H       11.81031649      17.03355324      11.44322111      -0.00962891      -0.00914092       0.00603944
H       11.81018603      13.98426047       9.49078061       0.00539178       0.00228913       0.00405914
H       11.99306375      13.11158754      10.99419061       0.00444344      -0.00140819       0.00395603
H       11.12730183      14.65996021      10.95704705       0.00610258      -0.00096700       0.00381963
N       14.13220384      15.84298803       4.95129094       0.00016518      -0.00275662      -0.00560215
C       14.11529717      15.72749554       3.42247375       0.00801914       0.00168145      -0.00390482
C       12.84272133      16.44897361       5.47097612      -0.00090033      -0.00638369      -0.00167319
C       15.27411518      16.76267906       5.33926452      -0.00278884      -0.00028813      -0.00071287
C       14.31553746      14.46425386       5.55602906      -0.00401372      -0.00214708      -0.00135848
C       13.77056372      16.99356321       2.67414636       0.00667851      -0.00249881      -0.00511062
C       11.56597002      15.74037466       5.07485069      -0.00034204      -0.00089020      -0.01174273
C       15.58002180      16.87650292       6.81846998      -0.00482035      -0.00654833       0.00131434
C       15.64668624      13.80264133       5.27443849      -0.00114641      -0.00336212      -0.00678409
H       15.11131373      15.38711988       3.14615890       0.00226736      -0.00277201      -0.00126196
H       13.41139613      14.92701804       3.19592337       0.00121388      -0.00125700      -0.00694713
H       12.94710292      16.46607201       6.55499284      -0.00417363      -0.00067910      -0.01005420
H       12.83917822      17.47938155       5.11938855      -0.00068824      -0.00029778      -0.01007807
H       16.14603778      16.41580374       4.78796408       0.00127444      -0.00284572       0.00146142
H       14.99766831      17.73446317       4.93946901       0.00163350      -0.00366378       0.00010487
H       14.16195174      14.58412477       6.62922054      -0.00370072      -0.00396400      -0.00694501
H       13.50115080      13.85426680       5.16839590      -0.00245962      -0.00175048      -0.00678827
H       13.95999826      16.79993109       1.61804454       0.00622323      -0.00081502      -0.00291544
H       12.72556383      17.28391025       2.78617848       0.01011549       0.00471648      -0.00258605
H       14.41186590      17.83456419       2.93050570       0.01340805      -0.00160898      -0.00418943
H       10.74004470      16.25767991       5.56460619      -0.00156313       0.00078622      -0.01674467
H       11.38215919      15.77367476       4.00183326       0.00520734      -0.00970030      -0.00935236
H       11.53075925      14.70450274       5.40728641      -0.00304082      -0.00231044      -0.00252278
H       16.40325779      17.58492291       6.91798458      -0.00610405      -0.00418344       0.00512227
H       14.75148648      17.27824874       7.40027682      -0.00766481      -0.00659116      -0.00084943
H       15.90915586      15.93683343       7.26119448      -0.00633037      -0.00453210      -0.00015215
H       15.64976171      12.85073490       5.80493033      -0.00348070      -0.00393042       0.00012290
H       15.79491807      13.58587416       4.21816709      -0.00380528      -0.00749428      -0.00125331
H       16.49891255      14.37353788       5.64057487      -0.00262286      -0.00441259      -0.00582601
S       15.87922858      -0.04898218      -1.02797688      -0.01998301      -0.00714354      -0.03687632
O       16.02265995      -0.94745248       0.14410856      -0.01835015      -0.00043333       0.00881195
O       14.86813654       0.98892913      -0.70931864      -0.01279652       0.02613401       0.00242686
O       17.16781994       0.62133637      -1.31109464      -0.00328398       0.00361347      -0.00110441
O       15.44360374      -0.83186827      -2.20833612      -0.00970703       0.03086555       0.02261138
Cl      10.75924579       2.83889207      13.26550983      -0.02191209       0.00298434       0.00865933
Cl      12.35287355       4.82543338      11.88631579       0.00448254      -0.01126660       0.02001332
Cl      10.06123711       5.64008203      13.47836073      -0.00121595       0.00868022      -0.00223273
Cl       9.66500274       4.24806542      10.97266448       0.00715066       0.00762565      -0.00295222
C       10.71071420       4.39024945      12.39939114      -0.00314207       0.00163022       0.00559729
Cl       5.44046542      12.41540554      -0.54381228      -0.00426873      -0.00997200       0.00548670
Cl       4.09945768      11.95019216       1.98682460      -0.00166547      -0.00062188       0.00886141
Cl       6.68096565      13.28886763       1.92813738      -0.00104654      -0.00276396       0.00106953
Cl       6.49358003      10.45929267       1.31751277      -0.00422376      -0.00448009       0.01050469
C        5.66940216      12.02192739       1.16657974      -0.00272862      -0.00430262       0.00648397
Cl      -2.04090732       6.22641156      17.97501044       0.00767222      -0.01346936      -0.00434580
Cl      -0.61294911       7.07292883      15.59273853      -0.00221980      -0.00450021      -0.00656313
Cl      -0.92002355       4.24218668      16.19576187       0.00853748      -0.00656658      -0.01128614
Cl       0.84764141       5.91567024      17.78327091       0.00784951      -0.00528214      -0.01322332
C       -0.67670191       5.85001431      16.87579649       0.00537381      -0.00747422      -0.00910632
Cl       8.27867243       8.66369853      10.96094344       0.00659329      -0.00921057      -0.01709566
Cl      10.72525659       8.89545118       9.42016038       0.00800516       0.01748949      -0.01007544
Cl      10.01831913      10.93625426      11.37360802      -0.01047915       0.00056982       0.00050971
Cl       8.52495924      10.70267270       8.89949424      -0.00348632       0.00438732      -0.00410479
C        9.38092742       9.79211720      10.16070920       0.00018342       0.00341190      -0.00755647
Cl       4.20803152       3.59685062      17.71008588       0.00531560      -0.00277528       0.00499678
Cl       2.73936490       3.56692906      15.20835735       0.01934704       0.00405079      -0.00270894
Cl       3.08575711       1.12052752      16.71113885      -0.00259805       0.00299692      -0.00045179
Cl       5.35225337       2.32302709      15.36192428       0.01183069      -0.00946545       0.01234007
C        3.83820286       2.64667559      16.24975546       0.00809769      -0.00132382       0.00393691
Cl       2.84301390      13.15580352       8.58377352      -0.00943767      -0.00415656       0.00840813
Cl       4.62135569      11.65586889       6.84209913      -0.00802061      -0.00533632       0.01133409
Cl       2.07282670      12.59099639       5.84911319      -0.00384474      -0.00003580       0.00613680
Cl       2.17206886      10.44263072       7.80439209      -0.01252587      -0.00180441       0.00383863
C        2.92429118      11.95827763       7.27065443      -0.00850846      -0.00288800       0.00745971
Cl       8.41230886       7.58545095      17.81154721       0.00237520       0.00983720      -0.01612295
Cl       7.30762203       7.89097559      15.14662112      -0.00144922       0.00026911      -0.01553625
Cl       5.56816983       7.18342354      17.35841614       0.00343582      -0.00136080      -0.01171483
Cl       7.48601016       5.25799983      16.35563976       0.00866785       0.00375956      -0.01019259
C        7.18733071       6.97610994      16.66729254       0.00313218       0.00346458      -0.01321235
Cl       1.03860312       6.60837912      12.22755042      -0.00555827      -0.00447968      -0.00918494
Cl       2.98173481       8.60523826      11.42249248      -0.00353019      -0.00425644      -0.00303090
Cl       3.09378245       7.46847843      14.08872503      -0.01332450      -0.00222117      -0.00205866
Cl       0.94474047       9.28083681      13.36186667      -0.01139879      -0.00397286      -0.01174675
C        2.02318754       7.98996110      12.77916865      -0.00850268      -0.00365596      -0.00643939
Cl      10.90243159      15.17115801       0.41471113       0.01144342      -0.00054866      -0.00905544
Cl      12.37759193      17.40311874      -0.72680017      -0.01347280       0.02181244       0.00753862
Cl       9.89461248      17.87571334       0.70414613      -0.01423109      -0.01329246       0.01986974
Cl       9.82880555      16.57706605      -1.88496448      -0.00876302       0.01140560       0.00764513
C       10.77077571      16.77195811      -0.37912621      -0.00596514       0.00603937       0.00668418
Cl       4.00646014      15.19328838       3.70023329       0.00287127       0.00437410       0.01157586
Cl       2.21824196      17.00214632       2.31950785      -0.00326281      -0.00289932       0.00951156
Cl       1.81351158      16.41427986       5.13590336      -0.01097808      -0.01418729       0.00618118
Cl       1.27606955      14.39672066       3.10761165       0.01020390      -0.01145564      -0.00204318
C        2.34128000      15.75808966       3.55053793      -0.00001022      -0.00643533       0.00682195
Cl       7.09222917       3.20769909       3.08055788      -0.00133457       0.01126170       0.00177327
Cl       8.42359219       0.82400261       4.05319951      -0.00693211       0.00500558      -0.00646334
Cl       6.18368496       0.58891412       2.22020276      -0.00471367       0.01653966      -0.01055163
Cl       5.73918287       1.45315060       4.95379030      -0.00670952       0.00586274      -0.00777724
C        6.85040683       1.52290955       3.56847427      -0.00456619       0.00956481      -0.00606728
Cl      15.08150153       4.10874130       6.52799506       0.00469722      -0.00527447       0.00771267
Cl      12.31418602       4.37781264       7.36897059      -0.00105400      -0.00850347      -0.01135652
Cl      13.31731164       5.93787753       5.13400863       0.01229575      -0.00190409       0.00064263
Cl      14.18272009       6.54885293       7.83130562      -0.00360987      -0.00904877       0.00740242
C       13.72343305       5.24210886       6.71607698       0.00334340      -0.00602145       0.00103595
Cl       3.16123729       1.16446459      12.08477699       0.00470583       0.00241107       0.00529145
Cl       1.28823336      -0.20671224      13.82215370       0.00231552      -0.00460315      -0.00350755
Cl       4.04210265      -1.08206201      13.70207865       0.00264731      -0.00367224      -0.00242841
Cl       2.32025722      -1.52554387      11.41365787       0.00646109       0.00515905      -0.00658184
C        2.68471792      -0.40357270      12.77388350       0.00411125      -0.00013468      -0.00158297
Cl       0.06792584       7.62196942       5.87997834      -0.00239967       0.00051263      -0.00686666
Cl       1.59838077       9.23757339       4.03140897       0.00424340      -0.00006099      -0.00240141
Cl      -0.91885750      10.23145576       5.08742157       0.00283226       0.00126252      -0.00835919
Cl      -0.90409811       8.04666650       3.18438758       0.00621198       0.00179580      -0.00947291
C       -0.03947804       8.77932849       4.54127542       0.00278827       0.00084549      -0.00675040
Cl       3.54391293       6.78896678       8.03894986      -0.01420479      -0.00256139       0.00914696
Cl       4.23470506       4.02504352       7.45337874      -0.00207761       0.00153366       0.00629123
Cl       3.38073056       5.81555960       5.32967420       0.00434985       0.00381840       0.00588226
Cl       1.48033832       4.87318617       7.32801388      -0.00407910      -0.00676757      -0.00771145
C        3.16427821       5.37992498       7.03192871      -0.00399883      -0.00105000       0.00348834
Cl      17.49437945      11.55998244       1.72975873      -0.00169721       0.00550820      -0.00929523
Cl      16.07221734      13.71808939       0.37933843      -0.02063429       0.00718153       0.01392215
Cl      14.60812509      11.75981976       1.93850460      -0.00058290      -0.00840846       0.01272205
Cl      15.84121619      10.95987744      -0.55981431      -0.01475275       0.01333153      -0.00060537
C       16.01493855      12.02195778       0.85416757      -0.01006295       0.00512381       0.00495275
Cl       6.15241124      13.24891554      12.33224104      -0.00368826      -0.00447291       0.00959105
Cl       5.53513656      10.63823763      13.43685781      -0.00338730      -0.00794300       0.00150055
Cl       5.30497670      11.11530629      10.57860205      -0.00287554       0.00057566       0.00322494
Cl       3.40563249      12.31997258      12.41642122      -0.00337046      -0.00552373       0.00654008
C        5.09500409      11.82774282      12.19597957      -0.00322556      -0.00427459       0.00517882
Cl       6.99239717      13.94263398       8.44082178       0.00917765      -0.00273298      -0.00110111
Cl       8.03435627      16.45600415       7.44631797       0.00143655      -0.00318640      -0.00989037
Cl       5.19399567      15.89162518       7.27218981       0.00276124      -0.01026716      -0.00361730
Cl       7.06606153      14.45460665       5.58570625       0.00308468      -0.01086522      -0.00252412
C        6.81460188      15.18424456       7.18823175       0.00410403      -0.00665715      -0.00431009
Cl      14.34650980       9.71969197      14.10521371      -0.00253690       0.00379024      -0.00727377
Cl      12.28961932       8.47829985      12.49521981       0.00245151       0.00420531      -0.01416597
Cl      13.21925770       7.17658624      14.91088945       0.00061517      -0.00015137      -0.01610145
Cl      14.93891267       7.32835764      12.57515040       0.00391814       0.00866936      -0.01255612
C       13.69226023       8.15746126      13.52336679       0.00121230       0.00408422      -0.01254866
Cl       8.89225168       0.73228348      10.58418278       0.00300989      -0.00076623      -0.00099370
Cl       6.27960308      -0.52483608      10.70537520       0.00275689       0.00044713      -0.00563487
Cl       7.64127441       0.22730104      13.14504542      -0.01012028       0.01738514      -0.00374721
Cl       8.63261364      -1.98254370      11.55732627      -0.00211921       0.00630467       0.01747456
C        7.84745159      -0.37640833      11.49500272      -0.00150490       0.00580205       0.00182087
Cl       9.75069315       6.92969314       5.99079973      -0.00879008       0.01162498       0.00220362
Cl       7.83910781       6.83057867       3.81175930      -0.00562345       0.00855343      -0.00068599
Cl       7.21606712       8.32507985       6.22114689      -0.01095924       0.00772458      -0.00165275
Cl       7.28540592       5.42992795       6.29596751      -0.00676632       0.00815332      -0.00106604
C        8.02280693       6.87404602       5.58582369      -0.00804303       0.00892688      -0.00027101
Cl      -0.41987238       1.85859240       4.30419646       0.02393931       0.02026308       0.03631657
Cl       0.37383916       2.50123582       1.60413949      -0.02954043      -0.00935465       0.01172757
Cl       2.26596950       2.80843042       3.79163173       0.01242572       0.01517533      -0.02886203
Cl       0.01449322       4.61682388       3.56787108       0.00754108       0.01132572      -0.00479292
C        0.57447083       2.96243551       3.28590141       0.00280754       0.00892359       0.00327992
Cl      17.17657577       1.63073397       9.97623204       0.00773430      -0.00040090       0.00261730
Cl      16.12175763       4.30394772      10.38455797      -0.00211034      -0.00580609       0.01222818
Cl      15.78969757       2.27482680      12.43714897       0.00941877      -0.01344994       0.00635576
Cl      14.31022965       2.08993176       9.94254844       0.00604963      -0.01172298       0.00861749
C       15.85575552       2.57978126      10.69991760       0.00548911      -0.00788149       0.00785896
Cl       9.96204395      11.99862173       5.60051994       0.01342899      -0.00501311       0.00804001
Cl       9.81157738      10.01789765       3.49180601      -0.00016992      -0.00231168       0.00748618
Cl      12.38205530      10.70923660       4.64994374       0.00750776      -0.00278970      -0.00926185
Cl      10.99433811      12.61423065       2.96048519      -0.00448286      -0.00198379       0.00158641
C       10.77450752      11.32598180       4.17253540       0.00402136      -0.00287706       0.00193131
Cl       3.91430994       4.88850832      11.32099531      -0.00350821      -0.00736402       0.00241332
Cl       6.06314093       2.99693518      10.89677276       0.00183403       0.00178277      -0.01248716
Cl       6.33067725       5.07955995      12.90079909      -0.00428984      -0.01345141       0.00314772
Cl       6.39486909       5.75834485      10.08617441      -0.00666368       0.00831226       0.00793555
C        5.67443978       4.68330695      11.30420717      -0.00310338      -0.00268412       0.00020650
Cl      10.38222550      12.81551713      14.55125713       0.00854605       0.00429392       0.00421977
Cl      12.21649971      11.88921821      16.60611740      -0.00023800      -0.00933880       0.00507560
Cl      10.53141112       9.99291798      15.21488524       0.00215495       0.00061625      -0.01140878
Cl       9.35450199      11.85863889      17.08494627      -0.00168037      -0.00865195      -0.00469303
C       10.62061238      11.62923454      15.87580552       0.00200492      -0.00343942      -0.00178570
Cl      16.03374335       9.44772353       8.69898674       0.00428766       0.00897849      -0.00038022
Cl      16.15983370      12.31636630       9.07128979       0.00420767       0.00751430       0.00948903
Cl      14.28646336      10.71513071      10.61859516      -0.00652638       0.00432744      -0.00726163
Cl      13.84519405      11.11768781       7.78495449       0.01124948       0.01303022      -0.00836271
C       15.08220061      10.88806236       9.04623314       0.00343657       0.00863818      -0.00148767
