197
Lattice="12.664154035067051 0.0 0.0 0.0 12.664154035067051 0.0 0.0 0.0 12.664154035067051" Properties=species:S:1:pos:R:3:forces:R:3 energy=-1037722.0625 stress="0.0005861870013177395 -0.00010675888552214019 -0.00012737208453472704 -0.00010675888552214019 0.0010402541374787688 0.0002051644041785039 -0.00012737208453472704 0.0002051644041785039 0.0017785466043278575" pbc="T T T"
Tm      11.75828476      12.54684049       6.31363428      -0.00438682       0.00341329       0.00030644
Tm       2.77870247      12.74093443       8.63606336      -0.00452368      -0.00394240      -0.00282124
O        1.42043488       7.89382912       1.36836510       0.00944012      -0.01363575       0.00018144
O        2.37100177       7.58596073       3.96242306       0.00168034       0.00430818      -0.01114902
O        3.86254348       6.96082310       1.72466659       0.00334430       0.00332030      -0.01180053
O        1.76577566       5.44975004       2.27476562       0.00377351      -0.00964177      -0.00596469
Cr       2.35231505       6.94710976       2.25718808      -0.00838594       0.02707696      -0.02226079
Cr       3.48048903       8.87913830       4.39012172       0.00750440       0.00044939      -0.00302151
O        4.91825240       8.26281806       4.65071749      -0.00516200       0.00913423      -0.00394562
O        3.51868126       9.92785469       3.20834522       0.00290762       0.01068830      -0.00354010
O        2.89535528       9.61655876       5.80388625      -0.00198422       0.00366569      -0.00519592
O        8.85051424       9.85921326       7.36215302      -0.01417875       0.00593790       0.00017118
O        6.18293250      10.58157990       7.52104897      -0.00733089       0.00146762      -0.00515700
O        8.12469051      11.59060771       9.19372681      -0.00926140       0.00937212       0.00011504
O        7.42288937       9.05268338       9.44345856      -0.01086348       0.00142705      -0.00698984
Cr       7.69580961      10.24807961       8.41448845      -0.00214243      -0.00599638      -0.01718670
Cr       5.61077707      11.83443143       6.43104555       0.00837740       0.00155085      -0.01283914
O        4.02279442      12.12502985       6.79133243       0.00320947      -0.00231859      -0.02834516
O        6.45132611      13.17348562       6.67636033       0.00522965       0.00302362      -0.00084722
O        5.77382326      11.35859725       4.92554655       0.03750677       0.00062081      -0.01112199
O        1.40751628      11.68521215      10.14727698      -0.01140648      -0.00182247      -0.00662041
O        2.35202117      10.48544688       8.06143835      -0.00142431      -0.00087202      -0.00139660
O        0.15779923       9.41651131       9.29564818      -0.01173091      -0.01493049      -0.00382404
O        2.52880106       9.23371628      10.44480256      -0.01827067       0.01809698       0.00093561
Cr       1.56046369      10.13503150       9.53064393       0.02896222      -0.00879955       0.01803991
Cr       1.71799039      11.07562395       6.13276486       0.00283318       0.00609237      -0.00124934
O        0.25001704      10.40761749       6.13836593       0.00256628       0.00164813      -0.00779426
O        1.29132487      12.54783068       7.00014833      -0.00432614       0.00243789       0.00402352
O        1.91530217      11.69318483       4.68632320       0.00686011       0.01508209       0.00552350
N        5.47410953       4.20594918       3.73341712       0.00509300       0.00352132      -0.00733215
H        6.47987448       4.29946436       3.57897227       0.00725488       0.02143063      -0.00450392
H        5.15374068       5.15812389       3.88800042      -0.00991948      -0.00756466       0.00772844
H        5.09630113       3.95475392       2.82225492       0.01537751       0.01174472      -0.01337130
N        2.22123424       2.51221200       0.66557641      -0.00637305      -0.00375877       0.00580858
H        2.78815141       2.02757753       1.35933282      -0.00933025      -0.00520051       0.00995778
H        1.28493742       2.13122040       0.73762707      -0.00799702      -0.00508461       0.00615367
H        2.17909810       3.48684807       0.95324941      -0.00491298      -0.00773181      -0.00063633
N       11.54501067       1.84229749       7.70479027      -0.00180970       0.00825757      -0.00700394
H       12.46458105       2.21250517       7.93438429      -0.00142330       0.00990955      -0.00757697
H       11.03141955       1.71845660       8.60994460      -0.00015649       0.00660730      -0.00617937
H       11.08090084       2.60387917       7.20777736      -0.00311258       0.00921615      -0.00536399
N        8.39839279      11.02632621       2.89177693       0.00960524       0.00773931      -0.00542085
H        7.61052119      10.79761367       3.49140048      -0.01012792       0.02297805      -0.00848205
H        9.02063707      10.22512996       2.90250574      -0.01299968       0.00438143       0.00817228
H        8.05477077      11.10768420       1.93018315       0.01331071       0.00934339      -0.00400616
N        4.34841948       4.78830330       9.48440465       0.00108162      -0.00780294      -0.00317886
H        4.95328498       4.37251954       8.77817860      -0.00192161      -0.01194519      -0.00159930
H        3.93003676       5.60195025       9.04274006       0.02523769       0.01033403      -0.00334006
H        3.60056707       4.13240568       9.67262253      -0.01906890       0.01524779      -0.02300902
N        7.44564855      11.09032266      12.47848707      -0.00727876      -0.00546306      -0.00094743
H        7.81173777      10.22722658      12.08711797      -0.01611082       0.00367999      -0.00110117
H        7.73287736      11.81150197      11.82429860      -0.01295172       0.00065893      -0.00438516
H        6.43315052      11.01919801      12.40578924      -0.00754917       0.00386052       0.00771160
N        8.09830445       6.31881572       7.75046326       0.00997297      -0.00214247      -0.01263475
H        8.16465981       6.69650068       6.80132612       0.00462432      -0.00307227      -0.00999001
H        9.05139951       6.25944161       8.10370411       0.00565988      -0.00083851      -0.01343246
H        7.66499374       7.05426252       8.30251384       0.00809065       0.00145650      -0.00984001
N       11.30125619       6.17845510       1.62086815      -0.01057484       0.01389097       0.00064126
H       10.84157012       6.63087684       0.83255753      -0.00463648       0.00315526       0.00267947
H       11.16721762       5.17493314       1.51837163      -0.00728096       0.00970590       0.01295474
H       12.29679147       6.35847809       1.54640923      -0.00403705       0.01084250       0.00150890
N       10.06635957       1.58956769      10.19003787       0.00243108      -0.00165312      -0.00040338
H       10.17538995       2.54051751      10.56400437       0.01015859      -0.00060305      -0.00131420
H       10.40754629       0.96355780      10.91558080       0.00725952       0.00048316      -0.00993600
H        9.06675824       1.44391367      10.07315779       0.00068599       0.00552285       0.01172347
N       10.32097425       4.48018622      11.13091577      -0.00980373      -0.00119309       0.00384133
H        9.40207962       4.71771654      11.49842048       0.01943311      -0.00637304      -0.00214113
H       10.40780815       5.01253763      10.26770528       0.01545149       0.00194384       0.01293361
H       10.99543669       4.87728007      11.77384405       0.01064560      -0.00017779       0.01773649
N       12.17716644       1.78112731       4.86108809       0.00347794      -0.00290596      -0.00934216
H       11.49540396       2.51848572       5.05488293       0.01608400       0.00875612      -0.00538595
H       12.07437040       1.54036135       3.88110138      -0.00698378      -0.00042028      -0.00862426
H       13.10381408       2.22376435       4.93893310       0.00982854      -0.01776554      -0.01381224
N       11.00056175       2.84866356       1.67265654      -0.00588403       0.00921458       0.00214764
H       11.97232087       2.84872653       1.95517082      -0.01531544       0.00931394       0.00947698
H       10.91451234       2.23060762       0.87318085      -0.00004676       0.01431786      -0.00664704
H       10.44962079       2.46360649       2.43197451      -0.01496145      -0.00426933      -0.00605650
N        1.74274674       6.30434495      10.76491069      -0.01444179      -0.00773591       0.01299734
H        1.41030256       5.97647144      11.66586914      -0.02874081       0.01183718       0.01563069
H        1.50037393       7.29147034      10.72736901       0.01042377      -0.00114901       0.00459541
H        2.75583084       6.30091843      10.83944797      -0.01762244      -0.03438731       0.01881326
N        4.35523264       7.83723869       8.27133195       0.00936589       0.00244550       0.00272209
H        5.23253345       7.78680991       8.77911989       0.01879892       0.00666631      -0.01128668
H        3.68163192       8.25206113       8.90838412       0.01856220       0.00341535       0.02991675
H        4.49060471       8.51596094       7.52830589      -0.01625423      -0.00530700       0.00906205
N       11.16651015       6.52877835       8.87772589       0.01087703      -0.00120226       0.00773053
H       11.98241473       6.32134531       9.44685713       0.00539470       0.01196108       0.00593141
H       10.71963498       7.30967249       9.34858939      -0.00011806       0.00163350       0.00009459
H       11.54976636       6.89291865       8.00524043       0.00426148      -0.00303952       0.00291352
N        1.73331658       1.89525664       9.89845912      -0.01283410      -0.01173994       0.01765692
H        1.56175931       2.74047317       9.33081974      -0.00752198      -0.00748366       0.02454890
H        2.23921285       2.19748125      10.73134161      -0.01691816      -0.01768273       0.02362821
H        0.82736648       1.59826157      10.25509973      -0.01524130      -0.01039220       0.00957952
N        3.52673119       2.10041352       7.44362718      -0.00399941      -0.00477660       0.00442308
H        3.04948678       1.92537504       6.56094809       0.01047368      -0.00007049      -0.00432966
H        4.51687098       2.18813624       7.21389251      -0.00246903       0.00349110       0.01744364
H        3.22578654       3.03269042       7.71612737      -0.01458907      -0.00858494       0.00598937
N       11.45497284      11.56645733       4.06080943      -0.00059908      -0.00179610       0.00748223
H       12.28486480      11.74995238       3.49746712      -0.00037217      -0.00067680       0.00811345
H       10.64991559      11.87168801       3.51480796      -0.00127651      -0.01560839       0.00190858
H       11.38280573      10.54425496       4.10339543       0.00885347      -0.00193684       0.01759826
N        6.80611221       1.73558231       9.56800659       0.00393777       0.00488317       0.01326487
H        7.05267691       0.86850073       9.10337086      -0.00602661       0.00428915       0.01952989
H        6.32602323       2.31186805       8.88668766       0.00478838       0.00991422       0.00806856
H        6.14246392       1.54167318      10.31889580       0.00588617       0.01968891       0.01771677
N       -0.83790691      -0.14826131      12.22285300      -0.00571370      -0.01282325      -0.01782320
H       -0.13879563      -0.45212299      11.54702146       0.00351012      -0.02545568      -0.00482029
H       -1.50005932      -0.91530318      12.29483825      -0.00338653       0.00387463      -0.00772049
H       -0.34966337      -0.12587605      13.11512312      -0.00649915       0.00681069      -0.01125734
N       11.57229951       8.30721433       4.06580493      -0.00904731      -0.01049830      -0.00302845
H       12.58189197       8.38636193       3.98823304      -0.00257531      -0.01850966       0.00198336
H       11.31854219       7.52516427       3.45778366      -0.00577996      -0.01053758      -0.00866532
H       11.39390464       8.01446201       5.02148505      -0.01769727      -0.00404248      -0.01230246
N        3.47026417       5.54506516       6.32449723      -0.00096017       0.00039870      -0.00176440
H        3.33238549       5.94229285       5.40152904      -0.01443877       0.00149295       0.00225487
H        4.25275391       4.90259317       6.25493042       0.00951825       0.01392031      -0.00797678
H        3.78958268       6.31120910       6.92578360      -0.00871617       0.00334424       0.00146841
N        5.15409428       4.54950616       0.35487182       0.01218135      -0.00247169       0.01352149
H        4.78121803       5.31897213       0.90722225       0.00209898      -0.00039503      -0.00551859
H        4.59024398       4.51629663      -0.48932417       0.02381313      -0.01674595       0.00236815
H        6.07306716       4.84332110       0.03302726       0.01404938      -0.00079034       0.01755791
N       11.11035921      11.59323099       8.42451391      -0.00564496       0.00306711       0.00362843
H       11.77322441      11.86484655       9.14701156      -0.00407201       0.00684455       0.00217776
H       10.19030094      11.88742162       8.75161275      -0.00293675       0.00440232      -0.00001703
H       11.11350400      10.57651526       8.43476664      -0.00594008       0.00169826       0.00867263
N        1.49547925      12.01885657       1.63985672      -0.00505453      -0.00130532       0.00217377
H        1.79007367      12.09124942       0.67025675      -0.00960174      -0.02016610       0.00811230
H        1.59123935      11.03703427       1.88242348      -0.00294491      -0.00246744       0.02184323
H        2.20218736      12.50735761       2.18693118      -0.00397129       0.00398308      -0.00239526
N        2.15277291       3.23392602       4.39969795       0.01561390      -0.00664772      -0.00190177
H        3.10665868       3.35198466       4.72872270       0.01030618       0.00600911      -0.00181125
H        1.81007147       4.17962719       4.25845445       0.00351258      -0.01274130      -0.01082047
H        2.24437314       2.85045341       3.46393702       0.02269572      -0.01157498      -0.00268786
N        6.37616561       3.75325205       6.95222575       0.01069744      -0.01121775      -0.00241919
H        6.94437487       4.54644723       7.26876967       0.00524031      -0.00008009      -0.01262286
H        6.15803456       3.90232120       5.96949510      -0.00032831      -0.01570825      -0.00373435
H        6.96719120       2.92944963       6.97374929       0.01749185       0.00103706      -0.00420956
N        8.38062932       5.09014618       2.65001456      -0.00297238      -0.00397264      -0.01452158
H        7.81728534       5.92121894       2.46952328       0.00055028       0.00609857      -0.01237375
H        8.44685685       4.60400044       1.76123278      -0.00095206       0.00733760      -0.01738814
H        9.32019097       5.44134414       2.81713779      -0.01009691      -0.01305553      -0.00210844
N        1.23170983       4.37560328       8.16581267      -0.00540932       0.00685498       0.02058174
H        1.86993510       4.71826324       7.43797393      -0.00270409       0.01218781       0.02447110
H        1.32175404       5.02378569       8.95244417      -0.00269344       0.00139799       0.02936450
H        0.29141893       4.50415032       7.80530976       0.00047234       0.01082408       0.02520606
N        9.37066084      12.49254860       6.03980822      -0.00558925       0.00137037       0.00407296
H        8.75461656      13.05671079       6.62015784      -0.00184778      -0.00835917       0.00685817
H        9.07640059      12.67119596       5.08248650      -0.00589737       0.01320223       0.00120737
H        9.11602359      11.52642562       6.26068337      -0.00728434      -0.00236613      -0.01234227
N        0.56449116       7.34603631       6.74320149       0.00184954      -0.00329579      -0.00718705
H        0.49158206       8.33792109       6.94370493      -0.00836115      -0.00466830      -0.00234731
H        1.09504931       7.26333084       5.88219358       0.00082795       0.00620496      -0.00640720
H        1.15539246       6.95878501       7.47064776       0.00821860       0.00060549      -0.00772309
N        4.56268078      11.73147142       9.90448356      -0.00200900      -0.00286299      -0.01226664
H        5.48632569      12.15117988       9.83006438      -0.01867072       0.01899018      -0.00203435
H        4.65874463      10.78912105       9.52840660       0.01865637       0.00425071      -0.03010019
H        4.40299733      11.59784564      10.90624692      -0.00125290      -0.03024954      -0.01119475
N       10.46571116       4.34086976       5.86349525       0.00361973       0.00580978       0.00335681
H       10.15353387       4.75960696       6.73502544      -0.00214237      -0.00672209      -0.00473771
H        9.66144720       4.36845297       5.24288323       0.00305564      -0.00183450      -0.00465995
H       11.13909660       4.99739451       5.48200514      -0.00573960       0.02169462       0.00364123
N        4.92053645       1.47408725      -0.59928876       0.00921642      -0.01188198       0.01241624
H        3.96301462       1.75945257      -0.40046986       0.00613813      -0.02331921       0.00779364
H        5.47446385       2.19419851      -0.14091891       0.00056456      -0.01049271       0.01655269
H        5.06312368       0.61582228      -0.07703683       0.01469785      -0.01411515       0.01175099
N        6.82413820       7.97249967       1.80656145      -0.01279896      -0.01312223       0.00882373
H        7.24024796       8.89703457       1.84396778      -0.01869944      -0.00189483      -0.01512688
H        5.99865122       7.99153556       2.39776472       0.00770225      -0.01453429       0.00629327
H        6.49012939       7.83592872       0.85917327      -0.01762071      -0.02282254       0.00303024
N        4.21016187      10.31874710       0.11438703       0.00071613      -0.00377298       0.00110587
H        4.82139214       9.56471023       0.41382666      -0.00874811      -0.01503652      -0.01203428
H        3.53493897       9.87852010      -0.50942511      -0.02113642       0.00238853       0.01169035
H        3.70118366      10.56429358       0.95749225       0.02206630       0.00686683       0.00439669
N        8.27566670       1.50394974       3.53422108       0.00556370       0.01213551       0.00320836
H        8.16092557       0.56671792       3.15188960       0.01647213       0.01733375      -0.01870269
H        8.06542709       2.17471182       2.80453415       0.00627055       0.02651882       0.01430841
H        7.55845882       1.62858425       4.24125227      -0.00277770      -0.01018650      -0.00658225
N        8.05194668       7.92081376       5.04064490       0.00333963      -0.00820115      -0.01042530
H        7.06150077       8.13126800       4.97045189       0.00215155      -0.00949421      -0.00485653
H        8.41351781       7.89162070       4.09524651       0.00269401       0.00334284      -0.00330877
H        8.49378264       8.69041978       5.53136141      -0.00136198      -0.00492460       0.00126874
N        3.92506127       0.80270997       3.23308380       0.00019573       0.00850968      -0.00399546
H        4.44801563      -0.06349354       3.13574821       0.01085443       0.02097829       0.00050841
H        3.37321200       0.66318989       4.07382168       0.00469804       0.01074536       0.00135684
H        4.60840342       1.52104272       3.45304474      -0.00909922       0.02565072      -0.01402390
N        7.31325883       4.74570968      10.64010857       0.01302537      -0.00343896       0.01004899
H        7.79014395       5.20860753       9.87123928       0.00347072      -0.00124398       0.01663330
H        6.32375376       4.91874010      10.46907214       0.00325611      -0.00992989       0.00952628
H        7.44152525       3.75015638      10.45859020       0.01300284      -0.00215858       0.01098287
N       -1.21283006       9.66857761       1.20538748       0.00061355      -0.00708245      -0.00991689
H       -1.37349270       9.25767045       2.12168238       0.00861095      -0.00007422      -0.00822735
H       -0.76107291      10.55747940       1.38385250       0.00001438       0.00248101      -0.01383268
H       -0.49686678       9.08634380       0.77872812       0.00005300       0.00092547      -0.01032108
N        9.41056958       7.89152764      12.22191387      -0.01672287      -0.02174410       0.02768731
H        8.89114404       8.11840032      11.38175421       0.00381435      -0.00933395      -0.01238129
H        9.83585444       8.73632789      12.59816939       0.00121482       0.00035134      -0.00302227
H        8.74509393       7.55030556      12.90653191       0.00988826       0.01337245      -0.01840457
