197
Lattice="13.8349427315967 0.0 0.0 0.0 13.8349427315967 0.0 0.0 0.0 13.8349427315967" Properties=species:S:1:pos:R:3:forces:R:3 energy=-1009414.25 stress="-0.0004355334385763854 0.001059984031599015 -0.0004205047298455611 0.001059984031599015 -0.00043323918362148106 0.0003842932637780905 -0.0004205047298455611 0.0003842932637780905 -4.696093310485594e-05" pbc="T T T"
Tm       4.64735519      14.06140245      -1.64994551       0.00838165      -0.00088066      -0.00060557
Tm       8.25387182      12.18382886       2.94594623       0.00462026       0.00361098       0.00128861
S       13.28441688      14.85602577       7.47803846       0.00010359       0.00016066       0.00580972
S       11.83196789      15.12747114       5.81053674       0.01335721      -0.00090107      -0.00472754
O       12.67791570      15.51334702       8.61855626      -0.01011419      -0.00117987       0.00136316
O       14.39446019      15.58188020       6.86487356       0.00430930       0.00281239       0.01538610
O       13.45580334      13.42496042       7.59684839       0.00206363       0.00101233       0.00695506
S        6.07377346      12.51224835      13.88612255       0.00095657       0.00329775       0.00654033
S        6.42332461      10.95816241      12.79726146       0.00107762       0.00687718       0.00057060
O        4.57602896      12.77886221      13.98424153       0.00057161       0.00410722       0.00266805
O        6.57075256      13.75995422      13.16916074       0.00394824       0.00433594       0.01026595
O        6.64886070      12.43234316      15.23462998      -0.00364685      -0.00133515       0.00709683
S       10.41162741      12.34192925       4.89305118       0.00769088      -0.00053793      -0.00303024
S       10.26836700      13.94025404       6.27742055       0.00758547       0.00501952      -0.00942206
O       10.36064812      12.93025818       3.52434821       0.01160195      -0.00688335      -0.00516206
O        9.09442735      11.64288992       5.06969210       0.00688046       0.00337178      -0.00146875
O       11.56675254      11.51759005       5.12677647       0.00685334      -0.00149769       0.00333911
O        5.28809823       9.88483078       2.10912708       0.00901347      -0.00515151       0.01125216
O        4.37256107      10.29091042       4.07887881       0.00151749       0.02065018       0.00189626
O        6.48583703      10.90719923       3.70346582       0.00570101       0.00261477       0.00673585
C        3.88419544       9.51696011       1.94515865       0.00687170       0.00515655       0.00707591
C        3.41087313       9.43721858       3.38766402      -0.00018287       0.01989919       0.00543848
C        5.44310081      10.40329112       3.31645092       0.00900355       0.00713871       0.00759429
H        3.84313600       8.57614428       1.40422937       0.00144162       0.00216049       0.01353190
H        3.40940507      10.31047773       1.36862582       0.01636881       0.00534207      -0.00034489
H        2.42403095       9.83324107       3.58479222       0.00141051       0.02743734      -0.00296910
H        3.48639769       8.44501562       3.82996701      -0.00721759       0.02348727       0.01422431
O        3.38907069      10.75037342      11.06714539      -0.00277919       0.00552295      -0.00215554
O        5.14250349      10.78717082       9.73047969      -0.00395495       0.00299358      -0.00376123
O        4.27843514      12.71072158      10.48130058       0.00042645       0.00428927      -0.00214388
C        3.61829154       9.34555579      10.73644481      -0.00621450       0.00538433      -0.00361208
C        4.99247013       9.37404123      10.07978480      -0.00656378       0.00321996      -0.00455337
C        4.27645191      11.47355802      10.43505638      -0.00206012       0.00396286      -0.00294710
H        2.81078473       9.04563776      10.07538395      -0.00746691       0.00765932      -0.00326094
H        3.57506813       8.78917027      11.66779267      -0.00677886       0.00439072      -0.00441822
H        5.80949917       9.12945509      10.75471736      -0.00675473       0.00107127      -0.00527367
H        5.05785648       8.79561637       9.16293678      -0.00802077       0.00366081      -0.00512823
O        5.56549036      10.05140208       6.88543896       0.00820704       0.00823259      -0.00722389
O        3.81278217      11.41057162       7.02517953       0.00649914       0.00596653      -0.00748518
O        3.51351870       9.18756229       7.14690478       0.00539333       0.00185138      -0.02311951
C        6.14823223      11.37481089       6.92707266       0.00671083       0.00868743       0.00074515
C        4.93472462      12.29077581       6.80700379       0.00633162       0.00766098      -0.00057232
C        4.23226279      10.13939859       7.02073904       0.01099688       0.01045686      -0.01391144
H        6.83970842      11.46604463       6.09700350       0.01035729       0.01250839       0.00385284
H        6.67553301      11.48468700       7.86884396       0.00293376       0.00546154       0.00319308
H        4.90486741      13.05373334       7.58196858       0.00295333       0.00528753       0.00215384
H        4.82115428      12.74365956       5.82567025       0.00920526       0.01115292       0.00045824
O        9.12283876       6.46421616      12.36060455      -0.00131966       0.00609547      -0.00955465
O        7.35771344       7.76752029      12.01696667      -0.00395511       0.00191346      -0.01125684
O        9.42672321       8.61539011      11.77912880      -0.00269735       0.00822294      -0.01795322
C        7.99923457       5.57046796      12.43164946       0.00074381       0.00457793      -0.00296735
C        6.80222176       6.51753209      12.46552645      -0.00216973       0.00108512      -0.01160856
C        8.70276640       7.69155630      12.01399371      -0.00811779      -0.00098205      -0.01187544
H        8.10320063       4.97932805      13.33977314       0.00163453       0.01214260       0.00220397
H        8.01558781       4.93906405      11.54550559       0.00280151      -0.00336030       0.00254065
H        6.00991379       6.22681290      11.78116793       0.00241524      -0.00319695      -0.01568091
H        6.40394295       6.66489950      13.46933176      -0.00888921       0.00161233      -0.01424032
O        9.67547982       8.24668698       2.88937614      -0.00284109      -0.00661469       0.00436446
O        8.20146824       7.83986737       1.26747147       0.00662409      -0.01740137      -0.00132301
O        9.01054145       6.12651134       2.48439205       0.00514176      -0.02201647       0.01267817
C        9.17867374       9.53327856       2.47831755      -0.00188699      -0.00962743      -0.00564952
C        8.54204988       9.24072926       1.12980705       0.00399614      -0.01746523      -0.00579518
C        8.97181259       7.28968221       2.22346865       0.00172314       0.00504678       0.00083059
H       10.01883388      10.23020118       2.43768525      -0.00121033      -0.00886400      -0.00672644
H        8.44190227       9.82100053       3.24214738      -0.00511441      -0.00366301      -0.01072745
H        7.62674849       9.78879427       0.91637116       0.00328687      -0.01883747      -0.01150862
H        9.23640685       9.35353784       0.29862342       0.00675225      -0.01810686      -0.00427270
O        9.40209480       5.49463533       7.51434543       0.00386927       0.00212809       0.00181606
O        9.12591833       4.20702034       9.30353367      -0.00358747       0.00183487       0.00040425
O        8.43631133       6.34603305       9.36553940      -0.00127220       0.00342417      -0.00072294
C        9.84252692       4.18179966       7.08821798      -0.00043495       0.00056078       0.00200754
C        9.90072245       3.39034937       8.38892284      -0.00051951       0.00228804       0.00266725
C        8.94419755       5.43246310       8.77927054       0.00009620       0.00171602      -0.00064072
H       10.81313086       4.28803645       6.61226596      -0.00083190      -0.00261120       0.00033423
H        9.11090653       3.80094863       6.37760104      -0.00278768       0.00214185       0.00393999
H        9.42585992       2.41396146       8.32872113       0.00188431       0.00104687       0.00327479
H       10.90967289       3.27899658       8.77913155      -0.00089556       0.00516336       0.00446853
O        4.36510646       4.38750306      10.92366238      -0.00463092      -0.00784069      -0.01687349
O        2.79783848       2.83380845      10.83048713      -0.00649047      -0.00660455      -0.00315668
O        4.63110398       2.46312142      12.03115026      -0.00119910      -0.00387478      -0.01077899
C        3.30370509       5.01985291      10.14427044      -0.00949976      -0.00823516      -0.00968951
C        2.20951604       3.94674994      10.08624846      -0.00773668      -0.01017147      -0.00681120
C        3.96232386       3.20964564      11.31669412      -0.00413007      -0.00582018      -0.00991932
H        3.74210311       5.29120605       9.18672781      -0.01491062      -0.00489981      -0.01118499
H        2.98782514       5.89770802      10.70068316      -0.00799671      -0.00985995      -0.00611460
H        1.31279626       4.23379358      10.62276418      -0.00861472      -0.01017978      -0.00792933
H        1.96387206       3.57595780       9.09381859      -0.00697324      -0.01376167      -0.00569978
O        8.70462190      11.64336255       8.98822792       0.00301740      -0.00551489      -0.00097312
O       10.79999303      12.00914870       9.62479778       0.00141883       0.00184552      -0.00030722
O        9.19107489      13.45529270      10.23793162      -0.00485960      -0.00581419       0.00276643
C        9.42224609      10.44201764       8.61772561       0.00811589      -0.00083819      -0.00635495
C       10.87992462      10.86518665       8.74520904       0.00649905       0.00390339      -0.00239789
C        9.53455430      12.46466619       9.66326819      -0.00041212      -0.00422692       0.00021249
H        9.12852526      10.17926504       7.60423388       0.01073790       0.00400245      -0.00838947
H        9.14695713       9.64983409       9.31405875       0.00989705      -0.00536111      -0.01112515
H       11.50127382      10.10962783       9.21744887       0.00788003       0.00487015      -0.00254813
H       11.33067592      11.19465942       7.80931561       0.00777085       0.00707941      -0.00059783
O        6.83267047       7.26293563       6.52902406      -0.00922758      -0.00944324       0.01253393
O        5.06568795       6.89730916       5.23008967      -0.00455940      -0.00674374       0.00590530
O        4.98876058       6.33378870       7.40976343      -0.01890570      -0.00706172       0.01391000
C        7.22380688       7.74477743       5.23517419       0.00172800      -0.01857552       0.01252484
C        6.12822178       7.21816447       4.31831062      -0.00175558      -0.00573680       0.00938928
C        5.58420607       6.79926818       6.47722226      -0.00153923      -0.00087997      -0.00211275
H        8.19106750       7.31748638       4.98744273      -0.00227821      -0.03213929       0.01713732
H        7.26991033       8.83409930       5.27685985       0.01713187      -0.01889864       0.00913955
H        5.76986120       7.94400764       3.59351591       0.00202397       0.00210431       0.01429671
H        6.43536261       6.30771974       3.80975603      -0.00698374      -0.00355625       0.00164285
O        2.41062445       4.04292431       1.13808284       0.00011747      -0.00542100       0.00106934
O        3.55666685       5.92516714       0.85254081       0.00288616      -0.00692233       0.00560758
O        2.50462195       4.98067699      -0.89748906       0.01731218      -0.01191810      -0.00803965
C        2.74513230       4.47875752       2.47820978      -0.01634166      -0.00043420       0.00338465
C        3.81352808       5.52653121       2.21666461      -0.02192903       0.00789925       0.01380348
C        2.78026412       4.98998470       0.26957081       0.01024041      -0.00811027       0.01168954
H        3.08484577       3.61589667       3.04755640      -0.01426150       0.00285348       0.00793323
H        1.84805492       4.91133134       2.92031480      -0.02423263      -0.00787294      -0.00595161
H        3.73091543       6.39602673       2.86297059      -0.04478122       0.01353553       0.00334999
H        4.82920561       5.12880041       2.26610348      -0.01937056       0.01911445       0.03939861
O        1.81615840      14.50015273       3.22634012      -0.01383868       0.00196229       0.00383026
O        2.70527844      13.63530005       5.06698593       0.00154194      -0.00028771      -0.00499176
O        3.64949801      15.44147062       4.12486785      -0.00424719       0.00155300      -0.01103898
C        1.08555384      13.27339432       3.45790097      -0.01344806       0.00282237       0.00949627
C        1.46007765      12.90695059       4.88432569      -0.00055876       0.00086913       0.00535613
C        2.79219390      14.59770450       4.14371971      -0.00801158      -0.00153688      -0.00487837
H        1.43758016      12.54504636       2.72331146      -0.02176251       0.00334525       0.00497586
H        0.02526271      13.47301727       3.32255338      -0.01454198       0.00436532       0.02021713
H        0.74960121      13.25887443       5.62838485       0.00609174       0.00038365       0.01183128
H        1.65816310      11.84924838       5.04013552      -0.00038835       0.00036210       0.00263176
O       12.17755380       6.50175524       6.33934682      -0.00195447      -0.01086871       0.00815395
O       11.16141543       8.10473746       7.49456508       0.01033822      -0.00212976       0.00559914
O       12.21344646       6.44463937       8.58712792       0.01067692      -0.00481713       0.01514107
C       11.72592337       7.44859736       5.34665422      -0.00659576      -0.01698983       0.00484860
C       10.74943959       8.31131460       6.12915200       0.00962493      -0.00033870       0.00611353
C       11.87538673       6.97233831       7.56637086       0.00200818       0.00106469      -0.00253654
H       11.27557815       6.90250847       4.52277003      -0.02152219      -0.02139145       0.01564521
H       12.58455216       8.02190873       4.99784975      -0.00592312      -0.02883741      -0.01281206
H       10.82562768       9.37129603       5.89880212       0.02504092      -0.00174507       0.00283317
H        9.72229906       7.96435202       6.04890471       0.00372207       0.01666877       0.00918212
O       14.35405833       7.20425695      11.06984262       0.00345645       0.01141667       0.01708924
O       12.74512617       8.27901166      12.16822342       0.00294331       0.00224717       0.02509648
O       14.59587916       9.39199806      11.55773811      -0.00212401       0.00403202       0.02964166
C       13.41021649       6.17417065      11.46402254       0.00547552       0.00769198       0.01214822
C       12.18708510       6.97353822      11.87094491       0.00400293       0.00410971       0.01448260
C       13.95304227       8.38053177      11.59369592       0.00632000       0.01359475       0.02356485
H       13.85480957       5.61573031      12.28762906       0.00617637       0.00533845       0.00988835
H       13.21754243       5.54337584      10.60032508       0.00652853       0.01163316       0.00928602
H       11.47017049       7.08717347      11.06131999       0.00653696       0.01004021       0.01311132
H       11.69499911       6.60537705      12.76497397       0.00148581      -0.00179285       0.01010850
O        6.41379770       3.22040546       7.05986129      -0.00263044      -0.00538592       0.00546921
O        4.74139770       3.79872780       5.71480520       0.00485697      -0.00635342      -0.00420299
O        6.83329362       4.45548703       5.23537850      -0.00937474      -0.01738870       0.02324069
C        5.25976753       2.56791975       7.61230984      -0.00538258      -0.00756583      -0.00174075
C        4.09267952       3.18259081       6.84092061      -0.00170797      -0.00656977      -0.00781918
C        6.05701874       3.87637060       5.94285852       0.02531371       0.01014522      -0.01604444
H        5.24281678       2.78304836       8.67908340      -0.01103840      -0.00888478      -0.00301379
H        5.35987715       1.49626477       7.44413583      -0.00319692      -0.00612450      -0.00475334
H        3.36931180       2.45871821       6.47648416       0.00146818      -0.00538492      -0.01242942
H        3.59564502       3.97408947       7.40070233      -0.00309095      -0.00586081      -0.01097104
O        1.73705642       7.37156579       5.31802922      -0.00740765      -0.00707012      -0.00998980
O        0.75248574       8.17959326       7.13804314       0.00262706       0.00114162      -0.00820298
O        0.77275894       9.39561345       5.24630303      -0.00918835      -0.01102746      -0.01213050
C        1.85417666       6.31037457       6.29184145      -0.00535685      -0.00377285      -0.00775224
C        1.40860824       6.97773958       7.58915870       0.00762190       0.00531089      -0.00737590
C        1.07616319       8.40960223       5.86236604      -0.00728131      -0.00092053      -0.01438099
H        2.89333338       5.99569600       6.31549061      -0.00678140      -0.00953743      -0.01244494
H        1.19832978       5.49473600       5.98707789      -0.01335400      -0.00061673       0.00099851
H        0.68003064       6.40136997       8.15396015       0.01416200       0.00935343       0.00438628
H        2.25186791       7.27602647       8.20952842       0.01399139       0.00866374      -0.01792300
O        6.06584959       1.23951285       2.26913304       0.00423509       0.01521856      -0.00671421
O        7.71836314       2.31176371       3.26825473       0.01304966       0.01618072      -0.02298433
O        7.33243410       0.17841314       3.77224489       0.01860310       0.01621298      -0.01633653
C        6.06406079       2.53075813       1.62628951       0.00094298       0.01424742      -0.00954342
C        7.17058580       3.30098884       2.35890848      -0.00380374       0.01936275      -0.00867231
C        7.04881110       1.19002260       3.14303627       0.01244385       0.01740371      -0.01664773
H        5.06497642       2.94066108       1.74971384      -0.00069463       0.01137643      -0.01260316
H        6.27954076       2.36362840       0.57234837       0.00395158       0.01302307      -0.00888732
H        7.98447877       3.62735477       1.71845733      -0.01171076       0.03679479      -0.00922638
H        6.82200822       4.12592822       2.97137494      -0.01003365       0.00797221       0.00300482
O       10.86324549      11.25757851      13.63893249       0.01845333       0.00000370       0.01154813
O       10.69730839      13.44640858      13.39047599      -0.02193083      -0.00719404      -0.01417965
O        9.38250316      12.39041889      14.85414865      -0.00140882      -0.01334819      -0.00362799
C       11.79602353      11.54603176      12.55516159       0.00201693       0.00343278      -0.00198835
C       11.75051904      13.07100086      12.45330899      -0.00689960       0.00244829      -0.00092578
C       10.26104385      12.37572474      14.00749215      -0.00439467      -0.00741632       0.00056611
H       11.42596423      11.04109131      11.66998635      -0.00970368       0.00199658       0.00392672
H       12.76552734      11.14018165      12.83266442       0.00718981       0.00763763      -0.01593623
H       12.66538521      13.55537414      12.78889095      -0.01546794       0.00833665       0.01284471
H       11.45415897      13.43036225      11.47282507       0.00335269       0.00203586      -0.00375551
O       12.69546857       8.00829611       1.83395228       0.01549927      -0.01872045       0.01326469
O       14.76183289       8.79693193       1.58124607       0.00762638      -0.00072959       0.00379880
O       14.32905748       6.63530065       1.12429869       0.02111831       0.01155877       0.02503404
C       12.57265437       9.41521425       2.10639469       0.00149310      -0.01705793       0.00088749
C       14.00964153       9.92630504       2.06310040      -0.00295994      -0.00297183      -0.00633441
C       13.95727272       7.71441804       1.47940417       0.02665763      -0.03339833       0.00571570
H       12.12757846       9.54466532       3.09092805       0.00281927      -0.01350231       0.00028381
H       11.94454803       9.85678367       1.33566766      -0.00192073      -0.03238679      -0.00403625
H       14.15578034      10.75069527       1.36664674      -0.01099049      -0.01060882      -0.01587373
H       14.36499245      10.18524241       3.05810554      -0.00402157       0.00888447      -0.00944158
