200
Lattice="13.445252324442544 0.0 0.0 0.0 13.445252324442544 0.0 0.0 0.0 13.445252324442544" Properties=species:S:1:pos:R:3:forces:R:3 energy=-877071.875 stress="-0.00023606407921761274 0.00022580658696824685 -7.667489626328461e-05 0.00022580658696824685 0.0004763036558870226 -0.0006318874657154083 -7.667489626328461e-05 -0.0006318874657154083 0.00329890800639987" pbc="T T T"
Tm      13.10574334      14.10689368       2.16270978       0.00728155      -0.00515968      -0.00088304
Tm       3.88268770      11.76616226       5.27520572       0.00438824      -0.00371277       0.00040323
O        5.40612433      13.35243640       5.20727763       0.00394857      -0.00330794       0.00836852
O        5.96845206      11.21215621       5.05738457       0.00584234      -0.00207150      -0.00021705
O        7.53772819      12.78889614       4.72382569       0.00393271       0.00111800       0.00335936
C        6.36840228      12.48675549       4.98638534       0.00453332      -0.00167462       0.00392366
O        5.12537183      12.61406589       2.04612731      -0.01243725       0.02070981      -0.02053708
O        4.66920418      13.10903322      -0.17694783       0.00611137       0.00058398      -0.00400740
O        2.73467429      11.42205423       3.62167554       0.00417344      -0.00645083       0.00158743
C        4.89948647      12.87390644       0.93698187       0.00327569       0.00378198       0.01854818
O       10.90226728      11.96728222      -0.17118403      -0.01193666       0.03795874      -0.02726638
O       11.80744841      13.97014559       0.36088025       0.00207642       0.02345920       0.00056481
O       11.76836018      12.36586531       1.87686491       0.00141576       0.00100446      -0.02544391
C       11.44558278      12.71310889       0.63012647      -0.00331867       0.02066517      -0.01738262
O        2.12973707       7.78645088       1.54017684      -0.00138164       0.00650136      -0.01063108
C        2.89123539       7.48499268       2.68445973      -0.01367739      -0.00515372      -0.00582987
H        3.95974925       7.36648036       2.46284540      -0.01209539      -0.00917229       0.00342439
H        2.53028075       6.54518765       3.10121363      -0.02232006      -0.00618619      -0.01558208
H        2.80409837       8.27308780       3.44934153      -0.01683300      -0.00986645      -0.00116774
H        2.43389364       8.67833564       1.27089409       0.00465630       0.00760422      -0.00137427
O        7.23278934       3.57898355       9.02355179      -0.00322109      -0.00677007      -0.00259824
C        7.29704899       2.15631965       8.97938153      -0.00119936      -0.00679028      -0.00551938
H        6.65490273       1.74287716       8.19668407       0.00900203      -0.00517979      -0.01462927
H        7.04058944       1.70628285       9.94421737      -0.01272318      -0.00976168      -0.00997987
H        8.32662317       1.89648077       8.74218585       0.00193423      -0.00539079       0.00669199
H        6.31344752       3.82709288       9.14973055      -0.00590703      -0.00801102      -0.02151416
O        3.46124836      10.09515836       1.24435116       0.00188684       0.00405806       0.00758468
C        4.75678186       9.62417806       0.88160215       0.00229940       0.00462002       0.00910036
H        4.64712508       8.62742953       0.44550717       0.00452795       0.00290176       0.01254714
H        5.44091617       9.55846640       1.72759676       0.00321910       0.00907481       0.00868601
H        5.19963693      10.27525804       0.12036840       0.00063540       0.00300142       0.00640339
H        3.45252547      10.53530532       2.12275604      -0.00036135       0.00089431       0.00994845
O        0.87793042       2.26053810      14.28108571       0.01680303      -0.00387728       0.00775355
C        0.61911475       3.50916546      13.61325730       0.00317324      -0.00388976       0.01249462
H       -0.21005743       3.98472079      14.13131478       0.00267762      -0.01207944       0.01908498
H        0.34134475       3.32789648      12.57587578      -0.00211220      -0.00354671       0.01380825
H        1.49816416       4.15532989      13.65456597      -0.00170413       0.00293408       0.00924648
H        1.51331632       1.75784961      13.75590503       0.01784927       0.00393042       0.00173098
O        7.55891759       8.13275118       8.35183749      -0.00429548       0.00555408       0.01006669
C        7.24143019       6.74208850       8.31861119       0.00062699       0.00422284       0.00359716
H        7.54870539       6.31444027       9.27141947      -0.00496584       0.00229608       0.00443742
H        7.76322195       6.21500953       7.51781098       0.00872408       0.00879292       0.00574052
H        6.16608847       6.57253937       8.18932670       0.00220785       0.00099808      -0.00531198
H        7.52741915       8.47352771       7.45243402      -0.00629812       0.00955768       0.01168534
O        2.86940558       2.55310876      11.27201997       0.00308895      -0.00461291       0.01970270
C        4.20033758       2.80648540      11.68959037       0.00495681       0.00110547       0.01085021
H        4.52631733       1.97576837      12.30998451       0.01287091       0.00173211       0.00756569
H        4.27790071       3.72829778      12.27732239       0.00468654       0.00059220       0.01180738
H        4.88941489       2.88227831      10.83674080      -0.00134484       0.00563949       0.00633603
H        2.58239600       3.33090571      10.77076895      -0.00104240      -0.00820778       0.01620592
O        3.14784553      10.29001159       6.95420836       0.00567940      -0.01035409      -0.01043665
C        2.23122091       9.22968298       6.62919854       0.00110658      -0.00537786      -0.01345292
H        2.76769644       8.30311501       6.42752125      -0.00505368      -0.01259077       0.00409126
H        1.67537925       9.53353282       5.74405595       0.01808649      -0.00910892      -0.02508889
H        1.52451970       9.06666817       7.44324465      -0.01389667       0.00944392      -0.02375773
H        3.40735810      10.16422252       7.89101802       0.00217535      -0.00982159      -0.00826967
O        6.57697786       6.61051909       1.36343415       0.00811416       0.01466137      -0.00216287
C        5.73615333       5.65494853       0.73846034       0.01581830       0.01105306      -0.00636700
H        6.28188895       4.76078378       0.42089206       0.02197081       0.01419193      -0.00494175
H        5.20911999       6.08587146      -0.11971988       0.01801710       0.00900629      -0.00884351
H        4.98891449       5.35062898       1.47118762       0.01391536       0.00629871      -0.01020652
H        7.16804046       7.00166194       0.69712016       0.00276794       0.02364429      -0.00238632
O        2.44221618       4.93238633       9.72629718       0.00263613      -0.01165181       0.00676696
C        1.17363722       5.51380503       9.39919159       0.00307308      -0.01075357       0.00560808
H        1.20746637       6.04993594       8.44665727       0.00281698      -0.01557980       0.00276989
H        0.81375682       6.17960736      10.18537016       0.00558805      -0.00581683       0.00262809
H        0.46834074       4.69154056       9.31200760       0.00131917      -0.00990561       0.01102347
H        3.07487376       5.63826832       9.88090142       0.00272691      -0.01207131       0.00864618
O        8.35455172      14.28318928       2.70535599       0.00097550       0.00348294       0.00358695
C        8.56096742      13.22919121       1.76817658       0.00064477       0.00189611       0.00517094
H        7.61093296      12.83616401       1.39838600       0.00057733      -0.01157612       0.02039507
H        9.12268542      12.40355921       2.20473357       0.01658988       0.01024947       0.00035924
H        9.12251592      13.62816361       0.92622547      -0.01555845       0.00471610      -0.00393367
H        7.97726784      13.86223018       3.51949110       0.00162084       0.00406167       0.00425413
O        1.34550427      12.98012141       1.59546927       0.00435740      -0.01330912       0.00680900
C        1.30205958      12.20201239       0.42094565       0.00202318      -0.00494862       0.00144416
H        1.20303107      11.13545047       0.64901753      -0.01493906      -0.00501800      -0.00670004
H        2.21696418      12.31852526      -0.17316747       0.00780606      -0.01448372       0.00868621
H        0.45876074      12.47341911      -0.23098450       0.01072103       0.01122350      -0.00290307
H        2.18795687      11.88710235       2.96060186       0.00415447      -0.00581190       0.00173691
O        6.32246676       1.97365937       1.29109970       0.00111812       0.00267963       0.00148094
C        5.31893054       2.35898892       2.20713186       0.00780922       0.01198763       0.00515833
H        5.52535428       3.33202528       2.66538680       0.01472397       0.01367182      -0.00172353
H        5.20203503       1.63095937       3.01641584       0.00893065       0.01652771       0.00942484
H        4.37495453       2.43094259       1.65863670       0.00498950       0.01327701       0.00995417
H        7.09068337       1.67686373       1.82584199       0.00213538       0.00172799      -0.00017675
O       11.88654812       3.77333449       7.42763149       0.00089782      -0.00646165       0.00051956
C       10.49432384       3.50704374       7.48304109       0.00111467      -0.00861956      -0.00132558
H        9.93466903       4.08491969       6.73727433       0.00100844      -0.00881210      -0.00161368
H       10.07815557       3.73580934       8.46878326      -0.00027637      -0.00983194      -0.00153208
H       10.33364172       2.44752895       7.28610155       0.00285410      -0.00880301      -0.00224610
H       12.00700794       4.60075902       7.93404868      -0.00021275      -0.00826089       0.00364354
O        3.44169371      -0.27125634       7.09049316      -0.00307089      -0.00678241       0.00016958
C        2.79146965      -0.18480373       8.36893030      -0.00508657      -0.00687680      -0.00102469
H        2.16796030       0.70507028       8.41482172      -0.00155811      -0.00426900      -0.00063105
H        3.52484664      -0.17187464       9.17523230      -0.00652876      -0.01181554       0.00030108
H        2.17342213      -1.07278707       8.46500215      -0.00940894      -0.00437531      -0.00423681
H        4.13899882       0.39455887       7.01386518      -0.00126445      -0.00833076       0.00187676
O        0.99401024       6.85742385       5.48496473      -0.00521079      -0.01238495       0.00590879
C        0.16594199       5.84863995       4.92891714      -0.00987682      -0.00815865       0.00486005
H       -0.65706021       6.27685101       4.34881354      -0.01551732      -0.00373195       0.01621410
H       -0.25328927       5.27728071       5.75589684      -0.00192764      -0.01553932       0.00376636
H        0.73659885       5.16670398       4.28687240      -0.01539484      -0.00220188      -0.00623533
H        1.29512896       7.41018331       4.75736358      -0.00905741      -0.00842757       0.00723025
O        5.10286525       4.24826213       5.17740303       0.00139797       0.01937515       0.00290728
C        3.83643284       4.73288666       4.79419099       0.00059593       0.01323131      -0.00267859
H        3.65659370       5.76134619       5.13204266      -0.00110700       0.01637685      -0.01328105
H        3.07483293       4.10109062       5.25037760       0.00131992       0.01657549       0.00338106
H        3.69839794       4.70829289       3.70558793       0.00133232       0.00218613      -0.00246972
H        5.76656394       4.79585522       4.71816327       0.00031626       0.01602420      -0.00296326
O       11.77014449       9.95219470       3.05769600       0.00176293       0.00444061      -0.01696625
C       13.03171402       9.42156991       2.68888117       0.00224394       0.00031704      -0.00994342
H       13.12821072       8.43660329       3.14816421      -0.00054743       0.00346166      -0.00220740
H       13.86352431      10.04861353       3.03041134       0.00218874       0.00156337      -0.01216994
H       13.11202143       9.29941471       1.60649019       0.00535321      -0.00840611      -0.00864762
H       11.65512858      10.79908166       2.56108810       0.00322246       0.00111262      -0.02260517
O        3.57526380       9.54368643       9.55523862       0.01316917       0.02753609      -0.01538980
C        4.36378196       8.35202116       9.62460671       0.00208907       0.02045324      -0.00344033
H        3.91332775       7.54986471       9.02506168      -0.00769082       0.01824808       0.00713603
H        4.49329201       8.02319287      10.65755496       0.00166387       0.03203738       0.00014785
H        5.34264712       8.59013124       9.21578928       0.00288257       0.00710892      -0.00885061
H        2.81232905       9.45025746      10.13253610       0.00636154       0.03645505      -0.02358112
O       11.76705980       5.99066778       9.03726116       0.00142793      -0.01161659       0.00954872
C       10.89107267       6.91934183       8.39328090       0.00634168      -0.00351201       0.01508260
H       10.71693730       7.80301762       9.01141278       0.00582773      -0.00895530       0.02290437
H        9.92956619       6.46196251       8.15377019       0.00615406       0.00139534       0.00627014
H       11.37093406       7.23634422       7.46818382       0.01092272       0.00368771       0.01995465
H       11.34746787       5.59205627       9.81921886       0.00071260      -0.01224876       0.00925352
O        6.58485487       6.25607521       4.09549474      -0.00270256       0.01189190      -0.00999701
C        6.05793587       7.29975906       4.89579057       0.00710896       0.01281548      -0.00474057
H        5.18972204       7.77469468       4.43108946       0.01184472       0.02318329      -0.00303054
H        6.79711694       8.08084303       5.08860055       0.01490852       0.00460601       0.00012001
H        5.74497879       6.84825852       5.83898202       0.00215437       0.01112014      -0.00682950
H        6.67528668       6.54538016       3.16595627      -0.00011576       0.01544701      -0.00910879
O        1.06419293       1.48695563       3.95161436      -0.00171640      -0.00084549       0.00530398
C        2.51069547       1.44067802       3.87577039      -0.00153527      -0.00164595       0.00574236
H        2.92615233       1.14973583       4.84056896      -0.00259202      -0.01040433       0.00364766
H        2.90621064       2.41499616       3.59837555       0.00010230       0.00012767       0.01388164
H        2.76487547       0.70576207       3.11729835      -0.00213512       0.00405785      -0.00003424
H        0.83247467       1.79743081       4.83290383      -0.00090138       0.01115221       0.00134820
O       12.10839282       1.82979785      11.46937014      -0.00416780       0.00795691       0.01425356
C       11.78337604       1.14352471      10.27127192      -0.00305314      -0.00646020       0.02263835
H       12.20274993       0.13524888      10.26601959       0.00906020      -0.00142843       0.02984552
H       12.20136458       1.71094475       9.43736305      -0.01476607      -0.00885479       0.01521268
H       10.69902050       1.06665064      10.12708107      -0.00291404      -0.02189288       0.03128956
H       11.93066470       1.25106886      12.26077758      -0.00157133       0.01356462       0.02160874
O        7.17385386       9.71103903       3.14837271       0.00924420       0.00621703      -0.00311095
C        8.55293653       9.55287951       3.40773219       0.01041114       0.01025257      -0.00819514
H        8.96850276      10.43919991       3.89441533       0.01116170       0.01409864      -0.01546940
H        9.07363399       9.39785062       2.46344735       0.00623550       0.00509144      -0.00964850
H        8.75755832       8.68382492       4.04964883       0.01523284       0.01468098      -0.00380746
H        6.79388698      10.26557285       3.86188458       0.00905187       0.00311787      -0.00064322
O        2.24681697       2.77554037       7.14789560       0.00036430      -0.00089055      -0.00318283
C        3.60804025       2.94036924       7.54382086       0.00108172      -0.00284003      -0.00480760
H        4.23144829       2.51054001       6.75985997      -0.00052318      -0.00350873      -0.00584012
H        3.80270729       2.45411915       8.50762973       0.00190368      -0.00378506      -0.00524279
H        3.88304972       3.99417498       7.61672428       0.00257336      -0.00313070      -0.00439429
H        1.69927799       3.28501875       7.75227367       0.00152265      -0.00217132      -0.00086454
O        7.50955490      10.11418816      11.17703731      -0.02276601      -0.00952637      -0.00747401
C        8.30482007      11.21651856      11.65270754      -0.01260173      -0.01671790      -0.00869703
H        8.36375494      12.00837265      10.90252134      -0.01052809      -0.01480782      -0.00647861
H        9.31057377      10.92200386      11.94895451      -0.01311272      -0.02536009      -0.01579361
H        7.79677077      11.61091175      12.52909899      -0.00441365      -0.01567268      -0.00449419
H        7.87506886       9.79960389      10.34366312      -0.02774824      -0.01362735      -0.00847667
O       11.46273240       9.29655715       5.71043498       0.00868754       0.00177157      -0.01475346
C       11.48818746      10.52474993       6.40223869      -0.00420325      -0.00345385      -0.00516108
H       12.27987704      11.18696712       6.02972518      -0.00404105       0.00330916       0.00778256
H       11.68191214      10.31963422       7.45715989      -0.01299779      -0.01098375      -0.00504869
H       10.53278347      11.06084166       6.33003265      -0.00623071      -0.00757477      -0.00973598
H       11.46092874       9.51340436       4.75620949       0.00551868       0.00815128      -0.01318348
O       11.08467196       5.41975649       0.47242664      -0.00442699       0.00050259       0.00158218
C       11.70971063       6.67418934       0.71743647       0.01363747      -0.00789714      -0.00400766
H       10.98329055       7.35719631       1.16237410       0.02824661      -0.00306632       0.01178604
H       12.08792683       7.13119962      -0.19982080       0.00144415      -0.00713162      -0.00873521
H       12.55364548       6.56913457       1.40682856       0.02470642      -0.01867360      -0.01935732
H       11.28979692       5.11423430      -0.42761414      -0.00600535      -0.00743163       0.00353910
O       11.04988318       4.29010178      11.35078046      -0.00735378      -0.00454929       0.00879599
C        9.69163651       3.86209465      11.53883625      -0.00982474       0.00102477       0.00179403
H        9.66197322       2.96990787      12.16673245      -0.01777966       0.00396124       0.00582638
H        9.20773768       3.65097799      10.58387946      -0.00451800      -0.00197603      -0.00023586
H        9.14331638       4.65760025      12.03918636      -0.01064052       0.00520548      -0.00565235
H       11.57698755       3.45163457      11.36572829      -0.00992580      -0.00782180       0.01194302
O        7.99398801       7.80482055      12.61622355      -0.02153188       0.00538570       0.00318247
C        9.22753802       7.64670109      11.92654252      -0.01350287       0.00018232       0.01909336
H        9.90583821       8.48511790      12.11562610      -0.01636264       0.00268909       0.01881614
H        9.06905564       7.56011477      10.84515779      -0.00147393      -0.01019540       0.01823917
H        9.69971312       6.73658302      12.28714683      -0.01691048       0.00407630       0.03348170
H        7.62695211       8.64991269      12.29646151      -0.02031402       0.00177511      -0.00843788
O       11.95955400       0.13625558       4.22959072      -0.00599769      -0.01257920      -0.01509435
C       11.26948198       0.80000158       5.29612769      -0.00329536      -0.00986930      -0.01463095
H       11.10740048       0.11633612       6.13156959      -0.00432719      -0.00869608      -0.01388326
H       10.30782050       1.18738895       4.95709769      -0.00230402      -0.00726227      -0.01448190
H       11.89084666       1.62660182       5.63800117      -0.00046334      -0.01142076      -0.01608137
H       11.35407947      -0.47933596       3.78789769      -0.00914088      -0.00807951      -0.01687759
O       11.67651184       2.55985600       2.40769551       0.01236379      -0.00040295      -0.00248021
C       11.48950989       3.68771842       3.27394579      -0.01050930      -0.00582334      -0.00096758
H       10.55829368       3.59747310       3.83408320      -0.01434815      -0.02006394      -0.00984663
H       11.49220905       4.60930374       2.69390629      -0.01764947      -0.00384441       0.00190759
H       12.32127360       3.68602723       3.97351641      -0.01704298       0.00276160       0.00662024
H       10.91405248       2.47450899       1.82264497       0.02582276      -0.00101425      -0.01932827
