197
Lattice="14.247134684221997 0.0 0.0 0.0 14.247134684221997 0.0 0.0 0.0 14.247134684221997" Properties=species:S:1:pos:R:3:forces:R:3 energy=-940187.0625 stress="0.002528978744521737 -0.00010916795508819632 -0.0005312697030603886 -0.00010916795508819632 0.0002816958003677428 6.94980553817004e-05 -0.0005312697030603886 6.94980553817004e-05 0.0002740371855907142" pbc="T T T"
Tm      11.51324172      12.50795535      10.06610327       0.02173895      -0.01943475      -0.01567712
Tm       7.02963029      13.74366443      10.21043033       0.01005028      -0.00255890      -0.00398518
S       13.98215022      13.54153444      10.78147061       0.01731457      -0.01313338      -0.00968965
O       15.11304053      13.66125344       9.88716109       0.00918138       0.00268480      -0.01857495
O       13.45341896      12.07662100      10.77097733       0.02522056      -0.01593852      -0.01555826
O       14.18787961      14.00240745      12.12489351       0.02697161      -0.01998580      -0.00801516
O       12.72207802      14.21994348      10.16115258       0.01002359      -0.01308036       0.00598550
S        9.23604772      13.31976739      11.92187649       0.01765306      -0.00421523      -0.01420671
O        9.59492122      14.31069150      12.87983006       0.01960008      -0.00425628      -0.01306158
O       10.11013792      12.12683254      11.87527932       0.01936592      -0.00315192      -0.01645306
O        7.77189228      12.92506558      12.05858678       0.01853335      -0.00697330      -0.00744658
O        9.27241645      13.84885201      10.45789669       0.01016635      -0.00347102      -0.01240206
S       14.35347509      13.66830409       4.46437666       0.01863341       0.00575665       0.01930968
O       14.28896123      14.25248585       5.83355093       0.00624634       0.00470531       0.01933336
O       15.49215609      14.27231833       3.73890740       0.03238463      -0.00354505       0.03449512
O       14.56522532      12.20666181       4.56902756       0.00318065       0.00372696       0.02197926
O       13.08713090      13.95253016       3.76906651       0.03029490       0.01745230       0.00259280
O       10.35709131       1.85235444       3.33663631       0.00327134      -0.00051785       0.00187147
O       12.12865913       2.50368866       4.38837732      -0.00049769       0.00146816       0.00584620
O       11.94517976       2.97812939       2.18053277       0.00637430      -0.00189191       0.00434339
C        9.62484842       1.69961366       2.10623822       0.00539118       0.00018933       0.00065886
C        8.38394104       0.90959832       2.43289514       0.00465998      -0.00087404      -0.00353560
C       11.52939296       2.48371738       3.20002504       0.00357401      -0.00022238       0.00387484
C       13.50570257       2.91095050       4.34237085      -0.00020394       0.00063420       0.00833663
H        9.38720776       2.69290039       1.71675465       0.00556226       0.00067383       0.00131847
H       10.25422496       1.19538048       1.37243913       0.00677422       0.00241575       0.00018835
H        7.80616638       0.73217053       1.52494381       0.00943995       0.00086678      -0.00743754
H        8.65365706      -0.05827530       2.85529061       0.00210963      -0.00244132      -0.00414438
H        7.75867758       1.44076058       3.15150528       0.00132313      -0.00079767      -0.00586063
H       14.04539042       2.31865654       3.60600546       0.00068329      -0.00367063       0.01239336
H       13.89132796       2.69689383       5.33384320      -0.00350025       0.00532863       0.01068652
H       13.57681056       3.97430806       4.10431219       0.00047207      -0.00050819       0.00324775
O        5.47689274       6.53687932       3.26519523      -0.00106817       0.00127805      -0.00138713
O        7.12825916       6.46808054       1.88021153      -0.00116548       0.00404654      -0.00183089
O        7.40988067       5.56919102       3.94333598      -0.00049669       0.00053453      -0.00314367
C        4.90578788       6.29305661       4.57403418      -0.00118703      -0.00133121      -0.00201443
C        3.53531279       6.91421068       4.57787155      -0.00133723      -0.00150675      -0.00062145
C        6.74053699       6.13877789       3.11810036      -0.00092679       0.00200188      -0.00239146
C        8.51357937       6.22031229       1.59328999      -0.00081882       0.00614919      -0.00263044
H        4.87683508       5.21627832       4.74982757      -0.00125730      -0.00183201      -0.00404265
H        5.56622386       6.73256917       5.32111622      -0.00120670      -0.00285107      -0.00091097
H        3.07292175       6.74581488       5.54974046      -0.00130267      -0.00379474      -0.00093828
H        3.58424971       7.98860546       4.40020995      -0.00141161      -0.00102553       0.00161791
H        2.90790617       6.46471003       3.80732238      -0.00130805       0.00001076      -0.00163148
H        9.13250473       6.96534184       2.09439796      -0.00199579       0.00871637      -0.00474417
H        8.61002264       6.30864078       0.51781730      -0.00187711       0.00391567      -0.00298306
H        8.80369915       5.22228544       1.91815739       0.00158929       0.00743902      -0.00074275
O        8.69688687       4.36666666      13.18707942       0.00191863      -0.00200514       0.00365860
O       10.66744927       5.25682709      13.28469204       0.00261459      -0.00274420       0.00510577
O       10.50547861       3.02860027      12.89950482       0.00136441      -0.00108957      -0.00192422
C        7.85292780       3.20087640      13.23127392       0.00167263      -0.00200260      -0.00115138
C        6.42807844       3.68801413      13.17136329       0.00163788      -0.00119790      -0.00239467
C       10.01389473       4.10403602      13.10642069       0.00244302      -0.00294518       0.00162219
C       12.10194086       5.11446108      13.28706911       0.00269412      -0.00338832       0.00330993
H        8.11702934       2.53317582      12.40933587       0.00287493       0.00014159      -0.00231302
H        8.06114519       2.65618685      14.15334821      -0.00050223      -0.00426853      -0.00181773
H        5.74061938       2.84415996      13.25313290       0.00112483      -0.00102863      -0.00607715
H        6.22380773       4.37597118      13.99254644       0.00037145      -0.00303657      -0.00114539
H        6.23083107       4.21154324      12.23471944       0.00360476       0.00137652      -0.00169377
H       12.40637712       4.45562085      14.09808135       0.00328960      -0.00500211       0.00187880
H       12.48270212       6.12115923      13.43024332       0.00319308      -0.00366482       0.00480532
H       12.43968865       4.71215723      12.33344532       0.00156879      -0.00183675       0.00218397
O       10.02192257       8.19519864       5.91730613      -0.00302580      -0.00062560      -0.00235843
O        9.21978334      10.15719828       6.31931483      -0.00321107       0.00037107      -0.00819253
O        7.95595477       8.70144764       5.12963452      -0.00056887      -0.00184292      -0.00860739
C        9.96231337       6.91354435       5.22810072      -0.00053132      -0.00160860      -0.00139876
C       11.36539830       6.37993396       5.13064886      -0.00017124      -0.00209627       0.00573511
C        8.96842178       8.98161434       5.72021052      -0.00278783      -0.00163513      -0.00714791
C        8.24178485      11.17967566       6.07863055      -0.00387993      -0.00041457      -0.01008036
H        9.29097524       6.25524625       5.78116655      -0.00359067      -0.00073829      -0.00396881
H        9.51612604       7.07852938       4.25256278       0.00418237      -0.00220027      -0.00373900
H       11.34162441       5.39790826       4.65586517       0.00189740      -0.00245756       0.00619352
H       11.98095661       7.04607213       4.52645355       0.00294623      -0.00251344       0.00834239
H       11.82433354       6.26981337       6.11433433      -0.00479283      -0.00140628       0.00804821
H        7.98833584      11.21962557       5.02193443      -0.00441836      -0.00336339      -0.01008344
H        8.71909754      12.10668678       6.38533359      -0.00373019       0.00041050      -0.01218334
H        7.34230055      11.00480556       6.66878033      -0.00315049       0.00068458      -0.00894494
O        2.69845351       8.85340557       1.63354952      -0.01190147      -0.00003114      -0.00128489
O        2.96647872      10.79336529       2.52316371      -0.02276075      -0.00052378       0.00323740
O        4.64805868       9.94726863       1.25273743      -0.01828027       0.01179699      -0.00014967
C        3.17664493       7.76369089       0.82398917      -0.00469708       0.00247371      -0.00020182
C        2.01697639       6.81482996       0.65404252       0.00048548      -0.00372428      -0.00099680
C        3.55357352       9.88352599       1.76185014      -0.01777458       0.00478745       0.00059471
C        3.74667861      11.97039746       2.79784917      -0.02895875       0.00507012       0.00015384
H        3.52030566       8.16148597      -0.13156602      -0.00522187       0.00376937      -0.00002676
H        4.02803701       7.29763969       1.32220646      -0.00303733       0.00726900       0.00159326
H        2.31803094       5.94949365       0.06369066       0.00580101      -0.00259627      -0.00002169
H        1.65911091       6.46138053       1.62076178       0.00090677      -0.00460716      -0.00101069
H        1.18739874       7.30867742       0.14691820      -0.00115953      -0.00835484      -0.00291236
H        4.53963069      11.71698727       3.50124768      -0.02425408       0.00950302      -0.00316638
H        3.04690773      12.68145514       3.22825081      -0.03131971       0.00156316       0.00269830
H        4.18282913      12.35305615       1.87589183      -0.03512678       0.00710054      -0.00248262
O        6.23020739      10.40439226      10.74003722       0.00458327       0.00289762       0.00138658
O        8.27134935       9.98915260      10.19058436       0.00237849      -0.00498849      -0.00496566
O        7.24540054      11.78183046       9.27433144       0.00469964      -0.00422797      -0.00528812
C        5.06723627      11.29623774      10.73121719       0.00546578       0.00459632      -0.00382456
C        3.96879214      10.61715880      11.50401084       0.00291896       0.00913906      -0.00580683
C        7.25126206      10.78122575      10.01982978       0.00432476      -0.00200438      -0.00286844
C        9.49804176      10.24538534       9.47549440       0.00232157      -0.00606404      -0.00767723
H        5.36623580      12.22629184      11.25854533       0.00735462       0.00387368      -0.00545710
H        4.79161029      11.49217773       9.69475026       0.00642577       0.00509427      -0.00352895
H        3.08471339      11.25612376      11.51169208       0.00508656       0.01113527      -0.01100782
H        3.70479728       9.67789085      11.01902232      -0.00173148       0.00877789      -0.00328557
H        4.27522196      10.41841465      12.53038343      -0.00023755       0.01350522      -0.00450751
H        9.46648707      11.22882800       9.00291620       0.00518902      -0.00250670      -0.00068193
H        9.61164015       9.49055755       8.70328928      -0.00330012      -0.00189945      -0.01303771
H       10.29501474      10.14161400      10.21389334       0.00313717      -0.01388449      -0.00934234
O        4.86469183      10.32717839       7.55275338       0.00599363      -0.00867401       0.00705494
O        3.71759685      12.16252898       7.36953619       0.00364399      -0.00903627       0.01589945
O        3.54300252      10.59944249       5.73300412       0.00437152      -0.00160611       0.00863898
C        5.16199073       8.99659166       7.05463456       0.00558275      -0.00653730       0.00215346
C        6.20814370       8.39039017       7.95044229       0.00808141      -0.00865047      -0.00188226
C        3.98701389      11.00135465       6.77444793       0.00460488      -0.00553852       0.01079965
C        2.71451114      12.97368125       6.68484156       0.00038444      -0.00812218       0.02110009
H        4.24068912       8.41321896       7.06254133       0.00601971      -0.00745922       0.00213909
H        5.51109415       9.07747947       6.02579691       0.00335835      -0.00329970       0.00152963
H        6.38206838       7.35768616       7.64847337       0.00801478      -0.00784594      -0.00496614
H        7.15060896       8.93318320       7.87117751       0.00763746      -0.00787652      -0.00300317
H        5.89120948       8.38783488       8.99227533       0.01068184      -0.01162901      -0.00085348
H        3.17642154      13.50190564       5.85163036      -0.00128442      -0.00167178       0.02433163
H        2.33188344      13.66121589       7.43143316      -0.00209815      -0.01398136       0.02517053
H        1.91423845      12.34907818       6.30179744       0.00236979      -0.00875899       0.01771984
O       11.00885808       7.92768262      11.48660857      -0.00308791      -0.00241036       0.00069816
O       10.70785799       6.76148463       9.70050152      -0.00547116       0.00065511      -0.00077203
O        8.92389358       7.14226927      11.04884713      -0.00387514      -0.00401576       0.00361902
C       10.52334044       8.59725279      12.68676001      -0.00136018      -0.00458583       0.00231130
C       11.67636544       9.38440353      13.24047750      -0.00061479      -0.00635260       0.00449091
C       10.09420000       7.26280227      10.79117698      -0.00338149      -0.00202680       0.00116447
C        9.81881519       6.15948109       8.75648904      -0.00632071       0.00194105      -0.00072658
H        9.68562581       9.23772642      12.40581770       0.00069970      -0.00072795       0.00403236
H       10.15781166       7.83411571      13.37394852      -0.00533639      -0.00578699      -0.00041592
H       11.34411218      10.01634913      14.06234713      -0.00018273      -0.01252605       0.00961292
H       12.46470948       8.72795522      13.61105547       0.00659445      -0.00195485      -0.00540555
H       12.10861354      10.03625627      12.48156945       0.00346359      -0.00501023       0.00880490
H        9.11616834       5.50371538       9.26290055      -0.00821434       0.00393450      -0.00053635
H       10.44691308       5.60752492       8.06338743      -0.00742164      -0.00005439      -0.00029212
H        9.26088645       6.92852191       8.22094936      -0.00424890       0.00304952      -0.00149831
O       10.33469156       9.83300471       2.71005518      -0.00211906       0.00227442      -0.00016713
O       12.37312426       9.14902183       3.03622202      -0.00134924       0.00905022       0.00852050
O       12.04880724      11.05999944       1.87037036      -0.00249523       0.00803149       0.00719923
C        9.42596909      10.86491133       2.24736243      -0.00391853      -0.00080046      -0.00376812
C        8.04508478      10.27399219       2.14365088      -0.00122952      -0.00593659      -0.01025590
C       11.63347513      10.12009650       2.48907332      -0.00178754       0.00657451       0.00491607
C       13.79289655       9.33422224       2.82441919      -0.00050479       0.01322654       0.01431980
H        9.47869991      11.68873576       2.96457448      -0.01121847      -0.00145671      -0.00225672
H        9.78769991      11.24586870       1.29253751      -0.00072184       0.00198650      -0.00137347
H        7.33168065      11.04637159       1.85408844      -0.00345749      -0.00783361      -0.01005688
H        8.00501855       9.49114091       1.38591899       0.00456357      -0.00375961      -0.01289409
H        7.71612975       9.84222531       3.08764888      -0.00245311      -0.00993567      -0.01251027
H       14.01373853       9.29537056       1.75915000       0.00397923       0.01282319       0.01530626
H       14.26761183       8.50023280       3.33433180      -0.00043765       0.01500329       0.01709984
H       14.11879089      10.28813737       3.23386938      -0.00510740       0.01452088       0.01545414
O       12.25766349      10.70275367       7.77185480      -0.01554565       0.02662140      -0.00008395
O       11.36281285      12.68848166       7.71929565      -0.00611042       0.02451049      -0.01404297
O       11.78748128      11.63378793       5.75031813      -0.01026799       0.01197985      -0.04147172
C       12.95165728       9.61432731       7.03726327      -0.01198952       0.02373841       0.01698738
C       13.44722662       8.60418550       8.03032614      -0.01159999       0.02213839       0.01295686
C       11.81890362      11.64653822       6.93521958      -0.00784866       0.01661437       0.04272842
C       11.23972666      13.94349850       6.96546581      -0.00072205       0.02339779      -0.01068163
H       12.22977566       9.19796909       6.33807475      -0.00844684       0.00621635       0.02865580
H       13.75235737      10.09206558       6.47272056      -0.01465029       0.01412964       0.00667942
H       13.96050887       7.81415010       7.47784787      -0.00773507       0.01729070       0.01675484
H       14.15913956       9.04211537       8.72916294      -0.02482714       0.02694350       0.01948668
H       12.63150298       8.14537248       8.58897898      -0.00827964       0.02085007       0.02407310
H       12.21551758      14.19342068       6.54994631       0.00048888       0.01874599      -0.01348509
H       10.91764007      14.67540948       7.69951051       0.00144305       0.02754189      -0.01492149
H       10.50962993      13.81075082       6.17310238      -0.00206114       0.02363150      -0.01142058
O        7.16520266       1.88621749       9.79153998      -0.00092816       0.00040358      -0.00344041
O        5.16480155       1.08331902      10.00580269       0.00354508      -0.00449371      -0.00555353
O        5.40226422       3.30157010       9.53551825      -0.01316735       0.02092725      -0.00472735
C        8.10051625       3.03518720       9.58848203      -0.00114559      -0.00173724      -0.00167683
C        9.51260001       2.54841636       9.68271633       0.00100851       0.00372086      -0.00305188
C        5.85391245       2.22481184       9.75014103       0.01463261      -0.04005826       0.00473765
C        3.68936729       1.25641129       9.98802390       0.00366437      -0.01495135      -0.00397786
H        7.84630480       3.44910639       8.61450786      -0.00146708       0.00083284      -0.00201234
H        7.84654180       3.76335731      10.35722187      -0.00183393      -0.00054447      -0.00122713
H       10.17342377       3.40129601       9.52939859      -0.00066143       0.00448738      -0.00262493
H        9.75086201       2.12569918      10.65565537       0.00197506       0.00271081      -0.00322157
H        9.73579551       1.81755695       8.90933551       0.00156891       0.00382525      -0.00331669
H        3.44003083       2.03707747      10.69793129      -0.00169064      -0.01262236      -0.00608318
H        3.25744421       0.30010717      10.26094900       0.00552960      -0.01470883      -0.00092510
H        3.39588471       1.55018533       8.98584464       0.00054922      -0.01895981      -0.00559792
O        3.22760906       5.33926913       9.82936618      -0.00720866      -0.01345449      -0.00117952
O        2.46014229       4.03220781       8.28874507      -0.00350245      -0.00699572      -0.00116271
O        3.95302310       5.63231721       7.70510693      -0.00135732      -0.00945505      -0.00401711
C        4.16409517       6.35286522      10.25357164      -0.01024947      -0.00848445      -0.00160527
C        3.99997640       6.53331283      11.73812374      -0.00801010       0.00187401      -0.00213408
C        3.28030520       5.05791661       8.52770174      -0.00305003      -0.00878021      -0.00412422
C        2.41225541       3.61474730       6.91334842      -0.00457337      -0.01133938       0.00136620
H        5.17103647       6.02337776       9.99025528      -0.00554454       0.00685668      -0.00990028
H        3.95268471       7.27297542       9.70538388       0.00829385      -0.01191434      -0.00437558
H        4.73305493       7.25448087      12.10200908      -0.00514099       0.00131755      -0.00754644
H        3.00221908       6.89859708      11.98006880      -0.00765908       0.00297123      -0.00759684
H        4.15856105       5.59199926      12.26429057      -0.00454581       0.00167318      -0.00779893
H        2.00902049       4.41266913       6.29066167      -0.00682698      -0.01387975      -0.00045761
H        1.76413166       2.74421927       6.88706963      -0.00270329      -0.01247001       0.00566302
H        3.41214171       3.36130750       6.56220055      -0.00427490      -0.01010673       0.00109002
