197
Lattice="12.813098063512136 0.0 0.0 0.0 12.813098063512136 0.0 0.0 0.0 12.813098063512136" Properties=species:S:1:pos:R:3:forces:R:3 energy=-910866.3125 stress="-5.986150063108653e-05 -1.892299042083323e-05 -0.0002919827093137428 -1.892299042083323e-05 0.000433753797551617 -0.0011554412194527686 -0.0002919827093137428 -0.0011554412194527686 0.0011323471553623676" pbc="T T T"
Tm       3.97344128      11.79555222       5.40679290       0.00539151       0.01409627       0.00174609
Tm      11.14698643      11.62908439       6.12075455       0.00566019       0.00072649      -0.00154234
S        5.95465459       9.26073492      10.50259906      -0.00853813       0.01310587       0.00230696
S        5.86671872      11.30292461      10.66938558      -0.00665874       0.01235461       0.00659946
O        4.90546458       8.84099551       9.54019444       0.00107312       0.01167297      -0.00880086
O        5.69576886       8.66849340      11.82492163      -0.02039936       0.01133156      -0.00245738
O        7.29995092       8.89041022       9.99924488      -0.00369203       0.01280129       0.01111042
S        6.70232878      11.74155264       3.74729005       0.00614917       0.01993330      -0.04118422
S        6.50621105      13.19375811       5.17426430       0.01724283      -0.00070763      -0.00533792
O        6.85579193      12.36499368       2.44593994      -0.00391781      -0.01741707       0.02110481
O        5.41804118      10.96296630       3.84794336       0.00266761       0.00166076       0.00605369
O        7.82201198      10.86017986       4.10434893       0.00969249      -0.01327932      -0.01344493
S        0.94591082      11.09047294       3.80911812      -0.00338170       0.00156346      -0.01309551
S        0.26591023       9.79124887       2.50002035      -0.01341569       0.00402826      -0.01219487
O        2.38807123      10.84600200       4.09847190      -0.00025076       0.00625429      -0.01553813
O        0.20873448      10.91880893       5.11752502      -0.00177425       0.00003478      -0.01328468
O        0.74671360      12.47120374       3.33923403      -0.00522430       0.00108922      -0.01427659
N       10.95794840       0.19431519       8.15468926       0.00940846       0.00900584      -0.00212622
H       11.79940828       0.54583185       8.60838125       0.01160351       0.00995407      -0.00578359
H       10.43841357       1.01482646       7.82356034       0.00523442       0.00791244       0.00150222
H       10.39627649      -0.25745793       8.87959042       0.01239904       0.00590989      -0.00180130
N        7.87002151       9.81410899       0.79465371       0.00528727      -0.01152128       0.00691985
H        7.08269242       9.46037658       0.25002184       0.00751640      -0.01793992       0.01060188
H        7.72384309      10.81418932       0.87110588      -0.00600669      -0.01102644       0.00207471
H        7.76597261       9.44891027       1.73429455       0.01216562      -0.00660463       0.01023912
N        2.99482557       4.74094142       7.91517953       0.00709334      -0.00172362       0.00245294
H        3.57137158       5.27192311       7.27055087       0.00231302       0.00166377       0.00106193
H        3.61524387       4.09874525       8.39272975       0.01363188       0.00878256       0.00856145
H        2.64708960       5.41851384       8.58865706       0.00016360       0.00006207      -0.00208089
N        9.32697702      11.13162098      10.23400666       0.00625592      -0.00920296      -0.01048827
H        8.75172528      11.90785766      10.55205986      -0.00951747      -0.01737087      -0.01673678
H        9.90479241      10.89312247      11.03362447       0.00712752       0.00335224      -0.00699876
H        8.64446755      10.36643214      10.17977545       0.01897141      -0.02026025      -0.01347978
N        9.13595011       7.84846170       7.74729984      -0.00680785      -0.00030948       0.00717279
H        9.31368389       8.83342931       7.58984597       0.01252808      -0.00397552       0.00542614
H       10.03412238       7.44925113       8.00537781      -0.01407353      -0.01447460       0.00966440
H        8.51292778       7.82626412       8.55232979      -0.00788761       0.00971727       0.00702259
N       11.51459943       6.25613726       1.50501127      -0.00533745       0.00441379      -0.00696352
H       12.34588853       6.80319654       1.69982847       0.00256268      -0.00572839      -0.00953041
H       10.96985667       6.78542725       0.82390549       0.00516847       0.00990550      -0.01239574
H       11.81105968       5.39323788       1.05819359      -0.01687887      -0.00256766       0.00027278
N        9.88002883       3.26668922      10.16687318      -0.00070415      -0.00188355       0.00545347
H       10.66014056       3.46642554       9.54545791      -0.00493288      -0.00712426      -0.00186835
H        9.27222492       4.08721229      10.17780154       0.00293517       0.00081957       0.00556258
H        9.34700351       2.53088048       9.71382441      -0.00805777      -0.00067022       0.01247700
N       11.95645600       5.90766940      10.87757047      -0.00110486       0.00537918       0.00299665
H       11.40307953       5.10939608      11.17530255      -0.00105712       0.00546457       0.00324731
H       11.55000408       6.21980894      10.00038714       0.01576938      -0.01085804      -0.01075546
H       11.73308452       6.63214051      11.55344921      -0.02179398       0.01330855      -0.01203761
N       12.25576844       0.90257447       5.61161215       0.00094582       0.00834650      -0.01289742
H       12.90267016       1.43310063       6.18777392       0.00680421       0.00701629      -0.01773514
H       11.54116823       1.57179115       5.34474194      -0.00412466       0.00799027      -0.00237057
H       12.76880771       0.67180447       4.75644028      -0.00800465       0.00786374      -0.01878625
N       10.90895558       2.93279463       3.13921651       0.00956911      -0.00539559       0.00340170
H       10.44453510       3.42919598       2.38396114       0.02539384      -0.02386400      -0.01864791
H       11.75609498       2.57216799       2.71250980       0.02530542      -0.00569608       0.03271603
H       11.21539749       3.66203845       3.77592717      -0.01217470       0.01032978      -0.00481477
N        1.86515071       7.21640456       9.64159268       0.00824771      -0.00187537       0.00175095
H        2.78013149       7.33884574      10.06761345       0.00998007      -0.01102769       0.00110019
H        1.30507585       6.61623315      10.24508863       0.00275615       0.00704110       0.00540008
H        1.43474076       8.13313004       9.71515345       0.01911428       0.00352764       0.00062992
N        3.63790532       7.92032136       7.08497630      -0.00188510       0.00342533      -0.00970813
H        2.99056077       7.43477109       7.69945954      -0.00765666      -0.00421718      -0.02158991
H        4.41114979       8.18604808       7.69164151      -0.00557803      -0.00723436      -0.00012942
H        3.99425915       7.25594325       6.40402737       0.00147786       0.01200391      -0.01610519
N       12.28035633       7.05663621       7.52402235      -0.00315881      -0.00933613       0.00640331
H       12.30123322       7.32197021       6.54289324       0.00059801      -0.00071928       0.00872608
H       12.03236268       6.07069261       7.48658116      -0.00729737      -0.00790569      -0.00431355
H       13.23264282       7.09231866       7.88088794      -0.00350597      -0.01566524       0.00940225
N        0.75388899       0.58052752      10.27601906      -0.00946995      -0.00540824       0.00093013
H        1.18837369      -0.28793935       9.96653472      -0.01481451      -0.01093833       0.00887342
H       -0.09689044       0.30565363      10.75600867      -0.01218319       0.00242238       0.00002686
H        1.36644175       0.93258301      11.01922645      -0.00956359      -0.00099968      -0.00124364
N        3.60237739       0.71459802       7.12593938       0.01401317       0.01515520       0.00572777
H        2.65048508       1.00912370       7.32758639       0.01089731       0.01119623       0.00169949
H        4.16981926       1.56821812       7.07895189       0.01225132       0.01758355       0.01504233
H        3.90857550       0.21732393       7.96139790       0.00985563       0.00937651       0.00303185
N       10.32209460      12.40039612       3.92449184      -0.00784545       0.00034116      -0.01288354
H       10.94287777      11.97890898       3.23530130       0.01353060       0.01488883      -0.00390297
H        9.39334727      12.01214362       3.75849576       0.00501037      -0.02920725      -0.00844783
H       10.28644123      13.39210854       3.69467218      -0.02618971       0.00721821       0.00844175
N        7.12536788       1.48213287       9.31083046      -0.01182365      -0.00468067      -0.00945961
H        7.04496919       2.20826075      10.01286882      -0.01283398      -0.01690072       0.00401602
H        6.88005101       0.59483796       9.75200918      -0.01310699      -0.01145899      -0.02457433
H        6.39941009       1.67171173       8.62706963      -0.01254042       0.00898976      -0.00541664
N        1.54394922       6.91987055       4.68690174      -0.01069044       0.00104578      -0.01749542
H        1.66801241       7.60685180       3.94777717      -0.00718712       0.00653790      -0.01226373
H        1.84915991       7.39319759       5.53194711      -0.01203076      -0.00603668      -0.01302588
H        0.53866848       6.79910352       4.76697591      -0.01117315       0.00584949      -0.01850523
N       -0.82930740       2.99842510      12.58078252      -0.00699315      -0.00356220       0.01275063
H       -1.58946754       2.93093911      11.90033788       0.00708990       0.01199324      -0.00470216
H       -0.73534891       2.08423749      13.00835145      -0.02045174      -0.01337627      -0.00364868
H        0.02136351       3.13109465      12.04424398       0.00593278       0.00067236       0.03444600
N        7.70845495       1.85040177      12.91327813      -0.00627611      -0.02254283      -0.00750116
H        8.48698707       2.00537794      12.28215210      -0.00317189      -0.01686905       0.00115689
H        6.94627254       1.46204884      12.37020158      -0.00493266      -0.02994099      -0.00225855
H        7.96812627       1.11292542      13.56010814      -0.00221069      -0.01315691       0.00745140
N       10.46263135       9.58037536       4.93179843      -0.00536528       0.00491273      -0.00211260
H       11.13844145       9.49395002       4.16776091      -0.01591682       0.01466886      -0.01256879
H        9.54607455       9.66405152       4.49788593      -0.00897783       0.00214358       0.00662593
H       10.49380986       8.66610262       5.37610242       0.00647769      -0.00166881      -0.01527219
N        4.45759565       5.83268845       4.73251669       0.00924608      -0.00279503      -0.00819994
H        4.70476570       6.57172407       4.05813114       0.01282853      -0.01386664      -0.01862356
H        3.43831776       5.78140370       4.69045316       0.00797776       0.00715915      -0.00383647
H        4.81619963       4.97711411       4.32302599      -0.00594844      -0.01242727      -0.00096320
N        4.50993740       4.05287647       1.83759924      -0.00039736       0.00635068       0.00982943
H        4.10938094       4.96214174       2.03838321       0.01605227       0.01898799      -0.01867437
H        4.59515698       3.99191950       0.82964421       0.00203557      -0.02264693       0.01021279
H        5.46270698       4.07513786       2.19657240      -0.00051020      -0.00509930       0.01089865
N       11.85438556      10.13362885       8.00092670      -0.00561984       0.00473380       0.00116515
H       11.84631883       9.11513155       7.88987049       0.00318312       0.00474826       0.00340152
H       12.78342538      10.36228073       8.35079274      -0.01098377       0.00739239       0.01596230
H       11.20669914      10.34699446       8.76022788      -0.01036450      -0.00151565      -0.00163123
N        3.52852896      13.50602721       3.64756316      -0.00873326       0.00084999      -0.00158787
H        3.80274167      12.99809244       2.79934201      -0.00241558      -0.00652213       0.00384365
H        4.01104410      14.39770587       3.57527348      -0.02152359       0.00611585      -0.01515281
H        2.53497236      13.67815601       3.50610968      -0.01129039      -0.01401808      -0.00525981
N        1.90783907       3.17843078       5.45245443      -0.00450644       0.00515747      -0.00470031
H        2.15978466       3.75276811       6.25971589       0.01670494      -0.00512470      -0.00419401
H        1.89998191       3.80369102       4.65320397      -0.00994951       0.01159482       0.00067310
H        2.67924139       2.53890261       5.30172537      -0.01719471      -0.00580956      -0.02509794
N        8.98813959       2.18483198       6.82122031      -0.00155786       0.00708952       0.00241024
H        8.45136408       1.89929864       7.64214765      -0.00482827       0.00711201       0.00088986
H        8.53062807       1.72993616       6.03437489       0.00449848       0.00202235       0.00177652
H        8.78748159       3.18123393       6.70842875      -0.00629541       0.00562004      -0.00172128
N        8.17255789       6.58008790       2.02937235       0.00817180      -0.00659377       0.00976692
H        9.17546262       6.49432440       2.15965101       0.01152620      -0.02451853      -0.00895068
H        8.04576999       6.87205660       1.06620159      -0.00265940      -0.00544532       0.01304834
H        7.77937168       5.64836140       2.12714773      -0.00522064       0.00062433       0.02047436
N        0.21246096       3.57669618       9.05409321       0.00767580      -0.00326635       0.01336457
H        1.03002633       3.79375162       8.48944429       0.01043389      -0.00588171       0.01610488
H        0.37182505       2.65863495       9.46691852       0.00082485      -0.00631676       0.00890503
H        0.19081021       4.26568088       9.80077318       0.00864793      -0.00647239       0.01605041
N        8.83056581      11.32528926       6.92235817       0.00320566       0.00806704      -0.00772750
H        8.35160904      10.55168310       6.46804345       0.00216378       0.00779319      -0.00589634
H        8.74395022      11.19410869       7.93066252       0.01221469       0.01074862      -0.00614667
H        8.24878666      12.12983470       6.67532960       0.00973514       0.01324993      -0.00841557
N        2.45343156      10.68230895       6.94832561       0.00249696      -0.00199109      -0.00415286
H        2.79296522       9.70632653       6.90517000       0.01021683       0.00127406      -0.01024802
H        1.52438023      10.67721181       6.53425549       0.00148110      -0.00607138      -0.00319067
H        2.36964367      10.89127152       7.94574128       0.00171499      -0.00682512      -0.00146165
N        5.38760370      10.72951309       7.06233134       0.01152390       0.00202629       0.00104478
H        5.05793411      10.43391244       7.98166615       0.00133099      -0.01983701      -0.00882329
H        6.15722332      11.36137031       7.25649841       0.01784434      -0.01385096       0.03171794
H        5.82191180       9.88290053       6.65175458       0.00716048       0.00750128      -0.01334097
N       10.96526738       6.47158746       4.64156447      -0.00814120       0.00945595      -0.00182598
H       11.15684373       6.29097052       3.65560217      -0.00266381       0.00860967      -0.00088276
H        9.97642730       6.68369700       4.69914797      -0.01026948       0.00059298      -0.00835914
H       11.12869793       5.62492065       5.19122109      -0.00029434       0.01480021       0.00355967
N        2.37164800       1.29487782       0.13507905      -0.01334339       0.00349574       0.02146344
H        2.75035374       2.16981541       0.48325577      -0.01224595       0.00282279       0.02362078
H        3.09886134       0.59494526       0.30457797      -0.01529032       0.00110320       0.02094223
H        1.64167844       1.03751824       0.79260688      -0.01621445       0.00363556       0.01778144
N        5.37508143       7.94663563       2.68846924       0.00330491      -0.00497445      -0.01306848
H        5.07689614       8.00945975       1.72030219       0.00991370       0.00422805      -0.01516530
H        6.35821389       7.67677652       2.65744012       0.00384267      -0.00233500      -0.00727825
H        5.33215479       8.89542324       3.04996332      -0.00041105      -0.00895239      -0.00374873
N        4.00654207      11.55093554       1.02650947      -0.00153066      -0.00416935      -0.00739845
H        4.42759628      11.33687224       0.12291281       0.00178532       0.00200225      -0.00771290
H        3.18623358      10.96557198       1.13599236       0.00412768      -0.01115973      -0.01344927
H        4.67863502      11.24162762       1.72099249      -0.00051549      -0.00481570      -0.00679646
N        7.43344630       3.27763896       2.90919155      -0.01006172      -0.00910595       0.00052435
H        6.91502386       2.51524916       3.34079393       0.00692184      -0.01677955       0.00760737
H        8.36293854       3.20131386       3.31012547      -0.01069908       0.01848080       0.00673210
H        7.53403460       2.99467589       1.93192813       0.00091616      -0.01758122       0.00345855
N        6.69786045       8.38979866       5.74483024       0.00662777       0.00247255      -0.00983986
H        6.08454106       7.62741976       5.47946575       0.01143951      -0.00052847      -0.01891882
H        7.50059338       7.98796990       6.22211434      -0.00146641       0.00291222       0.00354659
H        7.02141950       8.82448379       4.88775874       0.02071054       0.00133025      -0.00375582
N        5.48314932       3.18955648       6.62874940       0.01119477      -0.00698134       0.00834496
H        5.78208815       2.63276995       5.83012401      -0.00063664       0.00390645      -0.00354335
H        6.34575996       3.58914657       6.98876371       0.01704176      -0.01295037       0.00264797
H        4.97425241       3.97731146       6.23820765       0.00885654      -0.00140117       0.02380770
N        7.58253259       5.67815984      10.55422410       0.00301397       0.01419674      -0.00165339
H        7.84622075       6.58964393      10.91767447      -0.01937549       0.01828079       0.00197470
H        7.07737853       5.22599288      11.30841034       0.02372050      -0.00785244      -0.00069457
H        6.89052182       5.89760921       9.84604855      -0.01271136       0.00124881       0.00854643
N        2.19073792       8.60885430      -0.30420928       0.00714606       0.00703386       0.01256832
H        2.05692771       8.94112298       0.64563933      -0.01227853       0.01029556       0.00857492
H        3.19100723       8.55095269      -0.48068401       0.01106969       0.02051213       0.02821010
H        1.82671530       7.66441988      -0.33391883       0.02146297       0.00129600       0.01196152
N       10.03612068       8.29426549      12.18268213       0.02924985       0.01358992       0.02103619
H        9.33639373       8.85922310      12.69399480       0.02690682       0.01258487       0.01872425
H        9.69146135       8.24217679      11.22895009       0.01874472      -0.00594442       0.02189295
H       10.88168067       8.85367919      12.15282388       0.02204615       0.01755649       0.00204039
N        2.52143573      10.68463645      10.10284755      -0.01328282      -0.00475107      -0.00316624
H        3.14295874      11.38742151      10.50156729      -0.02033392       0.00326349      -0.00601990
H        3.19301255       9.95895828       9.83777629      -0.00681068       0.00256493      -0.00634499
H        2.03934388      10.27915068      10.90535010      -0.00291428      -0.01144031       0.00011675
N       11.66058805       3.99066075       6.33280731      -0.00254943       0.00836501       0.02350044
H       10.87901165       3.35753774       6.19198933      -0.00511584       0.01084048       0.02743447
H       11.92187626       3.86301520       7.31434002       0.01154380      -0.00508907       0.01873644
H       12.45972857       3.62751352       5.81746094      -0.01252481       0.00742777       0.00894035
N        8.14874264       5.15794301       6.05627307      -0.01933427      -0.00044990      -0.00057164
H        8.56359627       5.02944064       5.14015641      -0.00873686       0.00688059       0.00398593
H        8.61384315       5.95209905       6.49187034      -0.02528005      -0.00282833       0.00991099
H        7.19531957       5.45202494       5.87426326      -0.01816702       0.00046600      -0.01033784
