193
Lattice="13.762725805812833 0.0 0.0 0.0 13.762725805812833 0.0 0.0 0.0 13.762725805812833" Properties=species:S:1:pos:R:3:forces:R:3 energy=-952321.3125 stress="-0.0004186209989711642 0.00042334826139267534 0.0010694253141991794 0.00042334826139267534 0.0004053095472045243 0.00044939015060663223 0.0010694253141991794 0.00044939015060663223 0.0006651204312220216" pbc="T T T"
Tm       8.32439322      12.49413829      10.48652442      -0.01118475       0.00018483       0.00821382
Tm       7.17649139      12.61457091       5.85615428       0.00129682      -0.00669676      -0.00176224
S        8.53567403      14.47932016      12.06135193      -0.00918188       0.00097039       0.00543649
O        8.65133111      15.62165640      12.91478253      -0.00766920       0.00094998       0.00861895
O        8.87964058      13.14910156      12.66953336      -0.00432247       0.00171232       0.00236952
O        7.14324725      14.21703619      11.48626721      -0.01098180       0.00021464       0.01130798
O        9.38009472      14.51569380      10.80525178      -0.01440096       0.00570303       0.00308752
S        8.90524988      11.36676969       7.89113424      -0.00174727       0.00278760       0.00627859
O        8.36845524      10.65230598       9.08050582      -0.00503105       0.00224835       0.00486726
O       10.35850087      11.35816012       7.89700272      -0.00153542       0.00472447       0.01242235
O        8.32673252      10.85899172       6.62512840       0.00494388      -0.00004077       0.00473571
O        8.34544251      12.78353225       8.03183048      -0.00417270       0.00146061       0.00262092
S        6.86876435      11.34008044       3.30682177       0.00471283      -0.00887093      -0.00158361
O        7.53876670      10.08987266       2.97652641       0.00844198      -0.00664759      -0.00285062
O        5.98101188      11.18945023       4.53730389       0.00745898      -0.01161876       0.00005263
O        7.85838451      12.37203553       3.78315854       0.00152266      -0.00534129      -0.00370079
O        6.08389465      11.84110554       2.17820662      -0.00036260      -0.01303169      -0.00027740
O        0.49622465       9.35864715      10.48162515      -0.00314298       0.00232270      -0.00569624
O        0.71074825      10.51022273       8.56696551       0.00492591      -0.00382864      -0.00829798
C        1.78800223       8.37897947       8.76000117       0.00145614      -0.00469536       0.00212136
C        0.95065868       9.52207285       9.21578780       0.00142780      -0.00148529      -0.00472739
H        2.76888281       8.47336771       9.22838921      -0.00000088      -0.00494042       0.00538930
H        1.36418315       7.42393044       9.06958820      -0.00136221      -0.00306061       0.00340942
H        1.94242234       8.42232240       7.68805406       0.00522386      -0.00808249       0.00258186
H       -0.02719066      10.16915753      10.71349333      -0.00554308       0.00242433      -0.00967716
O        7.58646833       1.16053797       5.73650604       0.00241563      -0.00753423       0.00027168
O        7.33225729       3.29626280       5.11494811      -0.00269557      -0.00684440       0.00386679
C        7.03048791       1.59237961       3.44799892      -0.00064895      -0.00563195       0.00177848
C        7.32135186       2.13508676       4.80206623      -0.00035948      -0.00727904       0.00207701
H        7.87624965       0.99490483       3.10581077      -0.00029576      -0.00451069       0.00071841
H        6.15886761       0.93315352       3.47647512       0.00005165      -0.00662068       0.00188612
H        6.84813100       2.41158254       2.76051023      -0.00215702      -0.00528273       0.00259554
H        7.75003960       1.61344542       6.64144935       0.00340197      -0.00853509       0.00101876
O       10.57370353      11.58179544      10.60852488      -0.00784788       0.00957521       0.00295442
O       12.76577997      11.46927205      10.93668908      -0.00633216      -0.00021028      -0.01069880
C       11.33985541      11.32964612      12.86035747       0.00416604       0.01246215      -0.00082803
C       11.66001946      11.47503457      11.42700781      -0.00515878       0.00630387      -0.00302248
H       10.51630303      11.97715161      13.15236617       0.00963783       0.01870760       0.00217531
H       11.04756838      10.28910148      13.02454572      -0.00194066       0.01494089       0.00476162
H       12.22806964      11.52513140      13.45248443       0.00923039       0.00905257      -0.00690454
H       10.85881192      11.50261502       9.66013342      -0.01347905       0.00743631       0.00083321
O       11.36113899       0.35405143       1.28838893      -0.00050777      -0.00413501       0.02006298
O       10.26669175       1.00040425       3.13791548       0.01115930       0.01559132       0.02101922
C       11.27644389       2.67078269       1.74859038      -0.01195028      -0.00002408      -0.01536259
C       10.91144466       1.27069818       2.14416487       0.00068182       0.00452834       0.01061672
H       11.15663056       3.33322448       2.60067796      -0.03054921       0.01662028      -0.03080392
H       12.29635207       2.72712613       1.37266914      -0.00735308       0.00294609      -0.00240555
H       10.60386652       2.98064529       0.94578434      -0.00585344      -0.02672642      -0.03153442
H       10.99854996      -0.53918084       1.55302002       0.00130031      -0.00294629       0.02879892
O       13.08651590       6.81918923      11.22143722       0.00428551       0.00673917      -0.01047528
O       11.68297737       8.07904475      12.42571970      -0.00623259       0.00364411      -0.01981199
C       11.22396558       5.72821674      12.18969044       0.00450617       0.00110322      -0.01628561
C       11.99663035       6.99338949      11.98735153      -0.00031019       0.00473058      -0.01575890
H       10.63467627       5.55276721      11.28677667       0.00900666      -0.00426075      -0.01803169
H       11.88035014       4.87264685      12.33628283       0.00876021       0.00511967      -0.01113888
H       10.54672752       5.83444799      13.03198801       0.00059563      -0.00054276      -0.01918724
H       13.47608420       7.70177650      11.05889827       0.00145612       0.00774175      -0.01080774
O        4.76397604       8.39960539       3.54389460       0.00458628      -0.00001264      -0.00022960
O        4.52348056       6.20032548       3.18360886      -0.00180715       0.00279188      -0.01470768
C        6.06444497       6.99934542       4.87183127      -0.00548106      -0.01332398      -0.00385499
C        5.04548045       7.11749403       3.78471291      -0.00081283      -0.00278294      -0.00717932
H        6.91974980       7.62512538       4.61200863      -0.00211987      -0.01499638       0.00339845
H        5.64334742       7.40801546       5.79241101      -0.00729367      -0.01805913      -0.00252810
H        6.36431121       5.96619904       5.02019342      -0.00938685      -0.01533258      -0.00940314
H        4.14644914       8.49411557       2.79724037       0.00656109       0.00677146      -0.00101838
O        9.42994012       3.32726580       8.81733733      -0.00422573       0.00490007      -0.00205922
O        7.69536746       2.09829036       8.08838199       0.00540319      -0.00956768      -0.00081432
C        7.43128219       3.41786938      10.05187874      -0.00654727      -0.00746277      -0.00443584
C        8.20013510       2.87914003       8.89230527      -0.00092772      -0.00456458      -0.00233090
H        7.24672923       2.60897428      10.75696445      -0.01508239      -0.01077065      -0.01037183
H        7.98332435       4.19914002      10.56988357      -0.00770631      -0.01232451       0.00404900
H        6.45296693       3.75128545       9.70445823      -0.00297529      -0.00175676      -0.00989883
H        9.92479841       2.97104264       8.02917967       0.00116468       0.00650769       0.00028299
O        3.71995231       9.50714691       1.22495556       0.00156748       0.02401233       0.00222883
O        4.75893791      10.24954518      -0.60704607      -0.01599864       0.02065837      -0.00890005
C        5.36193469       8.09018274       0.30696545      -0.00829691       0.02244616      -0.00947548
C        4.61340007       9.38120344       0.22176767      -0.00849014       0.02248889      -0.00576019
H        4.76534751       7.30469344       0.76812299      -0.00694397       0.02214263      -0.00824118
H        5.70427699       7.78392624      -0.67612267      -0.01146305       0.02258838      -0.01042244
H        6.22919730       8.26395792       0.95225829      -0.00661770       0.02243242      -0.01154979
H        3.38039770      10.42046423       1.24716301       0.00325409       0.02505577       0.00555131
O        2.70876380       2.56220407      14.58790473      -0.01409942      -0.00789940       0.01133990
O        1.14952035       4.11243007      14.14807707      -0.01422903      -0.00991786       0.00449790
C        0.81577023       1.86159175      13.36702578      -0.00825828      -0.01068586       0.00355518
C        1.53105141       2.97059266      14.07249622      -0.01244445      -0.00959116       0.00609967
H        1.19369062       1.84065140      12.34334111      -0.00257562      -0.01228945       0.00563183
H        1.01287848       0.89410139      13.82101708      -0.01078226      -0.00991671       0.00622059
H       -0.25077437       2.06004884      13.33591987      -0.00824004      -0.01124740      -0.00240528
H        3.13107790       3.33767179      14.98888200      -0.01798016      -0.00741011       0.01461264
O        7.17111637       6.22232394       8.62745409       0.00512666      -0.00538492      -0.00678682
O        8.97903451       7.00531769       9.69687941       0.00728548      -0.00984205      -0.00787044
C        8.43512306       7.84485879       7.50270671       0.00131920       0.00111043      -0.00191259
C        8.26633637       7.00839705       8.72375654       0.00526440      -0.00552016      -0.00500095
H        8.31670018       7.23735422       6.60867439       0.00518105       0.00392677      -0.00411662
H        7.66036439       8.61020751       7.48054301      -0.00252831      -0.00300728       0.00084885
H        9.40190544       8.33286505       7.51259253      -0.00106797       0.00593960       0.00093959
H        7.11419820       5.72635474       9.45779621       0.00813808      -0.01024692      -0.00933760
O        2.79571786       3.83771097      11.65108813      -0.00774992      -0.00457913       0.00880834
O        4.93051851       4.03107333      12.30248728      -0.00621307      -0.00166225       0.00559467
C        4.26456270       2.10382474      11.00832010      -0.00629002      -0.00339013       0.00769764
C        4.08056609       3.39810508      11.72836409      -0.00763148      -0.00376147       0.00666815
H        3.44041157       1.42578961      11.22843966      -0.00848371      -0.00212078       0.00347852
H        4.24022612       2.31623997       9.93667473      -0.00056823      -0.00309259       0.00754392
H        5.21592101       1.65215293      11.27621834      -0.00815356      -0.00464887       0.01200731
H        2.72991985       4.64638416      12.18266400      -0.00791332      -0.00432870       0.00800738
O        3.35736521      10.71851537       4.21770619       0.00860608       0.00051033       0.00491565
O        3.37346542       9.57171291       6.14325863       0.01010704       0.01322848       0.01275253
C        1.27707933       9.98892240       5.05736741       0.01070738      -0.00685828       0.00330940
C        2.76616223      10.05025204       5.20984959       0.00965095       0.00357425       0.00741881
H        0.83256316      10.59457633       5.85033800       0.00435079      -0.00379088      -0.00253209
H        0.94832618      10.32729676       4.08045256       0.01142530      -0.01655481      -0.00046846
H        0.94401978       8.96349501       5.21220703       0.01680075      -0.00776856       0.01103955
H        4.34165973      10.74596374       4.37216692       0.00891428       0.00212140       0.00496556
O        6.90086997      10.87429476      11.51774515       0.00007957      -0.00546245       0.01237023
O        6.29125843       8.77122976      10.97548854      -0.02038068      -0.02916172      -0.01528615
C        8.45746879       9.11250888      11.96690576       0.01452518      -0.00670598      -0.00848734
C        7.13106169       9.49468566      11.41798697       0.03521138       0.02045289       0.01490328
H        8.56022528       9.52479116      12.97182859       0.01359128      -0.01558633      -0.00841358
H        8.56641121       8.03428729      11.96264164       0.01567367      -0.00344038      -0.02154339
H        9.25404844       9.53025661      11.35123279       0.00532077       0.00479080      -0.00835304
H        5.97736666      10.96403669      11.82794844       0.00538665      -0.01489303       0.02327713
O        0.91733908       1.94465033       8.01128346      -0.00761444      -0.00554791       0.00611955
O        0.38441053       3.77510128       6.86253080       0.01049516      -0.00234875       0.00237748
C        0.47762516       3.89665691       9.26157248      -0.00815595      -0.00430706       0.00347084
C        0.56881207       3.22996387       7.93918488      -0.00077961      -0.00379092       0.00381270
H        0.18211056       3.19504203      10.03673821      -0.01709145      -0.00412643       0.00033040
H        1.48001610       4.24831157       9.51806397      -0.00880966      -0.00769015       0.01105364
H       -0.21066445       4.73671111       9.21158555      -0.00492400      -0.00193501      -0.00068136
H        1.00058927       1.60342698       7.10797340      -0.00155638      -0.00578217       0.00672084
O       10.07275540      10.29810257       3.69207724       0.00603282      -0.00571680       0.00348422
O       10.43782426      11.70566661       1.99117609      -0.00386512       0.00343376       0.01036787
C       11.89811973      11.77857405       3.88263702       0.00275499       0.00023919       0.00455922
C       10.73680531      11.26381302       3.08930634       0.00150150      -0.00058485       0.00654048
H       12.00848555      11.25448619       4.82729786       0.00507223      -0.00017941       0.00404207
H       12.80325152      11.68364903       3.28377228       0.00169477       0.00070212       0.00251573
H       11.71945207      12.84053379       4.06436049       0.00319415       0.00041191       0.00518302
H        9.18517216      10.15655275       3.25957893       0.00620805      -0.00431327       0.00230695
O        3.67702182      12.47581357       1.84100607       0.00369379       0.00149696       0.00493903
O        3.78872942      13.64554960       3.73194684       0.00970504      -0.00123680       0.00602993
C        1.63579397      13.23143358       2.76025725       0.00673699       0.00498377       0.00989844
C        3.12628959      13.13039835       2.82884867       0.00647777       0.00148764       0.00681692
H        1.37149190      14.25637665       2.49286455       0.00885972       0.00647610       0.01341203
H        1.21940730      12.54411463       2.02857625       0.00369877       0.00821656       0.00852777
H        1.21295670      13.03166533       3.74382218       0.00812816       0.00276522       0.01007661
H        4.67791594      12.32812423       2.01832831       0.00339216      -0.00265153       0.00396551
O       11.90187746       4.19632783       5.14924346       0.00721872      -0.00752681      -0.00406147
O       10.99614709       2.90861665       6.73370438       0.00897400       0.00474161       0.00719178
C        9.88619374       4.94890586       6.11550238       0.00474840      -0.00376123      -0.01177938
C       10.94850893       3.90780752       6.03733073       0.00750770      -0.00177330      -0.00187099
H       10.09198799       5.52311754       7.02182999      -0.00218171      -0.00061069      -0.01217747
H        9.91587708       5.61289509       5.25571894       0.00798284      -0.00658801      -0.01383516
H        8.90612527       4.48653175       6.20395317       0.00534385      -0.00600761      -0.01568195
H       12.63824403       3.57438710       5.27321776       0.00739625      -0.00659114      -0.00025403
O        1.11321514       7.66983838       0.23834568       0.00333200       0.01007146      -0.00762010
O        0.64781728       9.15743243       1.84783967      -0.01226567       0.00621986      -0.00852534
C        0.89564597       6.82851445       2.42884819       0.00692432       0.00851983      -0.00778264
C        0.85689237       8.01392402       1.51792124      -0.00176448       0.00839269      -0.00782748
H        0.50387180       5.93765554       1.94441262       0.00664672       0.00722781      -0.00524524
H        1.94065828       6.61221147       2.67320717       0.00878310       0.01089584      -0.01351598
H        0.35258109       7.05429602       3.34336022       0.01088464       0.00733941      -0.00514561
H        1.06504082       8.48413938      -0.28371349      -0.00381935       0.00945222      -0.00811581
O        2.48881805       5.27880681       5.34749932       0.00217760       0.00963223      -0.00391089
O        1.63746736       3.80411684       3.89176972       0.00403827       0.00952636      -0.00498813
C        3.79874134       3.37536417       4.87718898       0.00135994       0.00811979       0.00043103
C        2.53343327       4.12420360       4.63031934       0.00239837       0.00909337      -0.00325263
H        4.62242806       3.94789912       4.44504504       0.00296153       0.00602289       0.00088831
H        3.99218651       3.29099347       5.94778941      -0.00100726       0.00947939       0.00102225
H        3.74592098       2.39599162       4.40971848       0.00114234       0.00736488       0.00208607
H        1.64340180       5.72278296       5.17503402       0.00233465       0.00984643      -0.00436974
O        3.81214143       6.38357939       7.53906326       0.00018948      -0.00423838       0.00349009
O        3.92203617       4.35470188       8.48474285      -0.00749661      -0.00481737       0.00229558
C        4.34231634       6.30464425       9.83033560       0.00403480      -0.00777888       0.00227958
C        4.02595763       5.56202106       8.56909908      -0.00186531      -0.00660819       0.00258893
H        4.83876881       7.24907291       9.63182020       0.00567584      -0.00885621       0.00154235
H        3.39752635       6.51725991      10.33674208       0.00591964      -0.00618361       0.00533218
H        4.93483035       5.69228526      10.50451551       0.00431033      -0.00994939       0.00022717
H        3.48753499       5.86610021       6.77448539      -0.00345100      -0.00242358       0.00318479
O        3.00353162      13.15468077       6.11980580       0.00261983       0.01173089       0.00649795
O        5.16520487      13.05461175       6.63750760       0.00242992      -0.01293590       0.00369861
C        3.59938350      12.07229954       8.14007710      -0.00802393       0.02145162       0.01510072
C        3.98223052      12.80483340       6.90579375      -0.00047606       0.00557909       0.00793019
H        4.00778422      12.58979860       9.00790452       0.00372522       0.02109161       0.00979887
H        2.52628342      11.93750223       8.22370074      -0.00979537       0.03940576       0.01971129
H        4.07153098      11.08877096       8.08515333      -0.02269472       0.01390731       0.01954947
H        3.34461643      13.46314568       5.20895654       0.00616822       0.00413792       0.00510350
O       13.68928694       6.43111657       6.48855969       0.00862077      -0.00363195      -0.00086924
O       12.11663863       6.23455228       8.06602075       0.00045729      -0.00699157      -0.00952363
C       12.33119963       8.33635225       6.92836287       0.00381328      -0.00565988      -0.00623716
C       12.67774616       6.91514393       7.23809039       0.00395992      -0.00562447      -0.00578517
H       13.21844098       8.96418948       6.91070801       0.00336690      -0.00501271      -0.00460709
H       11.86992830       8.39712155       5.93991152       0.00535070      -0.00596891      -0.00702007
H       11.63614278       8.71850023       7.66887359       0.00209342      -0.00650005      -0.00737230
H       13.79676552       5.47296057       6.72352008       0.00990924      -0.00346532      -0.00008260
