197
Lattice="14.275773408724634 0.0 0.0 0.0 14.275773408724634 0.0 0.0 0.0 14.275773408724634" Properties=species:S:1:pos:R:3:forces:R:3 energy=-994812.0 stress="0.00018114346312358975 0.00024766787828411907 -8.747389074414968e-05 0.00024766787828411907 0.00042638235026970506 -3.340885814395733e-05 -8.747389074414968e-05 -3.340885814395733e-05 5.64050096727442e-05" pbc="T T T"
Yb      11.20033034      12.08368097       9.53119007      -0.01639491      -0.03849540      -0.01241090
Yb       8.93281073      14.07928934      12.05522187       0.02156244      -0.00908458       0.00500560
S       11.89520956      12.65734642      12.17752953      -0.01149711      -0.03019750      -0.01402690
S       13.02273654      11.08107295      11.76596074      -0.00481963      -0.02485287      -0.01184611
O       12.02226411      13.18186210      13.51207598      -0.01444370      -0.02353173      -0.01615810
O       10.44879764      12.21137765      11.87982295      -0.01005435      -0.03745794      -0.01100275
O       12.13389994      13.68443947      11.10864320      -0.01835021      -0.03103542      -0.01650286
S        9.37331396      13.78993774       8.24112556      -0.00278731      -0.01087075       0.00024116
S        8.63704981      11.92044642       8.09827922      -0.02347207      -0.00123751      -0.00524527
O        8.57515337      14.77374931       7.56506123       0.01013529       0.00061041      -0.00128585
O       10.79538028      13.71983963       7.79242793      -0.00427210      -0.02843890      -0.00028819
O        9.48123614      14.02220308       9.73560401      -0.00424326      -0.01232886      -0.00094056
S        7.04759181      14.25165605       0.30818649       0.00678849      -0.00429421      -0.00623353
S        9.10306654      14.32825061       0.54910259       0.00499165       0.00130218       0.00529158
O        6.45581963      15.45428586       0.86684455       0.00110126      -0.00164604      -0.01582694
O        6.56303357      13.00515273       0.87251017       0.00618601      -0.00175524      -0.00231570
O        6.87627681      14.24318704      -1.20571091       0.01521873      -0.01173978      -0.00681734
O        3.60924561       9.77822959       3.47729133       0.00390406      -0.00161979      -0.00201014
O        2.24859782       8.13513493       3.13157776       0.00649576      -0.00405257      -0.00127953
O        3.99311968       7.81295897       4.54003043      -0.00441498       0.00827140       0.00085539
C        4.83948882      10.32740029       4.03879545       0.00002050       0.00093353       0.00330818
C        4.90703624      11.77295664       3.63233048       0.00377461      -0.00138044      -0.00505306
C        3.36136306       8.52081158       3.79450949       0.00781131      -0.00661522       0.00753272
C        1.93007210       6.75589840       3.30052623       0.00492992      -0.00270441       0.00671120
H        4.80542005      10.20025579       5.12048533      -0.00784833       0.00791880       0.00344622
H        5.66987388       9.74237541       3.64323087       0.00232443      -0.00153506       0.01261753
H        5.82987382      12.20970728       4.01514330       0.00130658       0.00069346      -0.00020300
H        4.91769082      11.89561834       2.55076509       0.01253926      -0.00750662      -0.00539356
H        4.06914275      12.32917659       4.05235237       0.00119020       0.00171059      -0.01490113
H        2.68926787       6.13051381       2.82900987       0.00843072      -0.00641969       0.01783092
H        0.97154598       6.61433378       2.80760304       0.00834355      -0.00687001      -0.00037880
H        1.86220448       6.49775412       4.35745279      -0.00435504       0.00561877       0.00772783
O        9.94013648       8.31755848       0.63817625      -0.00612386       0.00088260       0.00405221
O       11.09133179       6.54514000       1.07316762      -0.01415507      -0.00104286       0.00960678
O        8.83282664       6.43457455       1.24480037      -0.01856685       0.00192726      -0.00529909
C        8.68447489       9.05233209       0.61864968      -0.00224158       0.00565112      -0.00191291
C        9.01341104      10.51457670       0.50575138       0.00054134       0.00513506      -0.00532123
C        9.84444268       7.04285869       1.00322682      -0.00157022       0.00836867      -0.00076748
C       11.15014791       5.19275516       1.56602677      -0.01894590      -0.00010721       0.00985798
H        8.09826674       8.68185410      -0.22404954      -0.00175762       0.00508641      -0.00237280
H        8.13811854       8.81300538       1.53052679      -0.00551030       0.00958170      -0.00251454
H        8.09663138      11.10844314       0.52311098       0.00142488       0.00710931      -0.00682665
H        9.63670488      10.83950983       1.33776442       0.00078958       0.00550296      -0.00559920
H        9.55102112      10.73008760      -0.41789759       0.00170621       0.00088715      -0.00562742
H       10.81125200       5.15455533       2.59971671      -0.02401860       0.00087954       0.00866416
H       12.19994735       4.91495435       1.49701009      -0.01943120      -0.00435141       0.01525050
H       10.54096472       4.53630399       0.95171237      -0.01833457       0.00072397       0.00760144
O       10.35964344       2.89375511       4.53894395       0.00200406      -0.00343975       0.00458969
O       12.15178417       4.09997394       4.70524905       0.00122934      -0.00254036       0.00814332
O       12.37313459       1.88434322       4.29596037      -0.00086814       0.00551093      -0.00090653
C        9.69995720       1.60049755       4.34962263       0.00479227      -0.00423940       0.00154794
C        8.22162686       1.85341521       4.29053790       0.00411397      -0.00668627       0.00139160
C       11.67587624       2.84934691       4.49339705       0.00712520      -0.00718498       0.00185548
C       13.57263095       4.18940069       4.60976026       0.00138818      -0.00104201       0.00970487
H       10.07368791       1.16329843       3.42441125       0.00567022      -0.00109647       0.00087875
H        9.97528112       0.96448932       5.19189782       0.00526977      -0.00497228       0.00064963
H        7.70917645       0.89963061       4.16279366       0.00575438      -0.00792755       0.00114975
H        7.86852302       2.32591053       5.20643473       0.00316621      -0.00775051       0.00138488
H        7.97182409       2.47491371       3.43322065       0.00296174      -0.00728296       0.00139771
H       14.05451753       3.52777729       5.32877431       0.00148246      -0.00252524       0.00796014
H       13.81534798       5.22618945       4.82477794      -0.00077183      -0.00080508       0.01353946
H       13.90861796       3.91816594       3.60783087       0.00285488       0.00290665       0.00933555
O        7.66118206       8.03517802       3.78243389       0.00354170       0.00358593       0.00474026
O        6.46077092       6.31382513       3.27074913       0.00846794      -0.00015783       0.01041879
O        8.43776170       5.97471208       4.32248516       0.02208185       0.00343323      -0.00452048
C        8.90639292       8.61073677       4.23849327       0.00278497       0.00932598      -0.00177425
C        8.69310557      10.09147295       4.39968075      -0.00052497       0.00885040      -0.00262570
C        7.60796402       6.69657371       3.83273393       0.00343728       0.00963283      -0.00157741
C        6.32097409       4.89015740       3.16569014       0.01416977       0.00013082       0.00583848
H        9.19924081       8.11478266       5.16410007       0.00846872       0.01163140      -0.00187063
H        9.67498633       8.39728414       3.48965887       0.00081795       0.01056439      -0.00433877
H        9.63131888      10.56726573       4.68164866      -0.00114065       0.01147164      -0.00545014
H        8.37010252      10.54296978       3.46182716      -0.00390338       0.00689360      -0.00252554
H        7.94458087      10.29983827       5.16422233       0.00064783       0.00782721      -0.00114162
H        7.09058481       4.49370990       2.50804306       0.01552075       0.00550821       0.00368845
H        5.33732768       4.72809187       2.73329856       0.01461348      -0.00397234       0.00651328
H        6.39739872       4.42115203       4.14412296       0.01753094      -0.00275372       0.00452948
O        8.41719707       3.61989973      13.41600813       0.00613910      -0.00193867       0.00095805
O       10.51074657       3.11624796      13.27211226       0.00498673      -0.00768408       0.00234875
O        9.06917292       2.15177555      11.83720673       0.00325432      -0.00536071       0.00294608
C        7.04422116       3.51932968      12.92032956       0.00554184       0.00049496       0.00226343
C        6.15291385       4.12106145      13.96652383       0.00790566       0.00262028       0.00308853
C        9.29762107       2.90518654      12.78362545       0.00473368      -0.00615865       0.00127035
C       11.53993305       2.24688926      12.77085731       0.00316264      -0.00994426       0.00257970
H        7.00786562       4.06737082      11.98014485       0.00569250       0.00071946       0.00225502
H        6.82225122       2.46201562      12.77098900       0.00359812       0.00100988       0.00245555
H        5.12788065       4.12494847      13.59198795       0.00733167       0.00338698       0.00475954
H        6.18311288       3.50446768      14.86011914       0.00853083       0.00323060       0.00357452
H        6.44517551       5.14621848      14.19117476       0.00935709       0.00249547       0.00204074
H       11.42190908       1.25159990      13.20263554       0.00098364      -0.00969684       0.00280520
H       12.47584765       2.67594701      13.11490962       0.00415470      -0.01208015       0.00266851
H       11.51374703       2.19634974      11.68508507       0.00306839      -0.00976112       0.00248781
O        9.49095614       7.52234771       7.76624570       0.00328645       0.00617172       0.00449267
O       11.26209213       6.31539640       7.86447678       0.00625987       0.01201074       0.01061284
O       11.44576978       8.53959197       8.29313474      -0.00265962       0.01085216       0.00928667
C        8.83583151       8.80917873       7.84413316      -0.00076076       0.00434026      -0.00039172
C        7.37383807       8.61068885       7.55611422       0.00024062       0.00088814      -0.00279766
C       10.79706965       7.55676320       8.00463800       0.00377792       0.01248598       0.00908664
C       12.66524593       6.13775169       8.10495214       0.00647661       0.01460440       0.01183675
H        9.01698033       9.22018501       8.83867166      -0.00414327       0.00736944      -0.00123301
H        9.31446713       9.48176421       7.13284018      -0.00147921       0.00414151      -0.00085825
H        6.86527860       9.57242402       7.64007681      -0.00112142       0.00058401      -0.00401504
H        7.21538891       8.22873048       6.54774073       0.00247286       0.00091047      -0.00306934
H        6.92429153       7.89911325       8.24632423      -0.00005879       0.00083765      -0.00313585
H       13.25642361       6.78061927       7.45723451       0.00582688       0.01168248       0.00848410
H       12.85073621       5.08820017       7.89398549       0.00717988       0.01364020       0.01637335
H       12.90098300       6.36851236       9.14243944       0.00608457       0.01937135       0.01070225
O        4.08308443      10.47104816       7.64680761       0.00432959      -0.00311381      -0.00116317
O        4.81222035      12.40243996       7.01890761       0.00305668      -0.00232601      -0.00048737
O        4.89596234      11.87970206       9.22453612      -0.00798976       0.00161585       0.00078249
C        3.87673851       9.47837352       8.67787601       0.00197966      -0.00246748      -0.00097436
C        3.33990435       8.24060703       8.01390217       0.00324555      -0.00292072      -0.00114444
C        4.62637048      11.61644878       8.07872497      -0.00066489      -0.00098348       0.00040579
C        5.41597627      13.67643649       7.31079360      -0.00283664       0.00016687       0.00057076
H        4.83528355       9.29961799       9.16874362       0.00100815      -0.00234824       0.00110553
H        3.19030509       9.88894250       9.42256383       0.00071779      -0.00196949      -0.00244704
H        3.19363996       7.46314252       8.76506975       0.00135284      -0.00227546      -0.00086363
H        2.38147124       8.43714583       7.53512367       0.00431925      -0.00307571      -0.00365243
H        4.03787566       7.87354475       7.26244230       0.00467211      -0.00362022       0.00052354
H        4.71119708      14.30236827       7.85643789      -0.00621349      -0.00279230      -0.00045086
H        5.64774375      14.11619756       6.34662493      -0.00310678       0.00096848       0.00080177
H        6.32463218      13.54092902       7.88917163      -0.00307322       0.00369037       0.00182238
O        9.39081257       8.36443484      11.49499270      -0.00193682      -0.00116679      -0.00449988
O       11.21511061       7.22757783      11.71002995      -0.00314717      -0.00060765      -0.00114030
O        9.26135070       6.09933028      11.50603368      -0.00556344      -0.00513518       0.00112586
C        7.95459605       8.44192161      11.31655596      -0.00132541       0.00008214      -0.00366127
C        7.59214035       9.90625951      11.35540914      -0.00265423      -0.00024936      -0.00470017
C        9.88631268       7.12851610      11.56683146       0.00255877       0.00769073      -0.00072390
C       11.87362422       5.96776399      11.87511248      -0.00287086       0.00070663       0.00412968
H        7.69906945       7.96845977      10.36778593      -0.00227877      -0.00096287      -0.00326055
H        7.46779675       7.85894834      12.10027462      -0.00129290       0.00044248      -0.00285780
H        6.54026702      10.04872461      11.10623736      -0.00245354      -0.00076187      -0.00559406
H        7.77290178      10.33046506      12.34245058      -0.00317968       0.00086737      -0.00506994
H        8.17563108      10.47283323      10.62698721      -0.00265297      -0.00000669      -0.00470203
H       11.54265318       5.48521791      12.79317745      -0.00660591       0.00198157       0.00373343
H       12.93370713       6.20009823      11.92735588      -0.00298366       0.00009597       0.00801194
H       11.66374782       5.31111696      11.03074114       0.00049827      -0.00133899       0.00439698
O       13.48113565      10.55709670       2.15348204       0.00085896       0.00418738      -0.00463089
O       13.39670966      12.06929986       3.69855360      -0.00170651       0.00120053      -0.00198042
O       11.45555560      11.18882429       2.93786624       0.00030291      -0.00185499      -0.00259295
C       12.79260301       9.75782750       1.16060897       0.00227427       0.00538170      -0.00695127
C       13.82745526       8.98182777       0.39552333       0.00347722       0.00289361      -0.00254163
C       12.66032240      11.26635597       2.92977191      -0.00104213       0.00104703      -0.00300355
C       12.62038342      12.94678258       4.53447107      -0.00302106      -0.00167920       0.00002090
H       12.07976865       9.10554016       1.66167715      -0.00111622       0.00734827      -0.00955480
H       12.22866578      10.42910489       0.51222211       0.00653169       0.00699401      -0.00905296
H       13.31876625       8.37183381      -0.35175692       0.00537361       0.00421927      -0.00495216
H       14.51129642       9.65456670      -0.11969936       0.00736228       0.00112036       0.00034329
H       14.40090013       8.33113719       1.05642201      -0.00072233       0.00176458       0.00006823
H       12.03400493      13.62656710       3.92276541      -0.00454065      -0.00179115       0.00143296
H       13.34634244      13.51374154       5.10824628      -0.00372502      -0.00136402       0.00062752
H       11.97038926      12.37106639       5.18907080      -0.00153214      -0.00402850      -0.00058660
O       13.22432189      10.68260363       6.92102622       0.00019149      -0.00118177      -0.00067435
O       12.72655595       9.32841947       5.31795787      -0.01230349       0.00381637      -0.00082899
O       14.29593722       8.68842969       6.81680758       0.00028336      -0.00148392      -0.01544428
C       13.84374169      10.95809223       8.19003482       0.01605414      -0.00277919      -0.00753850
C       13.95330346      12.46086117       8.32774193       0.00485907      -0.00376916       0.00105581
C       13.48946490       9.48185197       6.39807869      -0.00449145       0.00171226      -0.00711039
C       12.90737482       8.08265408       4.62825779      -0.01650169       0.00698483      -0.00736721
H       13.22802037      10.48715161       8.96841437       0.03108397      -0.01043212      -0.00098196
H       14.81544907      10.47035189       8.24568935       0.02146807       0.00642385      -0.02643104
H       14.15290152      12.72918457       9.36685312       0.02032176      -0.00906082      -0.00116700
H       14.76043365      12.84052553       7.70322154      -0.01043977       0.00851193      -0.01077177
H       13.04666451      12.97419319       7.98438035      -0.00567442      -0.00973066       0.02182994
H       13.96089497       7.81344514       4.61634680      -0.01500708       0.01408443      -0.02848256
H       12.54265047       8.24673739       3.61952513      -0.03657427       0.00726080       0.00022149
H       12.32185355       7.30141989       5.11634811      -0.00164822       0.00084394       0.00037843
O        7.57368319       3.76461029       7.63818335      -0.00307429       0.00519796       0.00121839
O        5.70193850       3.96055325       6.57120747      -0.00193638       0.00300391      -0.00118196
O        6.27796393       5.57846650       8.04229343      -0.00467679       0.00508690      -0.00215256
C        8.54659261       4.26842624       8.59889424      -0.00400478       0.00750908       0.00062512
C        9.78096916       3.41775619       8.47964823      -0.00474015       0.00600392       0.00527699
C        6.51393086       4.53832486       7.47377511      -0.00385832       0.00382817      -0.00115347
C        4.52964180       4.73375833       6.27444955      -0.00167440       0.00275688      -0.00462478
H        8.74120347       5.31144730       8.36464723      -0.00242745       0.00660509      -0.00296482
H        8.10315735       4.21345112       9.59417102      -0.00547102       0.01190958       0.00034446
H       10.53818811       3.80428223       9.16358458      -0.00542837       0.00790403       0.00503586
H        9.57362004       2.38205448       8.73419731      -0.00592251       0.00683618       0.00808381
H       10.17641157       3.45569658       7.46479331      -0.00313483       0.00240807       0.00574148
H        3.96888651       4.94163678       7.18546601      -0.00339815       0.00379759      -0.00593948
H        3.94483675       4.11580878       5.59847930      -0.00033870       0.00187927      -0.00499305
H        4.79391608       5.67487647       5.79391452      -0.00061245       0.00207964      -0.00518872
O        3.56352577       4.78085861      10.62855607      -0.00077665       0.00331777       0.00070064
O        3.38357814       6.78619294      11.41518788      -0.00301233       0.00147860       0.00086762
O        5.44036918       5.84546583      11.32567028       0.00270677       0.00213992       0.00762436
C        4.36069685       3.61262767      10.31585864      -0.00237650       0.00285122       0.00293165
C        3.43893422       2.59005129       9.70922425      -0.00011471       0.00301120      -0.00124173
C        4.25280166       5.80317509      11.13546689      -0.01410735       0.00179589       0.00116883
C        3.99554298       7.94116455      12.00418270      -0.00723007       0.00130165       0.00358290
H        5.15927364       3.91585533       9.63934779       0.00084150       0.00195466       0.00575426
H        4.81388131       3.24438751      11.23715071      -0.00549585       0.00170760       0.00442970
H        4.00523194       1.68778474       9.48059786      -0.00005999       0.00249180       0.00097649
H        2.64124824       2.32789147      10.40364522      -0.00339854       0.00369508      -0.00467303
H        2.99222903       2.96141273       8.78704367       0.00404479       0.00362650      -0.00296840
H        4.48387918       7.67591312      12.94136208      -0.00938176       0.00091930       0.00499851
H        3.18574362       8.64248170      12.17822789      -0.00755697       0.00137633       0.00238251
H        4.73291006       8.36767165      11.32662951      -0.00510612       0.00295609       0.00634551
