199
Lattice="19.384218293775714 0.0 0.0 0.0 19.384218293775714 0.0 0.0 0.0 19.384218293775714" Properties=species:S:1:pos:R:3:forces:R:3 energy=-2708228.5 stress="8.278907625935972e-05 -7.20721400284674e-05 8.605587208876386e-05 -7.20721400284674e-05 0.00022803737374488264 3.6902953070239164e-05 8.605587208876386e-05 3.6902953070239164e-05 0.0001252176152775064" pbc="T T T"
Yb       0.30684022      17.80888703      11.96766164       0.02120745       0.00331971       0.00093299
Yb      10.96923069      17.76870958       9.35181970      -0.00303775      -0.00498945       0.00634149
O        3.20869584      18.55827974      16.43736255       0.00489330       0.00722766      -0.02199650
O        0.98055495      18.04897946      16.61822388       0.00803590       0.01489337      -0.00250685
O        2.43463700      16.73224819      17.50344838       0.01880345       0.00121951      -0.01389098
C        2.36261739      17.78194727      16.85858414       0.02243257       0.01704594      -0.01978546
O        1.31504576      17.69227594      14.10740548       0.00125146       0.00497055       0.00253092
O        0.28514621      19.60726208      13.62173365      -0.00027072       0.00397515      -0.00252712
O        0.74345046      19.18844175      15.72721866       0.00866151       0.00858355      -0.00148916
C        0.81799834      18.79385631      14.44892109       0.00330304       0.00654340       0.00419348
O       12.72034850      18.97330203       2.73419147       0.00802851      -0.02409622      -0.02234960
O       14.88941262      18.76261293       2.79933763       0.00865102      -0.01600951       0.00236094
O       13.84337104      19.70121125       4.46653130      -0.01263344      -0.00348592      -0.01807332
C       13.81566485      19.15540764       3.33076650       0.00145722      -0.01470492      -0.01294547
Cl      -1.66742022      18.46150594       4.09877017       0.00305039       0.00310841       0.00776054
Cl      -0.89609738      15.80846471       4.96124456       0.00600506       0.00146103      -0.00002931
Cl       0.71851289      18.08943994       5.73268681       0.00486639       0.00084618       0.00265393
Cl       0.68693927      17.20428640       2.97047647      -0.00000179       0.00604066      -0.00014722
C       -0.29740220      17.40101202       4.43169338       0.00384472       0.00337112       0.00312763
Cl       8.53009233       3.53197054       2.83380503       0.00874051       0.00412261       0.00942205
Cl       6.82404728       1.26658016       2.25346771       0.01508832       0.00074172      -0.00016531
Cl       7.78575041       1.70168950       4.95844979       0.00658362      -0.00072031       0.00291717
Cl       9.63322136       0.85615029       2.88895320       0.01397073       0.00574780       0.00490841
C        8.20409878       1.83198759       3.22726658       0.01128526       0.00221192       0.00454927
Cl      15.11144894       5.11082060       8.76827530       0.00551468       0.01510593       0.00649313
Cl      12.98454448       7.08100437       8.66761676      -0.01072098      -0.00309250       0.00486219
Cl      12.62898433       4.61843777      10.16808344       0.01151508      -0.00248155       0.01159820
Cl      12.69185254       4.56085575       7.26435865       0.00919478      -0.00834736       0.01089743
C       13.35822228       5.34974355       8.71618664       0.00299112       0.00026865       0.00915188
Cl       7.56210133       1.24817556      14.26245399       0.01014191       0.02231950       0.01513755
Cl       6.14144538      -1.18340919      14.97251122       0.01331718       0.01032174      -0.01138763
Cl       4.68700092       1.30147708      14.60841270       0.00911510       0.00713250      -0.00711447
Cl       6.41008405       0.95604154      16.91042448      -0.00595801      -0.00223006       0.00312221
C        6.18703133       0.56598109      15.20023442       0.00780743       0.00900780      -0.00062342
Cl       0.93611347      10.80654415       1.50720463      -0.00338513      -0.00650314       0.00795364
Cl       2.31020713      12.89437179       2.97938620      -0.00330223      -0.00061429       0.00295253
Cl       3.65429549      10.37949358       2.43627564       0.00147915       0.00297552      -0.00268741
Cl       1.47094050      10.47507329       4.34190153       0.00857131      -0.00131103       0.00594673
C        2.09299218      11.13511309       2.80698706       0.00067054      -0.00156701       0.00308272
Cl       4.94997935       5.14616711       7.57655797       0.00093493       0.00264615      -0.00580037
Cl       4.11478501       7.30137939       9.32926765       0.01195133       0.00364360      -0.00120932
Cl       2.60660800       4.82462381       9.26172088       0.00599335       0.00696617       0.00115728
Cl       2.53073190       6.63460920       6.99153730       0.00365978       0.01003557       0.00312167
C        3.55445882       5.98471461       8.28103467       0.00552698       0.00577850      -0.00055574
Cl      18.16481217      14.07388380       1.46617832       0.00692284       0.01425064      -0.00530571
Cl      15.50518389      13.43379120       0.50435662       0.01552269      -0.00905865      -0.01413679
Cl      17.10528961      15.43288930      -0.86689381       0.00138813       0.01068532      -0.00223452
Cl      16.01098557      16.00940876       1.74682567      -0.01584914      -0.01328713       0.00000703
C       16.69092190      14.75035636       0.72054328       0.00268423       0.00164878      -0.00582924
Cl       6.60100928       9.69104512      16.80658688      -0.00542656      -0.00118187      -0.01166908
Cl       5.31992845       8.03220727      14.79876688       0.00036502      -0.01694398      -0.00313294
Cl       3.82549754       8.92274735      17.12316653      -0.00199813      -0.00895028      -0.00759818
Cl       5.91436320       6.93762757      17.40672982       0.00542304      -0.00073662       0.00207928
C        5.40922098       8.39228841      16.53177550      -0.00053735      -0.00710328      -0.00506052
Cl       8.83805806      15.71149168       8.96583584       0.01211658      -0.02106497      -0.01126073
Cl       7.04199075      17.95186495       8.33502942      -0.00307497      -0.02806528       0.00438762
Cl       9.46017678      17.54255192       6.73688017      -0.00122756       0.00465813       0.00323400
Cl      11.80266428      17.85555248      11.80643734      -0.00252613       0.01052542       0.00501806
C        8.71226933      17.48977319       8.41768600       0.00012767      -0.01766610       0.00236523
Cl      14.79834673       7.39228959      14.67262990       0.01181316       0.00415590       0.00793058
Cl      16.40130149       6.66629293      12.36315974      -0.01099838      -0.00140017      -0.00564456
Cl      16.86709171       9.18644640      13.72276265       0.00949237      -0.00321144      -0.01045357
Cl      14.44197350       8.79814426      12.16657578      -0.00446048       0.00518139       0.01039609
C       15.62894758       8.00635799      13.23170880       0.00145378       0.00117816       0.00077346
Cl       0.63219242      14.99807525      15.81115309       0.00123554       0.01209395      -0.00108796
Cl      -1.60532870      16.65292336      15.08637481       0.00882915       0.01145357      -0.02836099
Cl      -1.88959461      13.77566177      15.03198183       0.00124626       0.01204935       0.00048493
Cl      -0.27049584      15.07321749      13.00224565       0.01589089      -0.01075587      -0.00314359
C       -0.76628464      15.12198750      14.82017236       0.00761020       0.00635292      -0.00896484
Cl      11.93176726      10.68025303       6.22639732       0.00196809       0.01014243       0.02030334
Cl      10.11590745       9.64897333       8.23116678      -0.01046354       0.00762966       0.00705671
Cl       9.17939296      10.10946281       5.52428087       0.01180449      -0.01336931      -0.00173819
Cl       9.79321709      12.36343125       7.24210340      -0.01665276       0.00140834      -0.00864163
C       10.25372072      10.70494063       6.79528306      -0.00347396       0.00186237       0.00379742
Cl       3.35888992       3.70832146       3.77993442       0.00109579      -0.00019661       0.00935236
Cl       1.10466763       1.88247131       3.79244238       0.00119263      -0.00096296       0.00115800
Cl       2.31252026       2.72690981       6.29426379       0.01316325      -0.02489612       0.00357842
Cl       3.74213211       0.93195632       4.52443079       0.00422931      -0.00755113      -0.02028583
C        2.63415429       2.31143069       4.59346324       0.00451272      -0.00840877      -0.00213884
Cl      15.61306047       3.88258312      15.05939631      -0.00064456       0.00942808      -0.00122361
Cl      14.71223361       1.13377104      15.32996043      -0.02200383       0.01571140       0.00106487
Cl      17.32759504       1.70358854      14.21980534      -0.01805508      -0.00384258       0.00052337
Cl      14.93398546       2.33778595      12.69999064      -0.01478554       0.01376367       0.00083849
C       15.65500196       2.26400203      14.33766594      -0.01387141       0.00820079       0.00070905
Cl      11.62773243      15.94403753       2.10809619       0.00334045       0.01348889       0.00361326
Cl      10.41418256      13.62079618       0.86920712       0.00203058       0.01226699       0.00312233
Cl       9.98985044      14.14120669       3.69203807       0.01380554       0.00859518       0.00479263
Cl      12.58895142      13.28507898       2.76106342       0.01873505       0.02008510      -0.01297739
C       11.15270747      14.24895055       2.35389297       0.00878020       0.01202307       0.00000660
Cl       7.82456875       7.16979675      11.44394340      -0.00673959      -0.00584497       0.00762546
Cl       8.93590657       8.22191719      13.91234489       0.00246441      -0.00335091       0.00093272
Cl      10.43729497       6.29782578      12.35495149       0.00081199       0.00332990      -0.00782330
Cl       8.04847727       5.45680175      13.77080719       0.01347366      -0.00741464       0.00392890
C        8.81052909       6.78788011      12.87983163       0.00195786      -0.00390888       0.00170365
Cl      10.51965357      16.78827021      17.38537139       0.00639966      -0.01834136       0.00285420
Cl      11.08975838      14.64846226      15.50612596       0.02123255      -0.02649271       0.02041873
Cl      12.94105309      15.22573620      17.67048318       0.02559400       0.01448646       0.00753349
Cl      12.66542338      17.08302076      15.45557537      -0.00371641      -0.01469040      -0.01082271
C       11.80683473      15.93721689      16.50609198       0.01279525      -0.01108146       0.00555451
Cl      12.39206551      14.87108240      11.07179286      -0.00850382       0.00083110       0.01199074
Cl      12.03806353      12.11569693      10.13014387      -0.01335728       0.01065734      -0.00733121
Cl      13.53304075      12.67082114      12.55240149      -0.00356834      -0.00832202      -0.00566357
Cl      14.63574526      13.36656163       9.95628921      -0.01204127       0.00414146      -0.00241788
C       13.14396026      13.23455713      10.91776411      -0.00834213       0.00129890      -0.00073358
Cl      16.57594742       9.58477533       2.49589501      -0.00993056       0.00443304      -0.00029761
Cl      17.85973629       7.30468236       1.23871167       0.00375792       0.01036304       0.00462551
Cl      16.73027939       9.42555233      -0.39176253      -0.01173801      -0.00127211       0.00000882
Cl      14.98363256       7.62343947       1.06765487      -0.00077337      -0.00556424       0.00418768
C       16.53857503       8.48332121       1.10308920      -0.00430584       0.00122365       0.00242425
Cl      10.01896383       3.48662180      17.63880164      -0.00515598       0.00332698       0.01240553
Cl      10.06778421       6.28797190      16.90677097       0.00144914       0.00030589      -0.00154847
Cl      12.43801095       4.65160573      16.53365330      -0.00629053      -0.00746506      -0.00469953
Cl      11.57719833       5.36388340      19.20903361       0.00925763       0.00656831      -0.00420815
C       11.02488812       4.94873783      17.56662137      -0.00015823       0.00038128       0.00052021
Cl      10.82604343      10.82977070      17.69841679      -0.00708991       0.00117128      -0.01143727
Cl      13.59786386      11.56879129      17.28563334      -0.00737417       0.01090240      -0.00393511
Cl      12.12660680      10.23363097      15.17543196       0.00531271      -0.00925961      -0.00110304
Cl      12.86947232       8.77953856      17.57637915       0.00560313       0.01198488       0.01262772
C       12.35644440      10.35165735      16.93497020      -0.00117433       0.00402302      -0.00118497
Cl      16.57384028       1.24156235       9.39143108      -0.01043715       0.04139831      -0.00054711
Cl      19.17305552      -0.09234485       9.21356122      -0.02669191       0.00646219       0.00527614
Cl      19.00135766       2.78284627       9.68978717       0.01707438       0.00871074      -0.00207009
Cl      18.28115814       1.68350181       7.10329546       0.00464791       0.00733791       0.01057401
C       18.22600570       1.45372732       8.83177978      -0.00619994       0.01819295       0.00906570
Cl      18.57357034       7.55048864       5.05309333       0.00908834       0.00655031      -0.00045595
Cl      16.16256972       5.94885121       5.23878457       0.00934231       0.00800961       0.00196597
Cl      18.23531303       5.70108353       7.25979376       0.01106317       0.00713674       0.00057542
Cl      18.69403169       4.69237292       4.58428441       0.00693806       0.00576794       0.00033852
C       17.91255426       5.97336060       5.52643782       0.00941442       0.00655800       0.00101963
Cl       0.98061448      11.68872812      14.29362462       0.00804585       0.00017276      -0.00287616
Cl       3.49326575      10.65512266      13.29907274       0.00940801      -0.00511289       0.00555196
Cl       3.44994898      12.32874578      15.67225190       0.00556491       0.00181578       0.00075468
Cl       2.92014192      13.48097362      13.07440945       0.01281325      -0.00495261      -0.00345008
C        2.71606145      12.03177182      14.09153354       0.00899110      -0.00197779       0.00010814
Cl       9.20078137      13.71508706      11.89947993      -0.00971201       0.00714055       0.03320435
Cl       6.37731801      13.05539860      11.68377375      -0.00183237      -0.01081470       0.00365578
Cl       7.93256578      12.09422463      13.93422296      -0.01203074      -0.02732189       0.00474894
Cl       8.38181154      11.00121032      11.28394337       0.01174790       0.00334370       0.00408588
C        7.97787308      12.46955054      12.19936521      -0.00212227      -0.00544989       0.01050079
Cl      19.48225145      10.00274174       8.14028042      -0.00199980       0.00429692      -0.00261891
Cl      19.65574027      10.67588877      10.96289812      -0.00710088      -0.00868291       0.00245748
Cl      19.44733012       7.90871724      10.15077225      -0.00174741      -0.00303125      -0.01413623
Cl      17.16968509       9.68222201       9.85529883      -0.00204939      -0.00341163      -0.00884762
C       18.93300364       9.56130815       9.77319493      -0.00347248      -0.00199154      -0.00652956
Cl      -0.23616692       5.83759735      15.20790630      -0.00250453      -0.00041246      -0.00330889
Cl       2.59935080       5.61938525      15.77420521      -0.00599819      -0.00407245       0.01282120
Cl       1.70421225       6.78487131      13.27326572       0.01044351      -0.01858783       0.00060907
Cl       1.39403653       3.93310644      13.74922838      -0.00055593      -0.01425982       0.01804781
C        1.36784547       5.54555146      14.50757501       0.00040239      -0.00974238       0.00684243
Cl       4.93952466       1.76741288      11.06226753       0.00083803      -0.01748803      -0.01068504
Cl       2.32344973       0.69029650      11.69655839       0.00157717      -0.01388824       0.00405006
Cl       4.54872579      -1.09779184      11.33669606      -0.02716808      -0.02265032      -0.00937994
Cl       3.48341249       0.33054869       9.03416158      -0.01317440      -0.00209305      -0.00673179
C        3.85816628       0.41823981      10.76090579      -0.00688246      -0.01239055      -0.00837977
Cl      12.60274261      16.83840316       5.17250233      -0.00659877      -0.00147890      -0.00336683
Cl      12.98512164      18.77222449       7.34275979       0.01026373      -0.00963456       0.01357900
Cl      15.15088158      17.03144315       6.50150438      -0.01212570      -0.01998643      -0.00486609
Cl      12.85118638      15.92648371       7.92079167      -0.00834601      -0.01269631      -0.00517452
C       13.42214182      17.12836742       6.66320006      -0.01132219      -0.01000519       0.00109318
Cl       8.92053150       0.42858218      10.93923535      -0.00949901      -0.00484753      -0.00387825
Cl      11.03846688       1.43514512       9.23700149      -0.01384071      -0.00175853      -0.00913179
Cl      11.02733671       2.06433905      12.08990022      -0.00067592      -0.00693944      -0.01200610
Cl       9.05762738       3.25947460      10.34059448      -0.00738165      -0.00320530      -0.00110450
C        9.99202411       1.81928886      10.70174697      -0.00774002      -0.00522947      -0.00695938
Cl       4.02049417      14.73997867       9.67060038      -0.01826054       0.00674913       0.00939667
Cl       2.46247119      14.98001229       7.24562458      -0.01947686       0.00198778       0.00886420
Cl       1.73138336      16.56528355       9.57447114      -0.01470392       0.01019147       0.00108463
Cl       1.34348470      13.64599158       9.55733178      -0.01780398       0.00875009       0.01342280
C        2.41373073      14.90803176       8.98791913      -0.01777154       0.00650498       0.00882709
Cl       2.61828505       2.25716930      17.38462509      -0.00848851      -0.01218262       0.01606584
Cl       1.55081994       3.82360403      19.57665363      -0.00057948      -0.01553690       0.02055474
Cl       4.40367873       3.82794079      19.05403572      -0.00448430      -0.00098947       0.00258961
Cl       3.13374151       1.44288099      20.10132469       0.01496916      -0.00578988       0.01359612
C        2.91959635       2.83171062      19.01280367       0.00057655      -0.01020554       0.01137307
Cl      15.99261137      10.65033471       6.29882244       0.00192588      -0.00308514      -0.02075069
Cl      16.80912127      12.67069570       4.38124919       0.00987563       0.01214500       0.00028622
Cl      17.18426595      13.13151008       7.22319481      -0.00060539      -0.01054999       0.00565028
Cl      14.51503332      13.13569790       6.08122282       0.00383270      -0.00124988      -0.00408949
C       16.12142522      12.39236878       5.98662108       0.00415128      -0.00025353      -0.00457762
Cl       3.46460716      10.67918660       7.69320893      -0.00464123      -0.00123892       0.00555861
Cl       5.24724223      12.21827488       6.00713322      -0.02608372       0.00258920      -0.00834525
Cl       5.26190357       9.31992492       5.86150393      -0.00206359       0.00461000       0.00376627
Cl       6.31602488      10.65795572       8.21171208      -0.00229350       0.01776179      -0.00406170
C        5.07618572      10.71511731       6.94344827      -0.00775358       0.00646299      -0.00013348
Cl       5.79981573       6.61155814       2.53185050      -0.00389761       0.00010487      -0.00465095
Cl       8.09448493       6.34127303       0.76688387       0.00530843       0.00547376       0.00614226
Cl       8.43048739       7.44925886       3.41665421      -0.01140162       0.01082620       0.00576302
Cl       7.03182698       8.96620638       1.37548673      -0.00727423       0.00242782      -0.00372136
C        7.33768642       7.33655988       2.02129463      -0.00450491       0.00474212       0.00076087
Cl      15.51309063      15.88783170      12.46145952      -0.01401189       0.00648546      -0.00838643
Cl      17.42809433      16.37080980      10.31449775       0.01163828      -0.00680612       0.01735523
Cl      16.85125839      18.45592138      12.27720872      -0.01581904       0.00896639      -0.01585615
Cl      14.84744279      17.70427359      10.32507917       0.00390923      -0.01131299      -0.02947482
C       16.10784154      17.07976073      11.34942489      -0.00375694       0.00203478      -0.00779077
Cl       6.28516688      14.83929584       3.88968522      -0.01896606      -0.00598568      -0.01837939
Cl       6.25464986      17.58749979       4.80756565      -0.01637995      -0.01272294       0.00506467
Cl       4.76886891      16.84410090       2.43205407      -0.01023388       0.01055062      -0.00527143
Cl       7.66805107      16.88543279       2.37584548      -0.00960720       0.00328119       0.00465494
C        6.24558696      16.54435035       3.37155272      -0.01359388      -0.00160216      -0.00343962
