197
Lattice="13.286617020996182 0.0 0.0 0.0 13.286617020996182 0.0 0.0 0.0 13.286617020996182" Properties=species:S:1:pos:R:3:forces:R:3 energy=-112219.515625 stress="-0.002565859816968441 -0.0006182709184940904 -0.000642220227746293 -0.0006182709184940904 -0.005026790779083967 -0.00047048996202647686 -0.000642220227746293 -0.00047048996202647686 -0.002907028654590249" pbc="T T T"
N        4.52172418      10.40593903       6.20530886      -0.01292595       0.00299904      -0.00138909
N        3.40036014       9.35656394       7.74274296      -0.01047727       0.01493165       0.01383406
C        5.38198590      11.37428254       5.52105692      -0.01311358      -0.00172037      -0.00747091
C        4.19486808      10.40706807       7.50708432      -0.00265235       0.01177710       0.00544178
C        3.92116085       9.33268709       5.60246668      -0.03015068       0.00137907       0.02434343
C        3.22330479       8.66997564       6.56446601      -0.01077834       0.02441436       0.01011914
C        6.86418249      11.14036217       5.74824138      -0.01348424       0.00087130      -0.00760132
C        2.83259422       8.97298714       9.02890191       0.00169572       0.02686058       0.02183789
H        5.12414171      11.31463361       4.46593752      -0.01460955      -0.01358373      -0.00716975
H        5.07313789      12.36321397       5.85811205      -0.01370064       0.00069949      -0.01872946
H        4.48885487      11.13942597       8.23866935       0.00731517       0.01094307      -0.00189393
H        4.03946331       9.14111117       4.55225866      -0.03284146       0.00111565       0.00617405
H        2.59362312       7.80100129       6.50453959      -0.02530564       0.01406221       0.02682276
H        7.11409300      11.11987049       6.80878471      -0.01236712       0.01003689      -0.00807877
H        7.43675947      11.94561556       5.28601812      -0.01527800      -0.00294942      -0.01460075
H        7.18853286      10.20225942       5.30148035      -0.01305615      -0.00227413       0.00068443
H        2.89526365       9.79867422       9.73502262       0.00523958       0.02887681       0.01532629
H        1.78484287       8.71852631       8.88518863       0.00014317       0.02719777       0.03438973
H        3.36257505       8.10503656       9.42369197       0.00265233       0.03159684       0.02730392
N        8.19464543      11.22550380      11.85453626      -0.00620574       0.00730786      -0.00210812
N       10.14542150      10.29179099      12.00969188      -0.00434959       0.00038564      -0.01182639
C        6.78261366      11.42050112      11.52827910      -0.00644413       0.00548558       0.00077662
C        8.87309238      10.08803819      11.67674845      -0.01221856      -0.00338823      -0.01426908
C        9.07797868      12.18217425      12.31378922       0.01018697      -0.01169825       0.00011629
C       10.30703448      11.59913690      12.40942700      -0.02107283      -0.00088888      -0.00800842
C        5.87335271      11.39470656      12.74155275      -0.00170413       0.01079068       0.00432003
C       11.20119968       9.29424899      11.90234172      -0.01277506      -0.00454965      -0.02291623
H        6.70850938      12.37323401      10.99712018      -0.00560219       0.00632825      -0.00003789
H        6.51680095      10.63105960      10.82123834      -0.00987240       0.00674272       0.00364831
H        8.47331536       9.16541122      11.29425938      -0.01071959       0.01002304      -0.01399440
H        8.76480640      13.18891193      12.51773526      -0.00327683       0.00117931       0.00758243
H       11.30241511      11.98440327      12.63813792      -0.00137174      -0.00830489      -0.00483365
H        5.93375464      10.43522173      13.25135515      -0.00140415       0.01196888       0.00562157
H        4.83248955      11.54830794      12.44926510      -0.00220516       0.01154857       0.00746270
H        6.15131319      12.17775853      13.44676855       0.00184196       0.01148750       0.00083418
H       10.74077017       8.30965371      11.86497293      -0.01227801      -0.00273885      -0.01180776
H       11.77148025       9.48377152      10.99519130      -0.02373087      -0.00882233      -0.03067356
H       11.87487365       9.42475182      12.76568702      -0.00082538      -0.00109842      -0.03157559
N        4.61234097       2.05589723       7.17906517      -0.00359365      -0.00169498       0.00114295
N        5.85487003       3.40750367       8.32503508       0.00671807      -0.00702965      -0.00369546
C        3.51934523       1.62892940       6.30839809      -0.00718099       0.00220549       0.00415280
C        4.66453009       3.26092088       7.75243385       0.00504142      -0.00053799      -0.00204093
C        5.81557122       1.42609792       7.38725359      -0.00784904      -0.00859457       0.00159517
C        6.59356362       2.27488583       8.11700514      -0.00179589      -0.01245070      -0.00177317
C        3.65169499       2.26205484       4.93845983      -0.00942477       0.00225422       0.00434381
C        6.30853361       4.60035519       9.00192166       0.01374066      -0.00945669      -0.00418064
H        3.54652491       0.54164626       6.26513132      -0.00984939       0.00232920       0.00324511
H        2.58374920       1.90681166       6.79683263      -0.00498897       0.00394629       0.00675961
H        3.86903484       3.98449244       7.76482279       0.01028099       0.00462259      -0.00323812
H        6.02950808       0.44686601       7.00186974      -0.01498962      -0.01106519       0.00407159
H        7.59425297       2.18130035       8.50302043      -0.00240409      -0.01920929      -0.00202429
H        3.67328620       3.34917721       5.01894671      -0.00666172       0.00200970       0.00436327
H        2.81844310       1.98786609       4.29392399      -0.01186039       0.00468054       0.00699079
H        4.56713020       1.94013832       4.44233271      -0.01202404       0.00029965       0.00143608
H        5.46743465       5.27894078       9.11531834       0.01804158      -0.00399099      -0.00759957
H        6.68893087       4.33921726       9.98477827       0.00859086      -0.01067079      -0.00274351
H        7.08777190       5.06916595       8.40932495       0.01822218      -0.01520116      -0.00254284
P        0.58649359      11.41839399      -0.00816157       0.00294366      -0.01743946      -0.03317572
O       -0.13294858      12.21976422      -1.10575802       0.00002933      -0.02548945      -0.03753698
O        1.84772879      10.74866760      -0.57192888       0.00199223      -0.02112556      -0.03516817
O        0.97561228      12.34708099       1.15938762      -0.00300631      -0.01269305      -0.03496253
O       -0.40763432      10.39875964       0.59747843       0.00003099      -0.01491344      -0.03173614
C        4.12432159       4.44567101      11.51105469       0.00560449       0.00342347       0.00280792
C        4.00498280       3.10914401      11.12672243       0.00242145       0.00419547       0.00059920
C        5.28993560       4.84955462      12.15718520       0.00641746      -0.00143972       0.00374854
C        3.00366221       5.41583802      11.28560683       0.00838485       0.00636949       0.00502994
C        5.02942810       2.20459820      11.37743290      -0.00067845       0.00157203      -0.00036688
C        6.31860026       3.95166553      12.40745398       0.00360720      -0.00387939       0.00230585
C        6.19166044       2.62551674      12.01367452       0.00037734      -0.00318811       0.00032192
H        3.08468486       2.76403661      10.66610463       0.00167252       0.00765176      -0.00006384
H        5.37954093       5.87597071      12.48822680       0.00832993      -0.00238217       0.00630085
H        3.34458896       6.44791299      11.37566777       0.00960501       0.00497051       0.01222237
H        2.54127066       5.28273080      10.30484044       0.01125138       0.01322433       0.00301787
H        2.21392326       5.26781893      12.02713193       0.00581406       0.00347941       0.00123093
H        4.90239596       1.16314955      11.10534534      -0.00343022       0.00229977      -0.00192243
H        7.21028900       4.28653131      12.92476482       0.00443457      -0.00737672       0.00272784
H        6.97622867       1.91409336      12.24015348      -0.00151919      -0.00503995      -0.00123882
C       10.03728988      11.24490147       8.56310761       0.00907594       0.00423241      -0.00403534
C       11.28711494      11.64318307       9.03973539       0.00563734       0.00291878       0.00492953
C        9.93192408      10.02785730       7.89197471       0.01515989       0.00989583      -0.01473359
C        8.81905587      12.10301279       8.75345079       0.00661296      -0.00019033      -0.00292187
C       12.41005534      10.84904359       8.83205777       0.00841404       0.00693061       0.00400607
C       11.05032802       9.23429033       7.67714201       0.01749435       0.01467694      -0.01598670
C       12.29251252       9.64794092       8.14005072       0.01381294       0.01169714      -0.00415322
H       11.39057178      12.56349588       9.60213680       0.00041527      -0.00219917       0.01398760
H        8.95986134       9.69158577       7.55224810       0.01721262       0.01116359      -0.02199861
H        7.92379254      11.48975262       8.88037364       0.00871871      -0.00314452      -0.00317086
H        8.92212535      12.74640411       9.62544271       0.00518962      -0.00054210      -0.00282019
H        8.65380715      12.74616412       7.88189764       0.00483765      -0.00077963      -0.00267053
H       13.35976779      11.16766701       9.24465360       0.00408268       0.00563461       0.01383464
H       10.94842619       8.28793361       7.16138285       0.02282551       0.01890876      -0.02435733
H       13.15943516       9.02362489       7.96212069       0.01733726       0.01693489      -0.00772903
C        1.63891058      10.27181574       3.32143902      -0.02082480      -0.00351559       0.00209650
C        2.58568761      11.29075565       3.24347175      -0.02533159       0.00113128      -0.00348228
C        0.66414458      10.34870423       4.31513166      -0.01287608      -0.00802921       0.00933603
C        1.65891985       9.13240429       2.36111685      -0.02340946      -0.00164622       0.00030077
C        2.56212498      12.35446713       4.13429039      -0.02264126      -0.00178030      -0.00140490
C        0.63350781      11.40563256       5.21263189      -0.01025952      -0.01039733       0.01060890
C        1.58463248      12.41703922       5.12063131      -0.01372994      -0.00689836       0.00658157
H        3.31646255      11.26719886       2.44224629      -0.03365819       0.00626403      -0.01031988
H       -0.10299536       9.58358134       4.35988018      -0.00961070      -0.01153963       0.01453659
H        0.66423151       8.96967615       1.94764368      -0.02338955       0.00226964      -0.00089251
H        2.31585958       9.34171692       1.51912081      -0.02295178      -0.00271407       0.00066963
H        1.99467444       8.22408077       2.86342792      -0.02701332      -0.00401531      -0.00163245
H        3.28573066      13.14992066       4.00848760      -0.02727313       0.00216398      -0.00565850
H       -0.14447627      11.46181421       5.96322269      -0.00349890      -0.01451537       0.01683582
H        1.51088904      13.26463009       5.78989610      -0.01070511      -0.01006934       0.01006317
C       10.07599017       1.42965079       2.33666711       0.00643826      -0.01098045       0.00260461
C       10.42851882       2.71106552       2.76169306       0.00876598      -0.01087162       0.00040836
C       11.02718903       0.41504857       2.41140069       0.00528444      -0.01119494      -0.00009675
C        8.68384319       1.17161114       1.83680687       0.00462270      -0.01027739       0.00804537
C       11.68285565       2.95772105       3.30074210       0.01113371      -0.01196173      -0.00503364
C       12.29257068       0.65918422       2.93426342       0.00749072      -0.01230463      -0.00534877
C       12.61218369       1.92747948       3.40166063       0.01038064      -0.01209688      -0.00836229
H        9.70711663       3.51362863       2.68390928       0.00939158      -0.01058517       0.00262829
H       10.79078602      -0.58018428       2.05229031       0.00303029      -0.01135419       0.00191258
H        8.51455792       0.10945284       1.66197895       0.00583496      -0.00936562       0.00294164
H        7.94622489       1.52383408       2.56106851       0.00762030      -0.01627538       0.01357435
H        8.48030007       1.70879305       0.90554552      -0.00101038      -0.00517197       0.01259422
H       11.93137618       3.95785172       3.63786872       0.01358295      -0.01186635      -0.00735560
H       13.02903597      -0.13229451       2.92839041       0.00637488      -0.01272970      -0.00762932
H       13.59591954       2.12229420       3.81299994       0.01247413      -0.01303705      -0.01344430
C        9.25016384       4.50731967       5.35363413       0.00211976       0.00111896      -0.00382818
C        8.06697547       3.81993949       5.07812527       0.00136310       0.00177936      -0.00279313
C        9.60540902       5.56917108       4.52248247       0.00293905      -0.00154632      -0.00680246
C       10.14528862       4.04774721       6.46077440       0.00069933       0.00396770      -0.00212029
C        7.28922074       4.14536465       3.97531570       0.00185042       0.00055951      -0.00205956
C        8.83638757       5.89192422       3.41008140       0.00311867      -0.00264621      -0.00601884
C        7.68595147       5.16778644       3.12112153       0.00136112      -0.00071666      -0.00414498
H        7.77631160       2.99590765       5.72053303       0.00108607       0.00322866      -0.00088378
H       10.51186033       6.12699730       4.73274683       0.00378489      -0.00230812      -0.00852453
H       10.88658586       4.80227717       6.72854547       0.00351222       0.00262323      -0.00720073
H        9.58627467       3.79057316       7.36086696       0.00050509       0.01147642      -0.00040463
H       10.69023547       3.15182759       6.14749308      -0.00321195       0.00018683       0.00287810
H        6.37657249       3.59776855       3.77270680       0.00126232       0.00114267      -0.00111316
H        9.14061005       6.70404496       2.76094852       0.00349524      -0.00431713      -0.00791684
H        7.09116832       5.41267038       2.25128383       0.00097465      -0.00059243      -0.00298252
C        2.22667086       2.33272992       0.72645168       0.00556041      -0.00931281       0.00020806
C        2.91220449       1.11835029       0.78885781       0.00368895      -0.00979181       0.00429095
C        2.88345541       3.47921620       1.17737259       0.00425210      -0.00969982       0.00204504
C        0.83447889       2.39960740       0.16913859       0.00899845      -0.00765787      -0.00720453
C        4.20129851       1.05298889       1.29912898       0.00161386      -0.01023297       0.00761992
C        4.19156476       3.42271293       1.64278215       0.00226779      -0.01021713       0.00631432
C        4.85617368       2.20569556       1.70932689       0.00162086      -0.01044656       0.00845725
H        2.40228356       0.21426509       0.47436841       0.00264367      -0.00952509       0.00444306
H        2.36955157       4.43509060       1.13332229       0.00475293      -0.00940450       0.00008328
H        0.73108433       3.24703698      -0.51489190       0.01725137      -0.01344404      -0.01498250
H        0.56824238       1.47805658      -0.34915253       0.00765243      -0.01019898      -0.00076989
H        0.10139062       2.54268738       0.96610870       0.00579076       0.00284415      -0.01284000
H        4.70237289       0.09379930       1.35040258       0.00075618      -0.01034352       0.01050424
H        4.70630403       4.33445570       1.91861842       0.00134345      -0.01019876       0.00869743
H        5.88477030       2.16560919       2.04577317       0.00000638      -0.01130278       0.01143407
C        4.21159282       6.76796002       2.92806508       0.00013499       0.00884062       0.00354253
C        4.11642122       7.11214930       1.57801452      -0.00049922       0.00625023       0.00305501
C        5.32420326       7.21158297       3.64023609       0.00016518       0.01054786       0.00236520
C        3.14604128       5.95998652       3.61129537       0.00191957       0.00788772       0.00414416
C        5.08679624       7.89949084       0.97252954      -0.00069031       0.00392258       0.00116332
C        6.29409707       8.00711068       3.04319701       0.00068474       0.00692576      -0.00011875
C        6.18066652       8.35365345       1.70371608       0.00052449       0.00377450      -0.00089998
H        3.25431918       6.79197429       1.00455318      -0.00085919       0.00516306       0.00435715
H        5.43022482       6.92534117       4.67956466       0.00020605       0.01312583       0.00304708
H        3.09074212       6.20665592       4.67284163      -0.00154575       0.01145825       0.00302644
H        2.16535026       6.12829584       3.16606409       0.00257111       0.00207732       0.00136161
H        3.34485021       4.89105259       3.53160421       0.00655364       0.00864151       0.00833485
H        4.96352582       8.18822007      -0.06559585      -0.00092443       0.00214515       0.00075477
H        7.15390042       8.32854227       3.61776689       0.00188537       0.00664436      -0.00207080
H        6.94290312       8.96669879       1.23794302       0.00121414       0.00066409      -0.00292528
C       11.81598368       3.58474318      10.24916523       0.01101686       0.00145747       0.00491820
C       11.42503701       2.70118217       9.24604801       0.00921895       0.00504221       0.00259884
C       11.04034798       3.66613431      11.40623665       0.01037339       0.00021544       0.00452223
C       13.01391997       4.46319727      10.06083806       0.01286355       0.00002545       0.00705591
C       10.26449897       1.95084640       9.37058026       0.00936081       0.00591202       0.00085662
C        9.87925440       2.91661460      11.53703266       0.01034687       0.00118911       0.00275201
C        9.47974987       2.06612441      10.51219064       0.00997332       0.00325564       0.00158780
H       12.03325950       2.60453792       8.35383819       0.00910428       0.00731689       0.00224326
H       11.35089292       4.32362299      12.21059341       0.01117637      -0.00140055       0.00539678
H       13.44025191       4.76470316      11.01512395       0.00652174       0.00451809       0.00868917
H       13.78498339       3.95800377       9.47716218       0.01686203      -0.00710185       0.01789439
H       12.74404962       5.37769906       9.52198847       0.01842438      -0.00319508      -0.00110023
H        9.98635790       1.27064639       8.57521799       0.00911208       0.00733489      -0.00015082
H        9.28948240       2.99834026      12.44182458       0.01078641      -0.00088169       0.00326285
H        8.56744052       1.48996936      10.61057330       0.01091427       0.00245577       0.00122075
C        7.64222783       7.42673538       8.30571335       0.00068621       0.00190788       0.00538576
C        8.83224611       6.70205372       8.28943271       0.00582777       0.01079026       0.00742467
C        7.02180281       7.66281770       9.53252284      -0.00338618      -0.00468221       0.00445142
C        6.98586661       7.81872164       7.01979528       0.00061408       0.00077789       0.00551158
C        9.37625601       6.19246298       9.46070897       0.00671524       0.01340971       0.00726350
C        7.55653960       7.14427590      10.70837038      -0.00301877      -0.00259382       0.00443346
C        8.73380377       6.40297890      10.67566386       0.00225817       0.00558694       0.00634804
H        9.30641692       6.50484788       7.33557938       0.01038249       0.01730068       0.00828267
H        6.09427117       8.22828008       9.56011322      -0.00702603      -0.01120850       0.00317747
H        6.42767887       8.74868958       7.11845781      -0.00095492      -0.00020379       0.00491348
H        7.71086801       7.92143169       6.21115404       0.00071813       0.00178348       0.00601469
H        6.27484686       7.04478219       6.71160790       0.00225700      -0.00035030       0.00519425
H       10.28019725       5.59836154       9.42509651       0.01186195       0.02139741       0.00925727
H        7.05047225       7.30800725      11.65329010      -0.00562483      -0.00703468       0.00340380
H        9.14032584       5.97870012      11.58475224       0.00259268       0.00745191       0.00635189
