200
Lattice="11.728683794321645 0.0 0.0 0.0 11.728683794321645 0.0 0.0 0.0 11.728683794321645" Properties=species:S:1:pos:R:3:forces:R:3 energy=-112113.2578125 stress="-0.004975486546754837 -0.0007911818975117058 0.0001442897118977271 -0.0007911818975117058 -0.006333156954497099 -0.0005291398556437343 0.0001442897118977271 -0.0005291398556437343 -0.007245390210300684" pbc="T T T"
N        9.09380073       2.33859282       1.89256669      -0.00107685       0.00223368      -0.00206879
N       10.25803977       3.42959298       3.35161618      -0.00192925       0.00265461      -0.00210905
C        6.68659889       1.81480272       1.51640697       0.00046790      -0.00091332      -0.00257146
C        6.05705792       3.11376098       2.01927817       0.00023660      -0.00204796      -0.00127163
C        8.06897460       1.96975021       0.90073945      -0.00021823       0.00217886      -0.00231338
C        4.57310422       2.92625037       2.30062878       0.00114569      -0.00223666       0.00107691
C        3.86214579       4.08639477       2.98432871       0.00306848      -0.00137556       0.00080498
C        9.25816870       3.53439516       2.46522283      -0.00135100       0.00271773      -0.00287029
C       10.01261760       1.46140136       2.41791005      -0.00198087       0.00302404      -0.00049369
C        2.37720218       3.80770964       3.17636273       0.00281611       0.00183308       0.00101194
C       10.75099662       2.14548339       3.33157896      -0.00306544       0.00273651      -0.00116728
C       10.71970125       4.48365728       4.23962508      -0.00130311       0.00267625      -0.00314802
H        6.71077837       1.07168399       2.32218189       0.00115266      -0.00189653      -0.00383976
H        6.04443642       1.38100459       0.74528713       0.00086464      -0.00009751      -0.00300899
H        6.22574646       3.91197637       1.28641123      -0.00153662      -0.00241745      -0.00173369
H        6.55762588       3.44942041       2.93141736       0.00168736      -0.00148318      -0.00253069
H        8.06339368       2.74454708       0.13621377      -0.00190081       0.00314638      -0.00084850
H        8.42441873       1.04123861       0.45724647       0.00137378       0.00374606      -0.00395079
H        4.06310190       2.68025939       1.36252879      -0.00000413      -0.00312679       0.00232589
H        4.42187946       2.02377756       2.89563939       0.00223218      -0.00135970       0.00215575
H        4.32999991       4.28986129       3.95142736       0.00331895      -0.00231151       0.00069395
H        3.98631471       5.01763856       2.42798138       0.00502516      -0.00190431       0.00068019
H        8.73945075       4.44813243       2.22230501      -0.00060350       0.00214849      -0.00401650
H       10.10321422       0.46261782       2.02830453      -0.00181102       0.00273569      -0.00056900
H       11.61038104       1.83919063       3.91295780      -0.00329740       0.00289784      -0.00014646
H        2.21911017       2.93653607       3.81357345       0.00091574       0.00371389       0.00271192
H        1.87017498       4.66842750       3.62019928       0.00447016       0.00357738      -0.00108543
H        1.89419388       3.58502540       2.22213146       0.00261869       0.00076295       0.00164583
H       11.05127943       5.34882407       3.67325498      -0.00748207       0.00439891      -0.00353065
H        9.91724786       4.79904333       4.90392925       0.00147143      -0.00143922       0.00175832
H       11.54117067       4.07647447       4.82059464       0.00314264       0.00469014      -0.00858662
N        8.53036512       1.82260444       6.24120831      -0.00241902      -0.00174162       0.00080234
N        9.70846565       2.73526570       7.81561318      -0.00316179      -0.00972557       0.00501674
C        6.07809664       1.44861945       5.75097964      -0.00212246       0.00174925       0.00011787
C        5.42626216       2.77183794       6.13322602      -0.00056079      -0.00031906       0.00844771
C        7.49899008       1.54674234       5.22486519      -0.00252683       0.00279894       0.00023413
C        3.94247219       2.58171767       6.40083077      -0.00097603       0.00025046       0.00442653
C        3.20954860       3.83738513       6.84360847      -0.00160389      -0.00039721       0.00426173
C        8.59888510       2.86007033       7.08190051      -0.00329173      -0.00682932       0.00642903
C        9.63004784       1.03028166       6.44446778      -0.00175887      -0.00190395      -0.00484274
C        1.74844242       3.53327201       7.15197572      -0.00190675      -0.00081201       0.00105018
C       10.37003626       1.59893458       7.43095318      -0.00144118      -0.00628448      -0.00135850
C       10.12535941       3.61362732       8.89873979      -0.00395791      -0.01571125       0.00949740
H        6.03277754       0.75681043       6.59514338      -0.00269646      -0.00316659      -0.00437734
H        5.49295417       0.99776352       4.94389313      -0.00276901       0.00755111      -0.00222483
H        5.56923868       3.49134177       5.32322835       0.00183112       0.00528477       0.01426741
H        5.88879497       3.18516141       7.03454070      -0.00134093      -0.00761283       0.01176995
H        7.58045215       2.31762700       4.45415943      -0.00208703       0.00534871       0.00314642
H        7.80247596       0.60284736       4.76998772      -0.00349266       0.00452659      -0.00325463
H        3.46032935       2.17426029       5.50805734       0.00137122       0.00252045       0.00248408
H        3.82675619       1.81232834       7.16685701      -0.00341149      -0.00111398       0.00230306
H        3.69968943       4.24565329       7.73443980      -0.00353986      -0.00064801       0.00506580
H        3.28386956       4.60747821       6.06465066      -0.00038035      -0.00028814       0.00485420
H        7.85523127       3.62220255       7.21170853      -0.00379412      -0.00865482       0.01148913
H        9.77818877       0.13328243       5.87690159      -0.00131130       0.00189274      -0.00860226
H       11.28959870       1.30002064       7.89974433      -0.00180719      -0.00787355      -0.00409610
H        1.68041575       2.74551649       7.90324498      -0.00342765      -0.00139657      -0.00007166
H        1.20733972       4.39417776       7.55771404      -0.00256392      -0.00151956       0.00111199
H        1.23486819       3.16336456       6.26016009      -0.00011749       0.00028306      -0.00012626
H       10.49633570       4.55866232       8.50389160      -0.00134261      -0.01498219       0.01459122
H        9.27956394       3.78060040       9.56014393      -0.00508925      -0.01669414       0.00791582
H       10.91517750       3.11320970       9.45293586      -0.00639379      -0.01938829       0.00922343
N        3.80067241       7.53772878       9.49554947      -0.00264096      -0.01215228      -0.00278518
N        2.14992846       8.78852248      10.08467756      -0.01230609      -0.00560063      -0.00135626
C        5.24916672       7.09529655       7.55063428       0.00022279       0.00153211      -0.00108716
C        5.02856541       8.43497775       6.86385995       0.00092977       0.00191689      -0.00041646
C        5.13146256       7.13277440       9.06386181       0.00074345       0.00476757      -0.00101674
C        5.33413989       8.37020641       5.37439050       0.00200737       0.00252867      -0.00007559
C        5.01323570       9.65886699       4.63762535       0.00475317       0.00346130       0.00085208
C        3.44888916       8.78878144       9.79577967       0.00583327       0.00761205      -0.00349573
C        2.70496102       6.71745142       9.61096422      -0.01854798       0.02830637       0.01011786
C        5.35919824       9.62546712       3.16280523       0.00276032       0.00371932       0.00065917
C        1.66636017       7.50613226       9.98855002       0.03343058      -0.01160550      -0.01004167
C        1.38731014       9.97821813      10.41011892       0.00316778       0.00088215      -0.00428681
H        4.55104406       6.35222705       7.15372274       0.00055134       0.00227749      -0.00139938
H        6.24927229       6.71884602       7.32184970       0.00027740       0.00180390      -0.00125636
H        5.65794274       9.20239285       7.32728915       0.00014444       0.00151081       0.00059450
H        4.00079805       8.77820144       7.00857961       0.00081459       0.00126001      -0.00113289
H        5.83499164       7.84882061       9.49355524      -0.00032564       0.00109726      -0.00171131
H        5.32254710       6.16190718       9.51392894       0.00091919       0.00099254      -0.00124361
H        6.39972823       8.14861752       5.25031711       0.00143635       0.00084154       0.00061433
H        4.78307134       7.53454876       4.92217005       0.00117078       0.00402810      -0.00103016
H        3.95604334       9.89821364       4.75261118       0.00581068       0.00612465       0.00211254
H        5.54209614      10.47669783       5.13365988       0.00751972       0.00173187       0.00021774
H        4.13257861       9.64270321       9.90891916      -0.00298950      -0.00105546      -0.00566647
H        2.77342712       5.65598284       9.47001226       0.00335380      -0.00700940       0.00191842
H        0.65156967       7.24771099      10.22373366      -0.00583190      -0.00066061       0.00158467
H        4.73949825       8.90591780       2.62612882       0.00077347       0.00573391       0.00080568
H        5.14192906      10.59129242       2.70838364       0.00425573       0.00446764       0.00197899
H        6.41223457       9.37722731       2.99824118       0.00179970       0.00203877      -0.00119181
H        0.85763396       9.80806490      11.33532567       0.00012027      -0.00026007      -0.00285861
H        2.07176733      10.80467899      10.55707079      -0.00160411      -0.00024757      -0.00450480
H        0.70601016      10.19921494       9.59323361      -0.00108247      -0.00188664      -0.00347719
P        2.46177399      11.55168223       1.34413309       0.00093913       0.00058219      -0.00078245
O        2.93854153      12.12798533       2.67312187       0.00011122      -0.00035053      -0.00023943
O        3.39032134      12.20903789       0.20290908       0.00235227       0.00208277       0.00187987
O        2.60709179      10.04050627       1.25910810       0.00111425       0.00105774      -0.00150628
O        1.03372825      12.03231618       0.99243198       0.00153136       0.00094195      -0.00097736
O        9.46420080       6.71017839       2.47610672       0.00178440       0.00275141      -0.00197577
C        8.83753844       7.37269591       1.39001317       0.00091826       0.00295271      -0.00086501
H        8.79460656       8.44937032       1.55517061      -0.00040692       0.00246704       0.00029862
H        7.82725212       6.99208576       1.22219121       0.00165075       0.00188813      -0.00125131
H        9.43586767       7.19545549       0.49941154       0.00090298       0.00482146      -0.00097364
H        9.14064132       7.17145301       3.26558153       0.00104389       0.00101690      -0.00151546
O        4.44654946       5.73443783       0.00802795       0.00719608       0.00202721       0.00045846
C        4.32545226       6.89257154       0.83838330       0.00464088       0.00250351      -0.00086101
H        4.67795387       7.74996986       0.26887269       0.00807967       0.00145495       0.00024615
H        4.94342415       6.79629683       1.73104327       0.00050139       0.00234193       0.00177673
H        3.28803755       7.08746686       1.12744963       0.00385574       0.00355172      -0.00584587
H        4.33280608       4.95758696       0.56555828       0.00448105       0.00274588       0.00031021
O        1.50339828      12.29080902       4.63091258      -0.00315489       0.00461221      -0.00578552
C        0.69188572      11.15311706       4.45600610      -0.00147626       0.00376821      -0.00435048
H        0.40222711      11.02119481       3.40803709      -0.00811993       0.00595661      -0.00260216
H       -0.20900981      11.25992401       5.06056328       0.00252438      -0.00053631       0.00197034
H        1.20384364      10.23759813       4.77838615       0.00275713       0.00416529      -0.01092708
H        2.14163875      12.27226973       3.76420349      -0.00160997       0.00287144      -0.00585625
O        8.64113426       8.65256479       4.33657467      -0.00118914      -0.00209242      -0.00120169
C        9.27569111       9.75900027       3.70895339       0.00100641      -0.00219882       0.00147197
H       10.15296388       9.46634030       3.12232727       0.00223646      -0.00234397       0.00385654
H        9.58185408      10.51008088       4.44019576      -0.00064432      -0.00324301       0.00273439
H        8.54658970      10.22054477       3.04314260       0.00333202      -0.00142533      -0.00009713
H        9.22738350       8.26043551       5.01455203      -0.00366752      -0.00193430       0.00077330
O       11.34619618       8.60776026       8.10711428      -0.00847964      -0.00001726       0.00772548
C       10.74175554       9.65285378       7.36094887       0.00037304      -0.00094857       0.00002176
H       11.08931126      10.63417845       7.69712199      -0.00282356      -0.00087965       0.00200617
H        9.65017059       9.62225787       7.41768376       0.00007805      -0.00023130      -0.01170231
H       11.04158691       9.51691890       6.32497404       0.01114970      -0.00267936       0.00380260
H       11.04227989       8.70429382       9.01506312      -0.01574606       0.00320768       0.00460994
O        6.58247926       6.13537993       3.35670996       0.00492647       0.00296348      -0.00164405
C        7.11252538       5.63837862       4.56827819      -0.00093016       0.00011009      -0.00071850
H        6.35340271       5.57984329       5.35538394      -0.00291222       0.00450120      -0.00271115
H        7.95056439       6.23733065       4.92566957       0.00118715      -0.00451675       0.00128647
H        7.47887777       4.62984793       4.37530877      -0.00602678      -0.00160766       0.00034454
H        6.47770173       7.08766792       3.46369293       0.01525394       0.00404266      -0.00351107
O        0.72136289       6.46018669       5.90622248      -0.00279170      -0.00118035       0.00103082
C        1.79159205       7.38738490       6.10861540      -0.00216995      -0.00243080       0.00262950
H        2.59115146       7.21963995       5.38501001      -0.00020200      -0.00546061       0.00591290
H        2.17923783       7.32004063       7.12458356      -0.00589383      -0.00094687       0.00390002
H        1.38890134       8.38424194       5.95595024       0.00012931      -0.00237793      -0.00118143
H        1.06290352       5.57637637       6.07122310      -0.00497791      -0.00099155       0.00490873
O        6.54972542       0.18760253       8.80725117      -0.00391018      -0.00249821      -0.00072908
C        7.52031369      -0.76515261       8.49765224       0.00336653       0.00517565       0.00032458
H        7.64128678      -0.86617673       7.40887732      -0.00324361      -0.00450731       0.00087586
H        7.24230842      -1.75876853       8.88045680       0.01797131       0.00617900       0.01156969
H        8.50365351      -0.51836340       8.92394996       0.00350955       0.02034707      -0.01032275
H        5.90244499      -0.22767935       9.61104274      -0.00305664      -0.00485466      -0.00127701
O       10.34869356      11.30080027      11.84021347       0.00329676       0.00604451       0.00156337
C       10.05032014      10.03395420      11.31230483       0.00114822       0.00505286       0.00647143
H       10.26448052       9.99551634      10.23118739      -0.00130053       0.00137459       0.00626478
H        8.98071445       9.85301368      11.42431728       0.00135535       0.00608496       0.00882526
H       10.59338495       9.23122603      11.81977655       0.00167012       0.00660130       0.00760853
H       11.30461613      11.39314601      12.09770472       0.00294705       0.00415402       0.00418414
O        3.15193045      11.27826753       6.47058176      -0.00417596       0.00139321      -0.00487065
C        2.43775262      11.27491993       7.67236019      -0.00375739       0.00194628      -0.00495678
H        1.77769752      12.14831975       7.77120256      -0.00432292       0.00117376      -0.00599087
H        3.14399122      11.30496801       8.50695682      -0.00395834       0.00325819      -0.00513363
H        1.81816314      10.37360722       7.77442565      -0.00282109       0.00165913      -0.00384042
H        2.59145507      11.70525267       5.77750955      -0.00294253       0.00318427      -0.00444487
O       -0.49354142       4.85328972      -0.33293939       0.00502217       0.00018033      -0.00747138
C        0.25372763       5.53849509       0.67105034      -0.00109866      -0.00236896      -0.00161575
H        1.32723721       5.49108579       0.45790412      -0.00014964      -0.00221736       0.00498976
H        0.07622797       5.10195083       1.65450547      -0.00755784      -0.00431342      -0.00398698
H       -0.04914112       6.58252845       0.70551224      -0.00089796      -0.00261536      -0.00154177
H       -0.20048432       3.90688238      -0.27762413       0.00399637       0.00019698      -0.00774422
O        6.77064925       2.75233125       9.30983955       0.00066614      -0.00480920       0.01165220
C        5.47791706       2.95692367       9.85311623      -0.00111717       0.00118807       0.00394589
H        4.70569680       2.46508140       9.25135287      -0.00016305       0.01120898      -0.00473839
H        5.27537633       4.02891215       9.87848444       0.00666839       0.00216171       0.00997216
H        5.39291311       2.57396248      10.87473821      -0.01134348      -0.00509186       0.00028083
H        6.82250647       1.77744808       9.11794215      -0.00342500      -0.00434074       0.00878885
O        5.24511472      10.93001165      -1.14318148      -0.00528169      -0.00202341      -0.00203884
C        6.21811313      10.43554880      -0.27444046      -0.00899261      -0.00749424      -0.00092751
H        6.46750285       9.37428887      -0.46939861      -0.00833964      -0.00580955      -0.00677030
H        5.89804098      10.49594938       0.77017771      -0.01414531      -0.01429088      -0.00262004
H        7.16145159      10.99775518      -0.36662834      -0.00920582      -0.00662079       0.00687437
H        4.09092669      11.64662560      -0.23910707      -0.00045700       0.00114822      -0.00062326
O        9.81478780       7.02232683       6.11218586      -0.00193828       0.00168187       0.00061420
C        9.06279745       6.82706686       7.29729390       0.00116238      -0.00584857       0.00092913
H        8.31897392       7.62338925       7.38042851       0.00148933      -0.00662689       0.00774539
H        9.69640213       6.85273949       8.18177624       0.00312850      -0.01119914      -0.00072584
H        8.53067434       5.87018089       7.26685338       0.00129506      -0.00549757      -0.00407448
H       10.76745266       6.85621174       6.26124266      -0.00200203      -0.00115338      -0.00286257
O        0.65527132       2.48232251      11.41024400       0.00072485      -0.00275025      -0.01002547
C        1.84955680       2.79747212      10.72174229       0.00442040       0.00187609      -0.00118864
H        2.15541868       1.98802049      10.05164545       0.01560665       0.00093299       0.00597519
H        2.68481136       2.97956293      11.40369115      -0.00339708       0.01120249       0.00535646
H        1.66581199       3.70042658      10.13361583       0.00358431      -0.00235453      -0.00669315
H        0.81212187       1.64124865      11.97117527       0.00081283      -0.00014842      -0.00714190
O        0.56351749       8.62801512       1.76649150       0.00292426      -0.00218479      -0.00073683
C        0.94059039       7.96298418       2.94378030       0.00316516      -0.00272551      -0.00146252
H        0.12195669       7.96945193       3.67207517       0.00345832      -0.00340503      -0.00150222
H        1.81456666       8.44231983       3.39684206       0.00291631      -0.00302315      -0.00126493
H        1.19505024       6.90805216       2.76358165       0.00329009      -0.00230998      -0.00227585
H        1.35465255       9.22349558       1.53279442       0.00184986      -0.00139832      -0.00057435
O        8.51882913       4.83092764      11.50269428       0.00540233       0.00347149      -0.00071108
C        7.80766543       5.66179799      10.61199448       0.00328669       0.00016314      -0.00143102
H        8.35062836       6.58625546      10.38210063      -0.00321513       0.00473616       0.00323732
H        6.86086237       5.92726766      11.08325762      -0.00007862      -0.00851983      -0.00414373
H        7.58137754       5.14106378       9.67207707       0.01050648       0.00168797      -0.00373268
H        9.48779825       4.94987434      11.41198902       0.00499331       0.00197794      -0.00470994
