200
Lattice="12.437032581252334 0.0 0.0 0.0 12.437032581252334 0.0 0.0 0.0 12.437032581252334" Properties=species:S:1:pos:R:3:forces:R:3 energy=-147154.8125 stress="0.0021990046370774508 0.0006134093564469367 0.00094861481920816 0.0006134093564469367 0.000692262314260006 0.0004722378944279626 0.00094861481920816 0.0004722378944279626 0.0015314383199438453" pbc="T T T"
N        3.84847677       5.47470580       2.52043743      -0.00681557       0.00875923       0.00086098
H        3.66451681       4.63951321       3.10810638      -0.00337785       0.00565815      -0.00229228
H        3.18039235       6.23748716       2.71534409      -0.01656681       0.00161684      -0.00267833
H        4.80178005       5.81367246       2.64424992      -0.01112854       0.01817873       0.00968397
H        3.67064804       5.21678463       1.53701869       0.00363586       0.00889660      -0.00067532
N       10.71218668      10.87005688       7.38515196       0.00204992      -0.01642279      -0.00660510
H        9.79997274      10.76095374       6.94102493       0.00518173      -0.02466892      -0.01086244
H       11.50267850      10.80685339       6.69061478       0.00665048      -0.01062055      -0.00188726
H       10.80692087      11.75733326       7.90172979      -0.00682974      -0.01247364      -0.00837886
H       10.82386344      10.05642333       8.01246820       0.00387203      -0.01247150      -0.00312659
N        3.74343095      10.61778127       3.61641066       0.00278872      -0.00171557      -0.00335085
H        3.06958925      10.68483873       2.86132337      -0.00277541      -0.00716303       0.00152516
H        3.81501556       9.63556938       3.88106325       0.00768917       0.00004197       0.00079826
H        4.64233704      10.91259552       3.25405074      -0.00113715       0.00058195      -0.01078130
H        3.18705646      11.34004031       4.87657910       0.00733341      -0.00107200       0.00111069
P        1.15275280      11.90340551       5.52757828       0.01041594       0.00013083       0.01347547
O        2.74394254      11.76678612       5.72970731       0.00913477      -0.00354350       0.00046834
O        0.70050754      12.99708142       6.48001544       0.01343188      -0.00895283       0.00061542
O        0.92665550      12.22518951       4.05248432       0.00715131      -0.00061145       0.00401914
O        0.51519782      10.54770165       5.90112844       0.01119819      -0.00147504       0.00446099
O        8.91034203       1.75107576       8.02421939       0.00018978      -0.00136133      -0.00751576
H        9.80670491       1.62018158       8.38019925      -0.00071850      -0.00581989      -0.00190192
H        8.47326043       2.51641928       8.48788732      -0.00076726      -0.00238141      -0.00857578
O       10.33908399       7.19733642       3.58517740       0.00592308       0.00269122      -0.00916409
H        9.67465904       6.69184970       4.11772839       0.00272170       0.00293139      -0.01243026
H        9.95495533       8.08234496       3.50089517       0.00624187       0.00240005      -0.01118241
O       -0.90352161       0.88399328       8.53090191      -0.00776608      -0.00830586      -0.00967616
H       -0.23826015       0.81190744       7.78892782      -0.00448467      -0.00522135      -0.01169840
H       -0.41099543       0.75041745       9.34569975      -0.01520213      -0.00219121      -0.01434915
O        8.29829823      11.98619217       5.08292431       0.00276376       0.00143030      -0.00898107
H        7.65873127      11.41407458       4.62588063       0.00068272       0.00440974      -0.00888754
H        7.94673877      12.00783387       6.00116669       0.00483016      -0.00087745      -0.00812765
O        2.25491179       9.43470898       7.62333987       0.00852174      -0.00127800       0.00560732
H        1.53713775       9.77278449       7.02314044       0.01105758      -0.00142723       0.00490532
H        3.03299347       9.89458680       7.28816318       0.01257193      -0.00231279       0.00092745
O        4.46687257      12.47990359       7.81674526       0.01101791       0.02040371      -0.00591196
H        5.37235305      12.27367293       7.51921474       0.00920473      -0.00088987       0.00350943
H        3.84263247      12.23130986       7.10542790       0.00916960       0.00658647      -0.00161369
O       12.01213328       6.22444083       6.52672237      -0.01233166      -0.00061806       0.00650387
H       12.31550289       6.95225722       5.95393573      -0.00736354      -0.00645522       0.00492439
H       12.01384094       5.43083093       5.96371893      -0.00766451      -0.00733744       0.01157154
O        4.87226774       0.39701026       1.48419468       0.00049835      -0.00020306       0.00186393
H        3.96588775       0.52815905       1.85156231       0.00037502      -0.00053740      -0.00005467
H        5.47101588       0.81869459       2.12304572      -0.00074438       0.00368401       0.00129199
O        4.86128616       7.86336991       1.04188692      -0.00729233       0.00925545      -0.00858654
H        5.64015921       7.63582977       1.56852623      -0.01728402       0.00971009       0.00585979
H        5.09369258       7.69760871       0.10499694       0.00884046      -0.00050178      -0.00334346
O        5.76966238      10.37208648       0.33277219      -0.00019450       0.00517544      -0.00445504
H        5.52479660      11.18532791       0.80559924      -0.00248413       0.00622928      -0.00541773
H        5.22299539       9.64656049       0.69328021      -0.00323736       0.00623192      -0.00777943
O        6.12312628       2.18952799       3.39668777       0.00160947      -0.00800580      -0.00543031
H        6.40716628       2.07390770       4.31525890      -0.02499930      -0.00829973       0.00294396
H        6.53213393       3.02841425       3.08991256       0.00816454      -0.00656803       0.00655934
O        7.14372678      10.09579320       3.35720052      -0.00035959      -0.00500138      -0.00682190
H        8.09594052       9.88531699       3.40751767      -0.00100259      -0.00649604      -0.00500049
H        6.71620513       9.21587851       3.35827541      -0.00291163      -0.00373114      -0.00776415
O        5.26257318       2.10866683       6.06624206      -0.00562006       0.00110275      -0.01734987
H        4.43148858       1.99364348       5.58547337      -0.01150028       0.01885490      -0.01697860
H        5.06638038       1.74569054       6.94663424      -0.00315627      -0.02438556      -0.02843159
O        7.59646280       3.84441242       8.87767907      -0.00186034      -0.00436461      -0.00243161
H        8.14838134       4.59344461       8.62302216      -0.00790630      -0.00141358      -0.00395331
H        7.22849459       4.06046503       9.75955109      -0.00276986      -0.00486087      -0.00175390
O        0.97120668       8.95060536      -0.05894692      -0.00390698       0.00000578       0.00369893
H        1.56893788       9.38393484      -0.71246197      -0.00249744      -0.00106533       0.00363120
H        0.94632450       9.53600339       0.72143275      -0.00479795       0.00102797       0.00164964
O        8.04108078       8.95501879      12.64054304      -0.00072193      -0.00121780       0.01396924
H        8.41086224       9.12976986      11.74624850      -0.00300901      -0.00597695       0.01229062
H        7.23166412       9.52374783      12.70676658       0.00061295       0.00091206       0.01155559
O        2.14444614      10.23320053      10.35659673       0.00265420      -0.00165724       0.00309777
H        3.00844174      10.67596515      10.43478489      -0.00323290       0.00883040       0.00250436
H        2.09817394       9.93781161       9.43054743       0.00614186      -0.00131569       0.00214614
O        4.89631145       3.02557496       0.49515409      -0.00271177       0.00031707      -0.00407305
H        3.98454605       3.30833360       0.31135733      -0.00263030      -0.00015831      -0.00088716
H        4.86972295       2.07137379       0.68761202      -0.00091691       0.00012217      -0.00027761
O       11.67398722       3.76128197       5.20266218      -0.00357881       0.00338030       0.00839383
H       12.44706703       3.27534052       5.56404863      -0.00372753       0.00227977       0.01044932
H       10.91741417       3.14455645       5.13390265      -0.00378740       0.00399301       0.01377827
O        9.19926537       2.39914188       5.34807497       0.02829573      -0.00208761       0.00926027
H        9.03709529       2.17903694       6.29130415       0.03366635      -0.01641839       0.00827155
H        8.99020863       1.56777613       4.89929431       0.03765330       0.00444058      -0.00594042
O        6.27259087       7.38766925       3.48059816      -0.01629938      -0.00336030      -0.00517489
H        6.92619700       6.94296249       4.05079984      -0.00963526      -0.00366987      -0.01179758
H        5.49568123       7.56477696       4.06915078      -0.00759213       0.00205639       0.00512861
O        9.14908034       2.51295250       1.90324169       0.01537748      -0.00273493      -0.00110903
H        8.92592641       2.32304017       0.98639971       0.01152163      -0.01569309       0.00360507
H       10.10605454       2.74763768       1.88245067       0.01424727       0.00388562      -0.00867983
O        9.20782568       9.82368944      10.32861781      -0.01053981      -0.00103164       0.00619715
H        9.96232819      10.34507801      10.67198666      -0.01026056       0.00202885       0.00104152
H        9.62382700       9.12116658       9.78641954      -0.01098637      -0.00097865       0.00598335
O        0.92382905       4.60285295       3.23811736      -0.00898066       0.00385848       0.01785022
H        0.89006805       5.51330822       2.88737053      -0.01490133       0.00177868       0.01727455
H        0.16925798       4.47066929       3.84611639      -0.01124719      -0.00223378       0.01683559
O        3.54116157       3.59356509       8.22773890       0.00003526       0.00098322       0.00162103
H        4.18547741       4.02616387       7.64464394       0.00553392      -0.00967353       0.00456586
H        2.78952727       3.38570521       7.63972300       0.00083673       0.00062879      -0.00344365
O        6.60905014      10.12953633       9.45546637      -0.00643623       0.00558500       0.01168907
H        7.49683160      10.06248316       9.86093254      -0.00520810       0.01177057       0.01175313
H        6.03064580      10.68828219      10.01968118      -0.00792065       0.00910027       0.00650719
O       12.69837130       8.21432286       4.57856844       0.00128417      -0.00360834       0.00950433
H       11.77822736       8.00039563       4.32518680       0.00035501       0.00092012       0.00417633
H       12.72507300       9.10456037       5.01240482       0.00469767      -0.00287531       0.00660404
O        2.38594426       1.04321871       2.34279153      -0.00152965      -0.00126509       0.00079980
H        1.88106804       0.57561327       3.08147677       0.00327718       0.00038800      -0.00001302
H        1.75474246       1.02164336       1.60543340      -0.00236224      -0.00290371      -0.00059565
O        5.88186956       8.90391279       6.96270052       0.01269071       0.00065938       0.01123590
H        5.93602075       9.51160260       7.71588644       0.01403702      -0.00488813       0.01546006
H        5.92801785       8.00498080       7.40641886       0.00909415      -0.00252128       0.00550039
O       10.44294105       5.36433722      10.06832320      -0.00929762      -0.01106450      -0.00019798
H       11.28970496       5.83520713      10.14830343      -0.01163883      -0.00875351       0.00204887
H       10.42670894       5.02501462       9.16252004      -0.01384275       0.00465562      -0.00733705
O        2.73425988       4.64806238      12.47660241      -0.00060070      -0.00324211      -0.00059929
H        3.07468599       4.95882282      11.59032392      -0.00547880      -0.00292081      -0.00219557
H        1.77525900       4.69395289      12.44912180      -0.00179088      -0.01150747       0.00215109
O        2.40865453       6.77279777       8.20626580      -0.00665995       0.00007018       0.01134884
H        3.19250890       6.54001457       8.72724506      -0.00979753      -0.00404501       0.01718434
H        2.47187613       7.72603318       7.97491907       0.00065102      -0.00112544       0.01168966
O        4.56350819      11.64550306      10.34181889      -0.00681681       0.01913071      -0.00443804
H        4.66477566      12.28309409      11.05320713      -0.00446254       0.02218689       0.00036032
H        4.43497729      12.12699002       9.49112878      -0.00131306       0.02076076      -0.00067914
O        3.54755767       2.97422036       3.85723431       0.00127616       0.00436670      -0.01085354
H        3.00103707       2.43098103       3.24641550      -0.00180423       0.00334768      -0.00610004
H        4.46958270       2.68548738       3.66153812       0.00040865       0.00457272      -0.01754075
O        4.17610356       8.04769097       4.97139654       0.00371076       0.00565793       0.01403826
H        3.56625762       7.33038110       5.22895083       0.00391647       0.00614852       0.01427989
H        4.60924687       8.39309960       5.77760103       0.00674172       0.00443787       0.01352572
O        5.27957381       4.83825260       6.22590918       0.00496801       0.00004156      -0.00422351
H        5.39488516       3.87519160       6.09323777       0.00246455      -0.00135002      -0.00122958
H        4.41037691       5.07286690       5.85323878       0.00231701      -0.00050332       0.00248177
O        7.23025813      12.12544390       7.58021480       0.00434098      -0.00643224      -0.00299639
H        7.20016802      11.42704819       8.26115641       0.00475641      -0.00145159       0.00077797
H        7.79253056      12.86061135       7.91820341       0.00169240      -0.00243656      -0.00573727
O        0.55137742      10.30408187       2.33272726      -0.00317729       0.00754026       0.00308876
H        0.12795292       9.60600820       2.84541165      -0.01435995       0.00982224      -0.00190896
H        0.72861183      11.00725735       3.02320690       0.00060782       0.00175580       0.00449219
O        9.79396141      10.67788140       1.26881427       0.00601225       0.00440855      -0.00462926
H        9.17870783      11.44357528       1.38662515       0.00599585       0.00434125      -0.00326403
H        9.18580095       9.96064120       0.94826935       0.00440814       0.00325578       0.00062674
O        8.20984688       6.90203939       9.73703822      -0.00290557      -0.00641084      -0.00106359
H        7.69351459       6.93972054      10.55165000      -0.02253740       0.00679411      -0.01268915
H        9.02744986       6.39807954       9.95490078      -0.01199991      -0.01242217       0.01666467
O        2.72387028       5.78472920       5.58684500       0.00164407       0.00481966       0.00892875
H        2.06374661       5.30229722       5.06983747      -0.00165801       0.01090416       0.00601445
H        2.35592212       5.93485151       6.48130402       0.00204316       0.00223576       0.00932564
O        0.32002961       7.03616591       9.99526662      -0.00934654      -0.00342685       0.00733054
H        1.10495076       6.89146956       9.41832916      -0.00930452       0.00137506       0.00596124
H        0.60799585       7.53402127      10.77286706      -0.01132957      -0.00469840       0.00866225
O        5.98143934       6.60347147       8.16881708       0.00263858      -0.00591725       0.00041701
H        5.89365148       5.85525664       7.54532472      -0.00225186      -0.00369746      -0.00114420
H        6.85270193       6.54829333       8.61307739       0.00559695      -0.00932389      -0.00479927
O        9.69494445       5.02525957       7.25467905      -0.02246547       0.01695548      -0.00819001
H        9.97227021       4.19974728       6.83752318      -0.02749853       0.01350638      -0.00711837
H       10.42784325       5.63847301       7.02104598      -0.01660074       0.01074965      -0.00650268
O        5.51951753       7.73507112      10.81242767       0.04076025      -0.00692400       0.01271459
H        5.78383704       8.53933133      10.33770116       0.03490393      -0.00530070       0.02214823
H        5.13683047       7.15369564      10.14146419       0.03991107      -0.00694459       0.00170602
O        8.34236985       5.94855596       4.84057493      -0.00355807       0.01079497      -0.01520422
H        8.08306519       5.21081735       4.24744072       0.00092228       0.00628087      -0.01439474
H        8.53415657       5.57905197       5.71835430      -0.00950867       0.01592422      -0.01297735
O       11.74786869       3.14925475       1.45924138       0.01316932       0.00865681      -0.00497101
H       12.42503932       3.50260710       2.06891966       0.00493579       0.00572858       0.00645586
H       12.03559351       2.25191892       1.19684298       0.01249764       0.00764250      -0.00056415
O        3.92051580       5.29728166      10.22881458      -0.00604495       0.00184173      -0.00222099
H        4.84014544       5.08652273      10.50585324      -0.00594606       0.00277851      -0.00242462
H        3.69609072       4.61740343       9.54415093      -0.00447229       0.00198658      -0.00305211
O        0.01114558       0.52723183       0.89665184       0.00172514       0.00141203      -0.00192692
H       -0.22918722      -0.03714749       0.13253030       0.00260585       0.00598912      -0.00522478
H       -0.15428101      -0.05188599       1.65410640       0.00238328      -0.00457543      -0.00574443
O        1.69558651       2.92154034       6.15154856       0.00545761       0.00275815       0.00152469
H        2.29720965       2.91858149       5.38975220      -0.00584585       0.00781883      -0.00067103
H        1.40360317       1.96828354       6.27709775       0.00625762       0.00091574       0.00177173
O        7.50139208       4.46477476       2.72980943       0.00928000      -0.00991768      -0.00007731
H        8.20129609       3.85346917       2.40014253       0.00952626      -0.00897649      -0.00175010
H        7.43040956       5.15729845       2.04344634       0.00410956      -0.01194283      -0.00189434
O       10.39070333       5.76712987       1.11653372       0.00766987       0.00868748      -0.01286541
H       10.83619285       4.90965144       1.13086673       0.01052467       0.00924584      -0.01387943
H       10.48776684       6.17296749       1.99656303       0.00887109       0.00787206      -0.01326080
O       11.42315015      10.99690960      -0.81687507      -0.00004092       0.00662443      -0.00923182
H       12.09435632      10.29142780      -0.77688191       0.00143345       0.00786217      -0.01249588
H       10.87675143      10.85326388      -0.00273629       0.00315399       0.00440572      -0.00755408
O        1.59787596       7.15586504       2.44935597      -0.00662184       0.00229001       0.00726876
H        1.21777870       7.70425446       3.16840794      -0.00496174       0.00188829       0.00810143
H        1.52102115       7.65484651       1.62195233      -0.00657964       0.00297841       0.00669241
O        7.81276814       6.20411437       0.50126974      -0.00075752      -0.00752640       0.00883183
H        8.77214279       5.99123169       0.61240695       0.00143061      -0.00229689       0.00016238
H        7.79606608       7.18290285       0.43562896      -0.00577263      -0.00797333       0.00987806
O       10.83842409       8.41295445       8.65888849      -0.01211412      -0.00497860       0.00794975
H       10.35463774       7.89083382       8.01005917      -0.00711075      -0.00672305       0.01546491
H       11.55005724       7.85767575       9.05235146      -0.00834904      -0.00389438       0.01412361
O        6.38219964       4.52952701      -1.18000649      -0.00407422       0.00139367      -0.00259078
H        6.88041015       5.15631696      -0.61434282      -0.00168613      -0.00190536      -0.00109133
H        5.96177142       3.88629097      -0.56724642      -0.00471877       0.00076364      -0.00358562
O        9.89700623       9.97040223       3.82240012       0.00186299       0.00093794      -0.00468972
H        9.68671464      10.74827602       4.36736159      -0.00562742      -0.00168955      -0.00294850
H       10.04586089      10.30933688       2.90351310       0.00198505       0.00460058      -0.00299177
O        8.69512131       8.99140103       6.53383387       0.00339724      -0.00741529      -0.01094104
H        8.85943495       8.87361896       5.59327837       0.00097162      -0.02209072      -0.01004216
H        7.72117298       8.94453947       6.62022498       0.00331359      -0.00359326      -0.00734377
O        7.84265603      12.40452251       1.79791690       0.00255838       0.00056350      -0.00180614
H        7.37009474      11.73845084       2.32445246      -0.00153050      -0.00679240      -0.01109874
H        8.04428418      13.14970888       2.37932203      -0.00680859      -0.00683468       0.00744200
