199
Lattice="13.42695047457014 0.0 0.0 0.0 13.42695047457014 0.0 0.0 0.0 13.42695047457014" Properties=species:S:1:pos:R:3:forces:R:3 energy=-808259.0625 stress="0.0007501873187720776 -0.0007159762026276439 0.0005167547205928713 -0.0007159762026276439 0.0018858802504837513 0.00046809537161607295 0.0005167547205928713 0.00046809537161607295 0.0009036903502419591" pbc="T T T"
Ba      12.47286129       6.73626680       0.94570039      -0.00445306      -0.00236362      -0.00987240
Ba       1.12979912       8.23598979       7.70245033       0.00825405      -0.00996273      -0.01766233
Ba       7.47640464       2.63271466       3.95962528       0.00223868      -0.00885697      -0.01122800
P        7.21290206       2.23950545      11.43373524      -0.01572394      -0.02455449      -0.01958227
O        7.74911844       1.83299783      12.96771269       0.00015967       0.01027086       0.00096729
O        8.37680703       1.42444430      10.55857558       0.00835978       0.00831600      -0.00585359
O        6.00425196       1.40394521      11.25229879       0.02162829       0.03691402      -0.01493246
O        7.28749087       3.69809660      11.19891979       0.02330203       0.04154438      -0.01409453
P       10.23497508       1.66885098      12.25260423       0.00755656      -0.01204270      -0.00495985
O        9.72327980       2.07739070      10.76139125       0.00925425      -0.00062960      -0.00255796
O        9.11795842       2.42095892      13.20281722      -0.00078753       0.00308427      -0.00717935
O       10.32711287       0.22101206      12.50000660      -0.00574087      -0.00527558      -0.00039108
O       11.45518929       2.54404920      12.46813995       0.00743227      -0.00759907       0.00712990
O       12.27899996       2.66124890       1.45686988      -0.00414380       0.00313055       0.01118737
C       11.86181460       1.45581310       2.11479039      -0.00060798       0.00397811       0.01584750
H       10.77018219       1.39857707       2.18160155      -0.00037375       0.00273462       0.02070262
H       12.29487551       1.44255310       3.10840519       0.00282972       0.00645244       0.01425885
H       12.20622323       0.58808238       1.54974078      -0.00199928       0.00248355       0.01699790
H       11.98512623       2.55581268       0.49950886       0.00361174      -0.00331828       0.01057521
O        2.84274855       7.55815359       2.57554953      -0.00064492       0.01027763       0.00026777
C        3.48390674       8.30962110       3.62905024       0.00091526       0.00165929       0.00556666
H        4.48930843       8.60994277       3.33156273       0.00359887      -0.00288551       0.00985528
H        3.53163485       7.71619908       4.54814003      -0.00502818      -0.00293624       0.00312631
H        2.88349634       9.20585788       3.77938421       0.00603048       0.00471283       0.00766893
H        3.41617785       6.81999279       2.33674842      -0.00388318       0.00830668      -0.00218143
O        7.22767942       2.97932277       6.61656757       0.00210285      -0.00982618      -0.00844377
C        7.55611618       2.32270953       7.87357193       0.00539440      -0.00435460      -0.00763774
H        6.69666491       1.77140053       8.25843738       0.00350469       0.00930832       0.00575414
H        7.86385395       3.05759467       8.61744773       0.02081431      -0.00190464      -0.01656925
H        8.37514306       1.63338047       7.68196651      -0.00417063      -0.01502475      -0.01021190
H        6.77791073       3.80295579       6.83134458       0.01223648      -0.00330383      -0.01192045
O        5.28132783      10.96823695       1.86723357       0.00521961       0.00229368       0.01540822
C        4.83087260      10.02149494       0.89156914       0.01427291       0.00425445       0.00939252
H        3.75473051       9.85246792       0.98406640       0.01197648       0.01024235      -0.00497871
H        5.32570042       9.05454965       1.02242291       0.00740726       0.00161006       0.01768378
H        5.03891788      10.40775046      -0.10936664       0.02983843       0.00177723       0.01149619
H        5.84183958      10.51588377       2.52360869       0.00531113       0.00296876       0.01493135
O        2.90599895       2.37712434      13.07039976       0.00767435       0.02884489       0.00505742
C        1.75109347       3.16507405      12.83069473      -0.00558545       0.00794953       0.00085539
H        0.90398174       2.87871209      13.46226503      -0.00418630      -0.00880339      -0.00455070
H        1.42648077       3.12573804      11.78099102       0.00029477       0.00486067      -0.00099221
H        2.02272352       4.19531614      13.08454847      -0.02598890       0.01263583       0.00501379
H        2.76739553       1.50163320      12.69554858       0.03225411       0.03145233      -0.01074290
O        8.19179042       8.60478607       7.85409210      -0.00178319       0.00178826      -0.00320405
C        7.79137239       7.36501074       8.41703868      -0.00058814       0.00310419       0.00037159
H        8.40483859       7.08328166       9.28288431       0.00072142       0.00546695       0.00061147
H        7.89963626       6.58958755       7.65391235      -0.00119346       0.00083683       0.00247280
H        6.74291551       7.38470438       8.73420018      -0.00039113       0.00372952       0.00158182
H        8.25690719       9.26159375       8.58221399      -0.00220875       0.00359097      -0.00464767
O        2.98975085       5.41795864      10.58690187       0.00191289      -0.00278270      -0.00159895
C        4.27812215       4.80568669      10.92420857       0.00448349       0.00271669      -0.00339241
H        4.23199519       3.72217031      10.82335054       0.00989479       0.00252564      -0.00531043
H        4.55464594       5.05899982      11.94706163       0.00359698       0.00208601      -0.00274117
H        5.01501573       5.21112670      10.23591031       0.00253157       0.00773954      -0.00332042
H        2.32478723       5.00735359      11.15665746       0.00429308      -0.00495225       0.00055403
O        1.99978334      10.60432995       7.40385824      -0.00120322      -0.00490099       0.00180867
C        1.59421085      11.05167219       6.09634451       0.00055171      -0.00065511       0.00268966
H        2.45526649      11.33531099       5.49062180       0.00121330       0.00314426       0.00537585
H        0.88934702      11.87836954       6.17068972      -0.00140595      -0.00240384       0.00448173
H        1.07700228      10.22858766       5.58323802       0.00289857       0.00037270      -0.00175875
H        2.33179741      11.40353922       7.89610156      -0.00407213      -0.00562313       0.00545892
O        7.63616352       7.98756456      13.62143636      -0.00085402      -0.01369786       0.00273126
C        6.92350765       7.40368320      12.50817124       0.00186616      -0.01124174      -0.00030166
H        7.41045656       6.45880802      12.26915580      -0.00998790      -0.02077375       0.01192334
H        6.95154122       8.06974141      11.64056094       0.02172695      -0.01837161      -0.00531878
H        5.88585687       7.20271807      12.78825427      -0.00434636       0.00722541      -0.00947233
H        7.32583843       8.89393328      13.73563178       0.00139663      -0.01195693       0.00025351
O        1.89167114       5.74403905       8.14637074       0.00286449      -0.00711852      -0.00193322
C        0.64182027       5.03628866       8.28745404       0.00029355      -0.00442553      -0.00993864
H        0.22723349       4.85629702       7.29537152       0.01094600      -0.01132626      -0.01323427
H       -0.07797002       5.60782111       8.88707582      -0.00537295       0.00074232      -0.02118364
H        0.80714567       4.07054736       8.76400715      -0.00616163      -0.00132899      -0.00119780
H        2.41378426       5.54988571       8.96198811      -0.00125316      -0.00729391       0.00055873
O        9.95436077      12.29065235       3.10920019      -0.01314133       0.01130337       0.00267512
C        9.29706047      12.00273744       1.86120625      -0.00639898       0.00094137       0.00172096
H        8.21101091      12.10733253       1.95759313      -0.00243482      -0.00160372      -0.00468777
H        9.52705435      10.98510103       1.51722514       0.00857769      -0.00050032       0.00710707
H        9.66672763      12.70754505       1.11862248      -0.00189477       0.00024532      -0.00166452
H        9.55080096      11.74417792       3.79231848      -0.01243544       0.01093248       0.00532201
O        3.09049953      11.89561753       3.21092284      -0.00036442      -0.00521921       0.00910267
C        1.97234452      11.63194457       2.35692630      -0.00066972      -0.00826032       0.01016986
H        2.05469093      12.18210476       1.41228338      -0.00290697      -0.00861022       0.00976114
H        1.07099454      11.94791877       2.88202109      -0.00088565      -0.00969817       0.01091050
H        1.88594936      10.56277706       2.13058850       0.00132805      -0.00872982       0.01087698
H        3.91010298      11.63545196       2.73124428       0.00041524      -0.00424109       0.00951105
O        5.24704128       1.69250245       3.18027380       0.00229791      -0.00629395      -0.00041416
C        5.32532832       1.21833646       1.81736142       0.00266324      -0.00429340      -0.00131726
H        5.18299512       0.13662875       1.78015964       0.00598343      -0.00448939      -0.00311502
H        6.31548189       1.44323465       1.41058777       0.00210492      -0.00137896      -0.00136503
H        4.58907901       1.72246959       1.19074109       0.00201128      -0.00481208      -0.00015990
H        4.33337184       1.47078378       3.54343389       0.00294545      -0.00791958       0.00052146
O        9.90379050       3.71313753       4.41391319      -0.00591451       0.01029181       0.00022504
C       10.52206631       3.85841904       5.70735119       0.00223649       0.00247790      -0.00299439
H        9.74527730       3.80562304       6.46636955       0.00792840      -0.01241488       0.00225638
H       11.00745552       4.83191069       5.78375762      -0.00644827       0.00636570       0.00345164
H       11.25600702       3.06880592       5.88267193       0.01059045       0.00690347      -0.01654806
H       10.52226277       4.06532113       3.73536277      -0.00937492       0.01263657      -0.00232834
O        2.84252911      -0.53655518       8.40838048      -0.00603271      -0.00592968       0.00695745
C        2.49929272       0.04876361       9.68782537       0.00035627      -0.00431822       0.00805187
H        2.17327706       1.08359946       9.54586531       0.00257654      -0.00334302       0.00861080
H        3.35654529       0.01907305      10.36317253       0.00272267      -0.00626745       0.00489146
H        1.67124390      -0.53434837      10.08358247       0.00021127      -0.00208659       0.01094912
H        3.73481806      -0.25462952       8.18081285      -0.00841475      -0.00269672       0.00062522
O        0.42196801       6.75668055       3.26244601      -0.00253528       0.00631189      -0.00969124
C        0.15770529       6.69399490       4.65785195      -0.00406584       0.00416591      -0.01015028
H       -0.17274480       7.68317808       5.01942033      -0.00795418       0.00265093      -0.00922997
H        1.05050602       6.34602437       5.19473996      -0.00339354       0.00586888      -0.00954258
H       -0.65274969       5.98577792       4.83374123      -0.00179920       0.00111596      -0.01166636
H        1.36110384       7.03789353       3.10744513      -0.00355977       0.01109475      -0.00815922
O        3.21071279       5.44332460       5.61356983      -0.00408170       0.00132501      -0.00188845
C        3.21155002       4.51395630       4.53231754      -0.00205103       0.00678313      -0.00701017
H        2.20363126       4.15767879       4.30380177      -0.00292081       0.01500556      -0.01706113
H        3.84052205       3.64304339       4.74786964      -0.00980593       0.00137524      -0.00603435
H        3.60999414       5.01959100       3.65027522       0.00896230       0.00852020      -0.00112378
H        2.88240113       4.96590750       6.39250588      -0.00179629      -0.00360525      -0.00393698
O       12.22577132       9.44095157       0.89106621       0.00248659      -0.00053942      -0.00160775
C       12.52247268      10.84395573       0.70821363       0.00638608      -0.00094467       0.00067046
H       13.56904515      10.91829111       0.42661429       0.00586985      -0.00346059      -0.00178472
H       12.34654780      11.38513939       1.63937475       0.01065837      -0.00236965       0.00254914
H       11.90315644      11.26747913      -0.08466765       0.00566602       0.00272559       0.00313027
H       11.27309451       9.32411476       0.75600826       0.00167608       0.00319782       0.00085741
O        2.65471694       8.07795206       9.87907881      -0.01282009      -0.00756216      -0.00388041
C        3.95438567       8.37675360       9.33296659      -0.00931197       0.00396733       0.00673731
H        4.10238136       7.89199663       8.35171214       0.00325128       0.00662426       0.00690894
H        4.73489801       8.01759315      10.00419706      -0.01126148       0.00873096       0.01218104
H        4.04365419       9.45574979       9.22433028      -0.01492270       0.00476055       0.00864921
H        2.72635319       7.19512162      10.30199145      -0.00692756      -0.00703859      -0.00408885
O       10.85166913       5.47297619       8.37980941      -0.00364172       0.00050083      -0.00682306
C       10.91502814       6.76583468       7.80565108      -0.00138453       0.00283930      -0.00241562
H       10.85901953       7.56875820       8.55378049       0.00366303      -0.00005192       0.00112200
H       10.14073600       6.95065890       7.05094622      -0.00321050       0.00803279       0.00081447
H       11.88123180       6.81614096       7.29010965      -0.00274392       0.00168668      -0.00499537
H       10.00425753       5.36916396       8.83072487      -0.00191373       0.00214316      -0.00365341
O        7.33488251       5.24433483       4.54611043      -0.00490522      -0.00849831       0.00724986
C        6.41757981       6.35211559       4.62859583       0.00418377      -0.00095099       0.00255151
H        5.42923035       5.93070087       4.79090504       0.00102154       0.00733307       0.00990047
H        6.43742012       6.93634239       3.70594524       0.00546223      -0.00818252      -0.00223967
H        6.66676776       6.99261252       5.47807114       0.01325582       0.00305767      -0.00307335
H        8.24444667       5.55852672       4.61816824      -0.00076342      -0.01665044       0.00385489
O        2.89435420       1.03463942       4.04132797       0.00334985      -0.00491744       0.00479394
C        1.89535233       1.61432637       3.17409985       0.00356673      -0.00420042       0.00444966
H        1.32756741       0.83860032       2.66171665       0.00309320      -0.00403997       0.00422592
H        2.36581422       2.25815257       2.42494753       0.00430992      -0.00459269       0.00450708
H        1.19936928       2.20187618       3.77466877       0.00382411      -0.00361016       0.00432773
H        2.96313644       0.07547751       3.80961185       0.00140089      -0.00551063       0.00617012
O       12.90243922      -0.62196488       8.54820078       0.00818211      -0.00889727       0.00471881
C       11.78307456       0.12303883       9.04880627       0.01204786      -0.00680079       0.01029969
H       11.13033018       0.46917846       8.23834165       0.01060821      -0.00193055       0.01344445
H       12.09992716       0.98383241       9.64289996       0.01664671      -0.00945677       0.01203625
H       11.21659546      -0.53865261       9.70190115       0.01163375      -0.00690550       0.00992513
H       13.48055352       0.00038411       8.09701543       0.00816241      -0.00967866       0.00360036
O        6.77556208       9.67548549       3.87983840       0.00086696      -0.00970338       0.00934196
C        8.17526367       9.38696363       4.01514002       0.00303334      -0.00178777       0.00395598
H        8.65452004      10.06570972       4.72536104       0.00394908       0.00696807      -0.00469733
H        8.62419378       9.49444569       3.02901647      -0.00332670      -0.00805728       0.00037393
H        8.33311631       8.36320512       4.36797787       0.01019175       0.00225893       0.01245773
H        6.43384722       9.88874263       4.75510964       0.00235736      -0.01516458       0.01120716
O        2.65471403       2.90232231       7.15958809       0.00040330      -0.00287455      -0.00738424
C        3.98753983       2.76398148       7.65858864       0.00008114      -0.00192881      -0.00604577
H        4.66393694       2.38003828       6.88878746       0.00062174      -0.00437844      -0.00460242
H        4.03834779       2.11791278       8.54170995      -0.00057688       0.00079800      -0.00398342
H        4.32938131       3.75875249       7.95449319       0.00066516      -0.00093000      -0.00889144
H        2.47085704       2.13554133       6.60271099       0.00163515      -0.00247264      -0.00809681
O        8.96904948      10.43013780       9.72562267      -0.00258994       0.00221801      -0.00396168
C        8.38618554      11.20611424      10.79332331      -0.00571823       0.00798921      -0.00941886
H        7.63554307      11.90582790      10.42147569      -0.00494732       0.00552304      -0.01530182
H        9.14830621      11.76628788      11.33918370      -0.00719753       0.01093623      -0.01027353
H        7.90299450      10.49220603      11.46292322      -0.00724027       0.01131655      -0.00675961
H        9.39677682      11.03390622       9.10465512       0.00214869      -0.00136125      -0.00421169
O       10.27253656      10.27225033       6.91693419       0.00461441       0.00066477       0.00653058
C       11.65443324      10.00200005       6.98506258       0.00373575      -0.00471277       0.00711678
H       11.92252725       9.11988362       6.37158417       0.00111961      -0.00246738       0.00266109
H       11.99486973       9.86566763       8.03260150       0.00173299      -0.01194714       0.00686339
H       12.18156334      10.86527456       6.58447273       0.00732148      -0.00437024       0.01253512
H        9.75545128       9.49175914       7.18573038       0.00178217       0.00096858       0.00228219
O       11.21571140       4.77311538       2.27810772      -0.01829006       0.00563467      -0.00577629
C        9.95989072       4.85804655       1.56921227      -0.02000646      -0.00228932      -0.00405517
H        9.31302493       5.57833392       2.07592071      -0.02068580      -0.00092851      -0.00762529
H        9.48367206       3.87821011       1.52475251      -0.01671902      -0.00460258       0.00362851
H       10.09311523       5.16246733       0.52319287      -0.02207102      -0.00928272      -0.00595786
H       11.67458238       3.88003246       1.95989777      -0.01504849       0.00589737       0.00048727
O       12.44402095       4.93722603      12.47508568      -0.03845918      -0.00333583       0.00012911
C       11.80497563       5.26016192      11.22470944      -0.00395751       0.00968228      -0.01316977
H       10.71667188       5.23055890      11.33446691      -0.00766058       0.02685810      -0.03796358
H       12.09067191       4.53363455      10.46693612       0.00128347       0.00612302      -0.00845118
H       12.12100363       6.25686201      10.91464406       0.02235090       0.00523995      -0.00523950
H       12.16149936       3.98647643      12.58680597      -0.04882912      -0.00412554      -0.00808427
O       10.24228527       7.85180595      13.36793727      -0.00054038       0.00212783      -0.00644013
C       10.41691941       8.35419357      12.02355485      -0.00339161       0.01301306      -0.00306407
H        9.99402955       9.35308325      11.92084943      -0.00111365       0.01520978       0.00689172
H        9.95202323       7.68311810      11.29877146      -0.00794289       0.02051239      -0.00729136
H       11.48939435       8.41571519      11.82531922      -0.00389984       0.01118234      -0.00696265
H        9.26104546       7.85923676      13.53680040      -0.00040436      -0.00387468      -0.00537646
O       12.56162350      -0.94420745       4.26979469      -0.00927019      -0.00945392       0.00584418
C       12.23209023       0.03543434       5.25331664      -0.00673876      -0.01131248       0.00833173
H       11.95778470      -0.42357726       6.20802416      -0.00734009      -0.01348546       0.00739253
H       11.40149421       0.66635151       4.92501838      -0.00354740      -0.00752373       0.01140947
H       13.10801195       0.67362499       5.40895330      -0.00353038      -0.01574042       0.01084850
H       11.74521302      -1.13462943       3.78039682      -0.00860491      -0.00606093       0.00455348
