197
Lattice="12.791485706638552 0.0 0.0 0.0 12.791485706638552 0.0 0.0 0.0 12.791485706638552" Properties=species:S:1:pos:R:3:forces:R:3 energy=-107130.890625 stress="0.0021792456973344088 -0.0006898676801938564 0.00018894664390245453 -0.0006898676801938564 0.0023131179623305798 -0.00028295179072301835 0.00018894664390245453 -0.00028295179072301835 0.0020950855687260628" pbc="T T T"
Be       6.92176838       0.94943410      10.75789591      -0.00058109       0.00086907       0.00157139
Be       1.10409775       9.29432107      10.61240268       0.00421360      -0.00515255       0.00945357
Be       6.52687916       8.76259749       4.27055611       0.00408596      -0.00963199       0.00357976
P        5.79126520       2.18579141      12.20543553       0.00350320       0.00263105       0.00229145
O        4.62710315       1.56166191      12.95775558      -0.00308430       0.00627792       0.00098801
O        7.10172810       1.29453517      12.33773249      -0.00232446      -0.00279039       0.00267160
O        5.66114939       1.98004484      10.63028919       0.00204885       0.00540081       0.00221348
O        6.02856440       3.64104796      12.58851754       0.00823125       0.00081801       0.00581130
P       11.79957508       0.66166792      11.51477923      -0.01058505       0.01693924      -0.01080108
O       13.03063408       1.65009938      11.31626476       0.00348175       0.00343865      -0.00210498
O       11.79419655      -0.25755875      10.18174848       0.01003115      -0.00371164       0.00091588
O       12.01213781      -0.24924919      12.69859016       0.01082474      -0.00474387       0.00881696
O       10.56145132       1.50558643      11.47999737       0.01354074      -0.01205915      -0.00049211
N        3.80544204       4.49885024      10.34458613      -0.00858814      -0.01151314      -0.00187263
H        4.35523153       3.69387023      10.03269883      -0.00013157      -0.01270426       0.01567710
H        2.88469151       4.11458904      10.54254347      -0.00901651      -0.01286590      -0.00768234
H        4.21655827       4.66042402      11.26324910      -0.02060276       0.00531335      -0.00007249
N        8.22911650       9.76639182       9.34912409      -0.00031555      -0.00124758      -0.00889399
H        8.53687310       9.37047716      10.24121170      -0.00366921       0.00229518      -0.00601000
H        9.09311095      10.03515395       8.87082730       0.00150087      -0.00359374      -0.00642325
H        7.86864229       8.96691684       8.83818210       0.00202478      -0.00418793      -0.00668100
N       10.20246275       7.87825362       6.71338181      -0.00033402      -0.00933605      -0.00007904
H       10.33636312       7.00615763       7.21813830       0.01304844      -0.01012239      -0.00445589
H        9.29207497       7.82624700       6.27490332      -0.00918350      -0.01535515       0.01921288
H       10.19278003       8.65122667       7.37416436       0.00645628      -0.01087437       0.00199087
N       11.15315133       5.83509017       0.61250129      -0.00238390      -0.00174232      -0.00419766
H       11.79814863       5.12914377       0.95772647      -0.00334613      -0.00161256      -0.00222293
H       10.23247639       5.51512476       0.89376781      -0.00309115       0.00031166      -0.00217672
H       11.33606483       6.69072203       1.13824918      -0.00110270       0.00000950      -0.00827265
N        9.13230185       3.98715427      10.92823903      -0.00295246       0.00060485       0.01112906
H        9.85351185       3.28840332      11.12926595      -0.00228694      -0.00344324       0.01013828
H        8.32422261       3.69446251      11.47713899      -0.00297688       0.00027784       0.01004651
H        9.44801600       4.85731764      11.33996748      -0.00062671      -0.00249997       0.01130430
N       11.58922572       6.31919079      10.29865797      -0.00157344       0.00177792      -0.00290513
H       10.86121860       6.97762942      10.04208171      -0.00054562       0.00291804      -0.00257873
H       11.40267265       6.04372551      11.26767422      -0.00334123      -0.00055962      -0.00376233
H       11.45577974       5.50232833       9.71184791      -0.00152975       0.00300854      -0.00495698
N       11.37265871       0.56370927       5.24767878      -0.00053920       0.00330579       0.00049716
H       10.96272517       0.73025950       4.33349662       0.00067919       0.00594914       0.00002340
H       10.64446534       0.24775850       5.87631458      -0.00197680       0.00118532      -0.00222103
H       12.06410998      -0.16862479       5.14791886      -0.00087991       0.00322123      -0.00092821
N       11.79226220       3.42514693       3.84445533      -0.00370322       0.01042911       0.00056366
H       12.56257675       3.68279022       3.23071397      -0.00260445       0.00825404       0.00085188
H       11.19724566       2.80223078       3.29909988      -0.00278237       0.00858421       0.00117633
H       12.16101364       2.84002503       4.58767642      -0.00410577       0.01211708       0.00214490
N        1.30408630       7.58657805      10.77504825       0.00018814      -0.00581384       0.00657508
H        0.42113851       7.07658900      10.50995984      -0.00079465      -0.00331935       0.00301257
H        2.07725636       7.18462631      10.25368658       0.00040561      -0.00732228       0.00768751
H        1.46502963       7.34383913      11.74745016      -0.00327184      -0.00834166       0.00634342
N        3.68452311       7.45016461       7.04358751      -0.00103468       0.00306974      -0.00398487
H        3.95771681       6.91672333       7.86402984      -0.00503154       0.00205734      -0.00321469
H        2.75151540       7.11304897       6.80015761       0.00049779       0.00237317      -0.00947182
H        3.52801190       8.40921625       7.34487839      -0.00383575       0.00265616      -0.00359705
N       13.25263881       6.75731345       6.94447754       0.00752518       0.01090677      -0.00978866
H       13.44972856       6.99549517       7.91146812       0.00646930       0.01653053      -0.01078956
H       12.61376103       5.96308303       7.01021444       0.01321860       0.00663213      -0.00623161
H       12.66810562       7.51240268       6.59480942       0.00248784       0.00507480      -0.01346168
N        2.63861562       0.54360598      11.06023054       0.00109869       0.00481167       0.00067866
H        2.89492802       0.62354193      10.08216836      -0.00013085       0.00340796      -0.00014295
H        3.38178199       0.97795145      11.62424444       0.00205800       0.00743342      -0.00014734
H        1.15384623       1.18864588      11.26739989       0.00305468       0.00598633      -0.00101889
N        3.10917048       0.89682192       7.41710588       0.00202304       0.00604754       0.01226187
H        2.99649816       0.60520562       6.45078716       0.00914019      -0.00478192       0.01474011
H        4.01384088       0.55657252       7.71881398       0.00084776       0.01197337       0.02270315
H        3.18492750       1.91543717       7.38094935      -0.00068104       0.00586768       0.00231007
N        8.89789455      11.12890355       3.18795708      -0.01815775       0.01643640      -0.00197279
H        9.83658245      10.83514830       3.44636370      -0.02707928       0.00071185       0.00964388
H        8.83294644      12.07084105       3.56647112      -0.00478272       0.02031142      -0.00909103
H        8.91865603      11.25963842       2.15814764      -0.00819282       0.00752979      -0.00323462
N        1.33345784       9.10514706       3.58177852       0.00412828      -0.00107887      -0.01527614
H        1.54648729       9.63922024       2.74748199       0.01570451      -0.00213921      -0.01319762
H        1.64766377       8.14674604       3.44507574       0.01662721       0.00158254      -0.00424066
H        1.90496345       9.49814378       4.31889823      -0.01588544       0.00960000      -0.00604024
N       11.34598892       8.73226269       2.16743157       0.00317254       0.00206584      -0.01554373
H       11.41120973       9.47806504       1.48108931       0.00462709      -0.00050446      -0.01814058
H       12.09975696       8.88709523       2.84075741       0.00839615      -0.00102455      -0.02034965
H       10.47823726       8.87354882       2.66913087       0.00727572       0.01155423      -0.01084062
N        2.26067386       6.09186332       4.23092156       0.01093764       0.00015631      -0.01306409
H        1.55314442       6.20623776       4.95677544       0.00525392       0.00404435      -0.01962793
H        3.14122376       6.32704490       4.67582220       0.00935318      -0.01481842      -0.00218395
H        2.30986357       5.10089054       4.01611146       0.00072791       0.00109985      -0.01995162
N        4.43197551       4.38879839       2.24937048      -0.00404190       0.00314182       0.00286549
H        4.76975186       4.08143629       1.32930910      -0.00547803       0.00385135       0.00214864
H        5.25900887       4.42937138       2.83530448      -0.00277034       0.00005081       0.00180364
H        4.04730521       5.32103642       2.17083545      -0.00198233       0.00417544       0.00548366
N       10.98479086      10.62922498       8.03725175       0.00669804      -0.00709468       0.00334259
H       11.67211164      10.25094814       8.68663180       0.00431058      -0.00680420       0.00593024
H       10.88174411      11.59652159       8.33511646       0.00814267      -0.00599539       0.00022655
H       11.43027385      10.65389272       7.12687727       0.00936075      -0.01042151       0.00391760
N        2.77385753      12.07266922       4.25202225       0.00429200      -0.00239871       0.01087788
H        3.34475966      12.91283128       4.29191824       0.00868749      -0.00512885       0.00956004
H        2.63700936      11.87047708       3.26220047      -0.00217491       0.00069925       0.01109661
H        3.25099200      11.31564114       4.72048524       0.00602989      -0.00585025       0.00383717
N        3.25458833       2.35623276       4.39453750       0.00481829       0.00021785       0.00767261
H        3.23190255       2.93005749       5.23398809       0.00026248       0.00414643       0.00507572
H        2.29170536       2.11028332       4.19114908       0.00676055      -0.00861373       0.00932763
H        3.59214739       2.93218105       3.62078913      -0.00068946       0.00002828       0.00493106
N        8.33826858       1.26751391       9.81175456      -0.00168866       0.00097559      -0.00026959
H        8.32696756       2.25190566       9.54995973       0.00046463       0.00132158       0.00573518
H        8.50992387       0.73403219       8.96418326      -0.00154003       0.00404832       0.00117025
H        9.18735598       1.18869389      10.41294352       0.00197062      -0.00180478       0.00198837
N        7.48246416       8.26176564       3.02397802       0.00466675      -0.00830835       0.00328098
H        6.94352154       7.96116353       2.13719310       0.00308490      -0.01154782       0.00536019
H        8.13035907       7.50715132       3.25268355       0.00868446      -0.00518632       0.00326307
H        8.04325436       9.08388276       2.77850317       0.00029314      -0.00806618      -0.00376162
N        0.17309218       2.27051616       8.27717729       0.00664050      -0.00036949      -0.00352758
H       -0.57745423       1.69169717       7.91246636       0.00252959       0.01464899      -0.02053630
H        0.08825453       2.20537538       9.29228585      -0.00914793      -0.00409661      -0.00619520
H        1.01905243       1.74897185       8.05757209       0.00131354      -0.01347927       0.00547585
N        8.45136552      12.15583892       6.78960983       0.00087422       0.00083834       0.00815549
H        8.99106963      11.54993228       6.18311250      -0.00262311      -0.00407222       0.01045346
H        7.65548546      12.50576304       6.25975555      -0.00003837      -0.00047191       0.00814795
H        8.10225047      11.55825224       7.53143689       0.00023020       0.00566445       0.01213422
N        2.16495118      10.39938581       6.85797331      -0.00107729      -0.00819595       0.00928685
H        1.99171967      10.12332283       7.83119441       0.00358491      -0.00021752       0.01252726
H        1.43422583       9.99399496       6.28372945      -0.00032012      -0.01887614       0.01606024
H        2.01079783      11.40309199       6.81926311      -0.00674530      -0.00945325      -0.00125609
N        5.30149964      10.77271701       7.05910869      -0.00240463       0.01973623      -0.01889479
H        5.70224205      10.42905427       7.92615410       0.00253160       0.02499405      -0.01917797
H        4.28552017      10.64807785       7.09732258      -0.00062552       0.00728741      -0.01894858
H        5.49177775      11.76972000       7.02238448      -0.01442982       0.02224842      -0.02247302
N       10.48524726       6.22551498       4.05763178      -0.01933929       0.01028036      -0.01334507
H       10.89800096       5.28304944       4.07608349      -0.01540820       0.01191683      -0.00879075
H       10.83618470       6.72897712       4.86887180      -0.02224971       0.01445732      -0.01434105
H       10.89701530       6.68386076       3.25146240      -0.01897271       0.00803897      -0.01448688
N        2.05847488       0.10503112       1.41481688      -0.00691100      -0.01501387       0.00391070
H        2.79622526       0.68618182       1.01820221      -0.00727069      -0.01701572       0.00027341
H        1.64541825       0.65348822       2.16162107      -0.00824395      -0.00813408      -0.00156283
H        1.31302476       0.02471333       0.72432917      -0.00608595      -0.02057505       0.00410914
N        5.96246340       7.47783062       0.80558084       0.00131202      -0.00577611       0.00482315
H        6.43709186       7.09362363      -0.02159700      -0.00123923      -0.00702599       0.00364685
H        5.36448071       8.22383464       0.46513612       0.00314328      -0.00356472       0.00656469
H        5.35558659       6.72400569       1.11590080      -0.00082350      -0.00376312       0.00545569
N        5.33786742      11.54481940       0.56197124       0.00313449       0.00750652      -0.00267714
H        4.55626445      11.14065270       1.06608961       0.00153787       0.00722031      -0.00558879
H        5.14287541      12.55833667       0.51000139       0.00361259       0.00770596      -0.00241970
H        6.18033722      11.43738985       1.11459761       0.00047648       0.00785708       0.00167932
N        8.90574832      11.64195130      12.99848258       0.00482026       0.00043847      -0.00310165
H        8.66736193      10.97278098      12.27456742       0.00537430      -0.00107285      -0.00157932
H        9.88082038      11.90119172      12.83186997       0.00361494       0.00238572      -0.00446572
H        8.35779663      12.48430474      12.80238731       0.00289473      -0.00057214      -0.00408798
N        7.02203313       2.69827869       2.69172463       0.00419648       0.02058507       0.00391293
H        6.30719925       2.00701355       2.46921760       0.00893699       0.01098600       0.02080861
H        7.89774527       2.18539237       2.74280016       0.00919079       0.02894545       0.00658714
H        7.08377082       3.22022163       1.81605756      -0.00698713       0.00711008      -0.00504323
N        6.07542489      10.35658740       4.27688520       0.01412173      -0.00835145       0.00448643
H        6.92102836      10.88742697       4.02740527       0.01130658      -0.01427424      -0.02065620
H        5.79279335      10.60579172       5.25126902       0.03159906      -0.00049156       0.00885844
H        5.34385145      10.68866254       3.65256376      -0.00076216      -0.00820130       0.02303666
N        6.04035018       1.09298147       5.49808235      -0.00320296       0.00894719       0.01356136
H        6.61847840       1.61073342       4.83890401       0.00974046       0.00010976       0.01819138
H        6.13595937       1.59287977       6.37701732      -0.00912514       0.01288645       0.01209604
H        5.08725460       1.29177562       5.18670667       0.00186399       0.01517636       0.00173854
N        6.78186722       5.98378019      11.06599787      -0.00347078      -0.00103255       0.00074601
H        6.52048900       5.12539349      11.57995569      -0.00463574      -0.00036518       0.00149640
H        7.47910736       5.66690467      10.39821763      -0.00120159      -0.00247514       0.00298098
H        5.96386669       6.22614617      10.51609153      -0.00104972      -0.00191496      -0.00166219
N        9.06447160       8.14723267      12.01931746      -0.00210366       0.00330207      -0.00246274
H        9.88902061       7.67273463      12.37275883      -0.00111887       0.00337635      -0.00407174
H        8.37131613       7.42833239      11.80863161      -0.00199626       0.00274192      -0.00192802
H        8.70046154       8.69586789      12.78970423      -0.00111090       0.00205858      -0.00121403
N        2.28527200      10.04203119       9.90257903       0.00558390      -0.00566125       0.01071220
H        2.23384918      11.03956899       9.75247539       0.00796196      -0.00537100       0.01400655
H        3.25723032       9.77071800       9.92217263       0.00473860      -0.00722630       0.01025635
H        2.62476876      12.34912630      11.29731924       0.00260325       0.00589236       0.00316518
N       10.90559353       4.46789513       7.37247289       0.00268367       0.01021549       0.00207338
H       10.66195167       4.19888774       6.42375014       0.00252159       0.01213602       0.00166897
H       10.11964633       4.21721644       7.96563582       0.00375359       0.00581069       0.00256866
H       11.66195096       3.82999657       7.64177823       0.00515350       0.01284316      -0.00033600
N        7.81425793       5.48760620       5.26985277      -0.01316559      -0.01904976      -0.00743365
H        8.71019738       5.70334050       4.80593085      -0.01475048      -0.01118992      -0.00554624
H        7.39683821       4.73595389       4.72435040      -0.00758798      -0.01939422      -0.01187414
H        8.04891363       5.08022450       6.16860914      -0.01236656      -0.02109739      -0.00847152
N        6.25901859       7.85314561       5.61834957      -0.00265345      -0.01429581      -0.00156736
H        6.61407737       8.37801748       6.41568768       0.00628698      -0.02620518       0.00205410
H        6.79167491       6.93560977       5.55588195      -0.01121628      -0.01882285      -0.00904773
H        5.27698835       7.65138445       5.91224825      -0.00428677      -0.00602317       0.00033164
N       10.20337220       1.27194019       1.93517147      -0.00109549       0.00661451      -0.00211684
H       10.12521243       2.01244395       1.23966702       0.00917152       0.00990704      -0.00051934
H        9.36541462       0.72661498       1.76083668      -0.00484511       0.01495018      -0.00986763
H       10.95215830       0.69347209       1.54358673      -0.00372586       0.00274449       0.00126717
N       12.52062105       9.94283962      11.07901861       0.00416487      -0.00408304       0.00904573
H       11.70794717       9.36409839      11.25744279       0.00321192      -0.00334331       0.00846166
H       12.04361888      11.59455444      10.39254743       0.00676714      -0.00095257       0.00205730
H       12.55118089      10.62741569      11.83571881       0.00288453      -0.00128339       0.00584596
N        1.24440160       4.49476471       1.57391656       0.00128308      -0.01118097      -0.00975963
H        1.40247670       5.45758140       1.84927161       0.00155340      -0.00564595      -0.02965593
H        1.10935077       4.46022576       0.57064056      -0.00958536      -0.02994321      -0.00730346
H        2.11294770       3.99975926       1.75830178       0.00480093      -0.00515064      -0.00978611
N        2.68288470       4.01891311       7.26075188      -0.00144389       0.00168526       0.00775826
H        3.07006278       4.33756295       8.14545864       0.02149730       0.01593678      -0.00803794
H        1.70610817       3.78581720       7.43606428       0.01107153      -0.01965134       0.04228740
H        2.68232765       4.81749360       6.63795677      -0.04432405      -0.00227712       0.00465122
N        6.34472152      12.08123185      10.51284645      -0.00318623       0.00149167      -0.00099269
H        6.97377489      11.36586908      10.13657278      -0.00393838       0.00227803      -0.00404702
H        5.98873497      11.74867163      11.42237352       0.00011265       0.00040084       0.00022814
H        5.53067612      12.12311675       9.90817917      -0.00490293       0.00194111       0.00171794
