200
Lattice="13.720930885785132 0.0 0.0 0.0 13.720930885785132 0.0 0.0 0.0 13.720930885785132" Properties=species:S:1:pos:R:3:forces:R:3 energy=-771958.375 stress="-0.00019418768351897597 0.0001272327936021611 0.0005038983072154224 0.0001272327936021611 -0.0006708397995680571 -3.88892694900278e-05 0.0005038983072154224 -3.88892694900278e-05 -0.0008025377173908055" pbc="T T T"
Cs       8.50807395      -1.49232522      11.79108230       0.00265689      -0.01292513       0.00124659
Cs      11.68267427       8.69504792      -0.24938735       0.02334940       0.01039953       0.01936398
Cs      13.74975662       1.37055831       2.46895914       0.02104059       0.00554107       0.01628942
P        0.44661029      12.17614126       3.91780983      -0.00314981       0.00707185       0.02078438
O        0.22908652      11.74450567       5.45883062      -0.01313261       0.00324614       0.01817656
O       -0.80202287      12.44904564       3.14398093       0.00100031       0.01033892       0.01746055
O        1.61174054      13.04622728       3.61513472       0.00196302       0.00227918       0.02844315
O        0.72560057      10.66529277       4.38528569      -0.00633246       0.00493874       0.01888701
O        9.07966278      14.45828744       3.54978660       0.01751792      -0.00078380       0.01194847
N        8.54481316      12.78678700       2.09042877       0.00137068       0.00637697       0.00912520
C        9.82754522      12.86573234       1.42444404      -0.00358709       0.00384390      -0.00071380
C        7.47214547      12.03584230       1.45881354      -0.00548013       0.01222289       0.01347008
C        8.28182339      13.63820244       3.11317594       0.01111433       0.00341189       0.01357633
H        9.84654203      13.64967679       0.64734465      -0.01082832       0.00044177      -0.00456981
H       10.06070089      11.89415829       0.98075494      -0.00758424       0.00195292       0.00107213
H       10.59628429      13.10712932       2.15456713       0.00171848       0.00755632      -0.00740397
H        6.97032258      12.60098318       0.66300981      -0.00002475       0.01433852       0.01159400
H        6.71555003      11.78299756       2.20165849      -0.00727391       0.02074556       0.01467527
H        7.86322907      11.10339731       1.04421376      -0.01460202       0.00744960       0.01570778
H        7.26973000      13.50010266       3.53042077       0.01412237       0.00622453       0.02027050
O        3.55959226       1.10677581      10.95706974      -0.00840443       0.01102370      -0.01065226
N        1.97581076       2.09240228      12.27217979      -0.00526056       0.00751049      -0.00425029
C        1.50443932       0.84009158      12.82891682      -0.00342397       0.00564083      -0.00718968
C        1.34776285       3.33108436      12.68373741      -0.00636238       0.00561792      -0.00008480
C        2.97169340       2.10337761      11.35963428      -0.00791585       0.01081461      -0.00632215
H        0.41030287       0.80460073      12.80265482      -0.00341773       0.00585324      -0.00288227
H        1.85221933       0.70681480      13.86209740       0.00126281       0.00194502      -0.00958137
H        1.90159335       0.01845356      12.23815528      -0.00573832       0.00780426      -0.01171407
H        0.35166426       3.44129411      12.24382880      -0.00937143       0.00190864       0.00599493
H        1.97831982       4.16554717      12.38542314      -0.01116975       0.00740819      -0.00474302
H        1.26180352       3.36681044      13.77304664       0.00030026       0.00638706       0.00028470
H        3.21294059       3.12048729      11.02203943      -0.00864123       0.01102105      -0.00475103
O        3.31691967       2.30087537       5.61032320      -0.00885150       0.02493984      -0.01964188
N        3.63402732       2.43746762       3.33939680      -0.01041237       0.00474029       0.01466207
C        4.77899289       1.54357242       3.30867503      -0.01386505       0.00075643       0.01022307
C        3.34849702       3.20236587       2.14561416      -0.00984988       0.00775982       0.00983664
C        3.02327953       2.73489774       4.51342835       0.00497199      -0.00088938       0.04572225
H        5.71501726       2.10872765       3.22882794      -0.01280530      -0.00123911       0.00555106
H        4.69182031       0.87487883       2.44986769      -0.02033769      -0.00138909       0.01207785
H        4.79146031       0.95182042       4.22032786      -0.01316083       0.00376932       0.01221490
H        4.09340642       3.98627845       1.97286789      -0.00397909      -0.00028005       0.00692881
H        2.38065718       3.69753119       2.24380060      -0.00475836       0.01370629       0.01216601
H        3.33007947       2.54974572       1.26818666      -0.01625596       0.00498021       0.01178895
H        2.18077898       3.44451641       4.36719321       0.00234377       0.01456270       0.01343682
O        5.75156811       6.80329703       3.80881402       0.00361764       0.00115563      -0.00804793
N        7.79774580       5.99685418       3.18016468       0.00401027       0.00098316      -0.00724594
C        7.26468053       4.95222128       2.33412869       0.00431301       0.00175259      -0.00834766
C        9.23625091       6.12548611       3.22824490       0.00402725       0.00068144      -0.00624027
C        6.97436513       6.84660693       3.83306688       0.00404072       0.00023857      -0.00669914
H        7.65777132       3.97866310       2.64450100       0.00216746       0.00123301      -0.00743724
H        7.54819489       5.12631868       1.29165052       0.00688565       0.00098164      -0.00767699
H        6.18112807       4.96175150       2.42427964       0.00413302       0.00339815      -0.01085132
H        9.68531455       5.19650403       3.59308167       0.00368771      -0.00036854      -0.00855205
H        9.50707377       6.93745443       3.90083655       0.00380254      -0.00129138      -0.00381832
H        9.62787781       6.35812572       2.23494641       0.00483273       0.00305194      -0.00534350
H        7.53040520       7.60093625       4.41559184       0.00375560      -0.00135460      -0.00468925
O       12.48314029       3.90474671       9.14772302      -0.00100338      -0.01601577      -0.00216466
N       12.32466898       1.67104539       8.65934368      -0.00166697      -0.01487653       0.00121575
C       13.24657275       1.24826285       9.69197954       0.00230205      -0.01143318      -0.00136530
C       11.67868281       0.63246388       7.88355071       0.00977588      -0.01524101      -0.00633731
C       12.04112898       2.97384223       8.47853522      -0.00147352      -0.01542979      -0.00056797
H       14.03901060       0.63334133       9.26159367       0.00558321      -0.00322361      -0.00589891
H       12.72209493       0.65936886      10.45218035       0.01190142      -0.01759087       0.00077155
H       13.68346056       2.13257051      10.14826279      -0.00328553      -0.00849035      -0.00261459
H       12.42188057      -0.03630132       7.44580852       0.01908349       0.00097841      -0.01597443
H       11.09641758       1.08088544       7.08107152       0.00888859      -0.01721182      -0.00684102
H       11.00917394       0.04064152       8.51991526       0.01489273      -0.01941492      -0.00506371
H       11.33946102       3.13271761       7.64233158      -0.00225316      -0.01717219      -0.00056277
O        9.88629718       6.05461917      13.12265336       0.03133839       0.00463523       0.00281294
N       10.35945428       3.91114891      12.46562978       0.00573160       0.00058237       0.00067419
C        9.74909877       4.03420546      11.15223811       0.00472693       0.00893347       0.00195771
C       11.13515970       2.72052185      12.71733009      -0.00735211      -0.00818539      -0.00218213
C       10.37647761       4.94838442      13.32618691       0.01960822      -0.00001496       0.00110069
H        9.30833295       3.07468110      10.87691724      -0.00226467       0.01290536       0.00001721
H       10.49711333       4.29249984      10.40065228       0.00526905       0.00583412       0.00134055
H        8.97388301       4.79579951      11.18356253       0.01018757       0.01407827       0.00504541
H       10.50735581       1.82507977      12.67222328      -0.01713237      -0.00081270      -0.00566523
H       11.56760778       2.78236620      13.71538587      -0.00795765      -0.01632667      -0.00146358
H       11.93626248       2.62475515      11.97917278      -0.00799590      -0.01500808      -0.00205122
H       10.88476503       4.69565198      14.27235572       0.01949217      -0.00627784      -0.00022259
O        9.24649678       8.97279928       6.75279395       0.00736892      -0.00696921       0.01068091
N       10.82385351       7.33333429       6.46986356       0.00450510      -0.00699373      -0.00488915
C       11.97750098       8.20044563       6.60247126       0.00554326      -0.00891986      -0.00217430
C       11.09701140       5.91860360       6.34497385       0.00258802      -0.00712544      -0.00773601
C        9.55986007       7.80139237       6.56771427       0.00536025      -0.00681001       0.00268340
H       12.58343112       8.16964024       5.69497802       0.00869900      -0.01194313       0.00018987
H       12.59478882       7.87913895       7.44435808       0.00209792      -0.00854769       0.00046307
H       11.64028539       9.21680135       6.77676440       0.00715357      -0.00774720      -0.00497327
H       11.70433319       5.72188681       5.45717510       0.00288469      -0.00590860      -0.00764894
H       10.15658814       5.37687510       6.25311349       0.00203325      -0.00582854      -0.00946491
H       11.63644230       5.55426974       7.22502807       0.00145145      -0.01006573      -0.00812382
H        8.80945220       6.99979368       6.48061458       0.00420246      -0.00507015       0.00091068
O        1.02965535       9.53984174       1.77360107      -0.01633465      -0.01377773      -0.02410132
N        3.30605506       9.18638356       1.75106135      -0.01434004      -0.00197944      -0.01446168
C        3.62985883       9.89150186       2.97588092      -0.02253541      -0.00265355      -0.01235306
C        4.42476800       8.59479684       1.04592713      -0.00985402       0.00188582      -0.01012164
C        2.05780951       9.08178245       1.27375394      -0.01139188      -0.00704408      -0.01999313
H        4.23015504      10.77965231       2.75845681      -0.02811155       0.00177708      -0.00877598
H        4.20719276       9.23082805       3.62741978      -0.01961443      -0.00012308      -0.01253805
H        2.71663472      10.20009009       3.47166359      -0.02599844      -0.01035151      -0.01382925
H        5.09926740       9.37217507       0.67265451      -0.01091224       0.00417709      -0.00739169
H        4.06188973       8.01778991       0.19813297      -0.00496775       0.00051832      -0.01134150
H        4.96984568       7.93226731       1.72295658      -0.01013762       0.00390634      -0.00790501
H        2.02874211       8.50984125       0.33103940      -0.00444103      -0.00463441      -0.02138078
O        5.62767254      11.55566259      12.49594288       0.00681850       0.01908875      -0.00837207
N        5.66149403      11.99662462      10.25751231      -0.00383294       0.00229988      -0.01191176
C        6.02068448      10.64363268       9.87700801       0.01016938       0.00390705      -0.00320087
C        5.59697713      12.99274389       9.20172885      -0.02591458      -0.00794321      -0.01971003
C        5.37233600      12.29419035      11.54041676      -0.00418954       0.00871150      -0.01369298
H        7.07251498      10.56061355       9.57364835       0.00763807       0.01490438      -0.01407481
H        5.41463731      10.35001285       9.02017069       0.00556922      -0.01304715       0.00628203
H        5.82146402       9.97402375      10.70918494       0.02737517       0.00952889       0.00514880
H        6.59540331      13.14891554       8.77549447      -0.03176650       0.00355298      -0.02735159
H        5.21597421      13.92447435       9.61121659      -0.03744200      -0.01101725      -0.02481192
H        4.94742281      12.66266282       8.39048844      -0.02635731      -0.02552202      -0.01196299
H        4.92107668      13.28732392      11.65734556      -0.01647298       0.00343382      -0.01973153
O        4.31338473       4.69275930      12.58390466       0.00146216      -0.00912070       0.02399871
N        6.01447919       3.22653520      12.10697978      -0.00106023      -0.00628337       0.00574464
C        5.94934816       3.38668699      10.66390877      -0.00267364       0.00662858       0.00737286
C        6.84213473       2.16959078      12.64118224       0.00169072      -0.00965224      -0.00555962
C        5.18250798       3.90462626      12.92795825       0.00088477      -0.01409197       0.01378345
H        5.41436512       2.55113970      10.20423520       0.00429639       0.00624779       0.00018141
H        6.96056374       3.43312369      10.25811666      -0.00343850       0.01999915       0.00763907
H        5.43705729       4.31890312      10.43636338      -0.01098599       0.00397417       0.01616976
H        6.41674369       1.18742789      12.40059642       0.00164466      -0.00812858      -0.01116391
H        6.90180072       2.26274062      13.72551068       0.00600383      -0.01752354      -0.00520340
H        7.85400766       2.23762519      12.23547414      -0.00011815      -0.00542714      -0.00919291
H        5.38847143       3.67534118      13.98572302       0.00168891      -0.02649014       0.01081571
O        5.67483885      11.95665709       5.74025893       0.01535732      -0.00256157      -0.01162332
N        5.13122957       9.87631293       6.54439613       0.00704700       0.00108470      -0.00687505
C        3.69767816      10.08914540       6.56269296       0.00803684       0.00735310      -0.00692568
C        5.60981222       8.56448347       6.94391505       0.00176660      -0.00112788      -0.00789872
C        5.98476412      10.83326347       6.12170734       0.01103916      -0.00380909      -0.00905284
H        3.31486569      10.01011667       7.58512527       0.00796831       0.01032201      -0.00677636
H        3.19919614       9.32929608       5.95676962       0.00410034       0.00915208      -0.00578740
H        3.47297649      11.07386082       6.15993364       0.01227028       0.00792047      -0.00817384
H        5.18578234       8.28745276       7.91289788      -0.00023492      -0.00106170      -0.00874785
H        6.69652678       8.58369308       7.02497937       0.00167257      -0.00523660      -0.00630798
H        5.32115451       7.81083132       6.20570731       0.00001717       0.00093165      -0.00934869
H        7.03448036      10.49135211       6.16822279       0.00925964      -0.00768143      -0.00872949
O       13.55538811       9.30474982      10.77835364       0.00550100       0.00110829       0.02483918
N       11.68428031       8.27119253       9.96626486       0.01134337       0.00525147       0.00608933
C       10.98326059       9.51444137       9.68841364       0.01243418       0.00527725       0.00593508
C       10.95155867       7.02029821       9.88811384       0.00989582       0.00703606      -0.00417158
C       12.94684650       8.29700055      10.43882429       0.00649935       0.00093418       0.01511189
H       10.31483979       9.77070797      10.51571364       0.00753532       0.00193223       0.00295079
H       10.38502361       9.39896714       8.78316771       0.01725507       0.00669222       0.00259766
H       11.72511628      10.29812601       9.54495272       0.01175612       0.00660944       0.01150249
H       10.30069654       6.89553740      10.75860216       0.00565657       0.00496802      -0.00805518
H       11.65716812       6.19094593       9.84671887       0.00825602       0.00570078      -0.00492007
H       10.33359455       6.99731772       8.99041997       0.01482202       0.01376676      -0.00756648
H       13.37835118       7.28211772      10.52426637       0.00558460       0.00121805       0.01369883
O        9.41635079       9.03732642       1.74682878       0.01218894       0.01485020       0.00833863
N       10.49072728       9.97559752       3.51993151      -0.00595483       0.00940014       0.01922247
C       11.78371642       9.49367742       3.06665815      -0.00288820       0.01536918       0.02209808
C       10.45054824      10.96598185       4.58462035      -0.01734978       0.01212278       0.01435822
C        9.40497526       9.68791572       2.80187939       0.00072822       0.00938156       0.01100117
H       12.49567407       9.54297159       3.88203712      -0.00036703       0.01697821       0.02012482
H       12.19479726      10.11506294       2.26666075      -0.00863633       0.01700565       0.02091211
H       11.68401149       8.45869623       2.73322242       0.00068723       0.01576802       0.02060605
H       11.06147383      10.62921362       5.41726708      -0.01775421       0.00984691       0.01272725
H        9.42654785      11.07593740       4.93245989      -0.01979238       0.00777240       0.00997731
H       10.84806341      11.91696347       4.23171326      -0.02409583       0.01440647       0.01167271
H        8.47380362      10.08116125       3.23628788      -0.00336617       0.00389476       0.00715174
O        8.90911976       9.51940764      12.25178506       0.01567024      -0.01526520       0.00382701
N        7.36985085       7.85622059      11.94429847       0.00846326      -0.00785980      -0.00021645
C        7.52760852       7.72330925      10.50610496       0.00490896      -0.00107696      -0.00121012
C        6.48353652       6.88767033      12.55662056       0.00614381      -0.00747624      -0.00278807
C        8.06401411       8.70252254      12.68585699       0.01453906      -0.01434731       0.00235087
H        6.55125099       7.79130835      10.02761204       0.00379020       0.00236688       0.00170591
H        7.93385399       6.74079171      10.26275832       0.00330329      -0.00013837      -0.00767345
H        8.19891056       8.49120090      10.13512840       0.00489776       0.00000948       0.00094589
H        5.49900819       6.93671773      12.09448193       0.00716740      -0.00560308      -0.00474903
H        6.41104566       7.08059909      13.62426194       0.00360854      -0.00829170      -0.00282517
H        6.89000582       5.88490923      12.40459272       0.00454213      -0.00824183      -0.00264721
H        7.85848551       8.63740497      13.75943248       0.01654357      -0.01812056       0.00258934
O        7.43842676       5.61075326       8.03633703       0.01363325      -0.01256943       0.00143681
N        7.45116128       3.73992396       6.70605930       0.00341146      -0.01005955      -0.00198315
C        6.27243879       4.09230630       5.93874925       0.00618637      -0.00108328      -0.00197314
C        8.08444521       2.47770169       6.38461032      -0.00507194      -0.01423898      -0.00276463
C        7.90878010       4.53247931       7.68960680       0.00745802      -0.01500773      -0.00015962
H        5.47388026       3.36809382       6.11630968       0.00188223       0.00325263      -0.00417908
H        6.51323943       4.09076779       4.87441482       0.00704339       0.00043808      -0.00181991
H        5.94511784       5.08714129       6.22409313       0.01176687      -0.00007570       0.00073761
H        7.37806044       1.65221990       6.50680079      -0.01039889      -0.00957988      -0.00262089
H        8.93071866       2.32303312       7.05282307      -0.00622562      -0.02050582      -0.00290719
H        8.44089330       2.46281827       5.35220199      -0.00499023      -0.01602413      -0.00255963
H        8.80435532       4.10388485       8.17878432       0.00435892      -0.02115242      -0.00040515
O        4.21331725       7.36108769      10.09100782       0.00685394      -0.00449288      -0.00262498
N        2.96374755       5.67172564       9.18438991      -0.00111215      -0.00046238      -0.00018473
C        3.86919948       5.42177023       8.08143140      -0.00223735      -0.00470730      -0.00039147
C        1.71036227       4.95199197       9.17547110      -0.00681415       0.00874810      -0.00148051
C        3.22322345       6.64000229      10.08635374       0.00265920       0.00030410      -0.00225663
H        3.45576772       5.80833874       7.14362162       0.00128540      -0.00061318       0.00004435
H        4.01516993       4.34594431       7.96778030      -0.01022366      -0.00529790      -0.00157538
H        4.82261667       5.90408091       8.28024629       0.00094450      -0.01138023       0.00106564
H        1.08274805       5.24972210       8.33091861      -0.00864683       0.02262983       0.00502670
H        1.15901493       5.14522522      10.09310315      -0.00227989       0.00541578       0.00166240
H        1.88923340       3.87668855       9.09481210      -0.01430275       0.00881103      -0.01237936
H        2.43628019       6.72173548      10.85518816       0.00233877       0.00661086      -0.00338477
