190
Lattice="13.488118504498884 0.0 0.0 0.0 13.488118504498884 0.0 0.0 0.0 13.488118504498884" Properties=species:S:1:pos:R:3:forces:R:3 energy=-752292.0 stress="-0.0007444664370268583 0.00027552647225093096 0.000169730992638506 0.00027552647225093096 2.2903930585016496e-05 0.000176227607880719 0.000169730992638506 0.000176227607880719 0.0009104077471420169" pbc="T T T"
Cs      14.73941730      12.77905511      12.23514338       0.01688376       0.04652430      -0.00323959
Cs      11.76295427      10.66095841       6.45450687       0.00676721       0.00411749      -0.00994816
Cs       8.45007595      12.38513611       1.01249665       0.00577999       0.01311802       0.00956124
P        0.41914342      12.40554022       4.63347014      -0.01260007       0.00890572      -0.02172064
O        0.57160474      10.87844548       4.91742725       0.00166988       0.01239610      -0.01260552
O        0.80172485      12.74103355       3.18024098       0.00462258       0.00889415      -0.01708674
O       -1.08109117      12.74639308       4.87741788      -0.02005458      -0.01130456      -0.04027119
O        1.30043456      13.16631136       5.64256194      -0.03773952       0.02309036      -0.01045692
O        5.66087020       2.01398233       9.01226700      -0.00784504       0.00109741       0.00330815
C        5.17467524       1.60214827       6.75077325      -0.02042231       0.03252462       0.02052683
C        4.07709728       0.94926195       7.59256437       0.03242770      -0.02220607       0.00625435
C        6.29735461       1.70047473       7.76651396      -0.00805742      -0.01858550       0.00673181
C        4.27522705       1.64959274       8.93328050      -0.01797044       0.01578069      -0.00803035
H        5.44574575       1.02751190       5.86640107       0.00874877      -0.01244090      -0.01321226
H        4.86297374       2.59760347       6.42948639      -0.00073273      -0.01560599       0.00144764
H        3.07387258       1.05774026       7.18332702      -0.01988885      -0.00670565      -0.01160140
H        4.27341259      -0.12260523       7.68339902      -0.00218052       0.00954676       0.00187612
H        6.83742349       0.75160711       7.85864240      -0.00086895       0.01712704       0.00586624
H        7.02850479       2.48345294       7.55477046      -0.00569242       0.01933315       0.00491261
H        3.67289572       2.56338362       8.99874959      -0.00690114      -0.00450957      -0.00991852
H        4.03164605       1.01356617       9.79560104      -0.01390949       0.00173753       0.00238314
O       10.38387941      10.23633953       1.05224823      -0.00657963       0.00034013      -0.01266973
C       12.68628901      10.53291951       1.61061037      -0.00726116      -0.01220262      -0.00882003
C       11.92163358       9.95293272       2.79896345      -0.01580217       0.00440665      -0.00745642
C       11.53924974      11.07111871       0.77693896      -0.00363562      -0.00225792      -0.00719576
C       10.74226631       9.30609147       2.10824012      -0.01158936       0.00152582      -0.00947003
H       13.36652546      11.32140257       1.95174572      -0.00250025      -0.00929254      -0.00823669
H       13.23034988       9.74036231       1.08672663      -0.01107316      -0.00951320      -0.00439207
H       12.53379526       9.28573749       3.40100667      -0.01553175      -0.00524698      -0.00330812
H       11.60885860      10.78722389       3.43642597      -0.00783581       0.00102130      -0.01069066
H       11.30944954      12.10094270       1.09488258       0.00009349      -0.00410885      -0.00839677
H       11.71297602      11.06136840      -0.30583325      -0.00020180      -0.00259550      -0.00948122
H       11.01702986       8.34909635       1.64913120      -0.02058336       0.00043127      -0.00177878
H        9.85775421       9.16332584       2.73474943      -0.01807348       0.01117095      -0.00753598
O       13.70079431       1.95755569       0.14746273       0.00302622      -0.02463845       0.00896570
C       11.83803986       1.84731705       1.65939932      -0.00016361       0.00066569       0.00669834
C       12.40622817       3.26789589       1.57294256       0.00469616      -0.00231597      -0.01133043
C       12.82683284       1.02800133       0.81654971      -0.00483626      -0.01436337       0.01622331
C       13.08123990       3.25328110       0.21292727       0.00682750      -0.02223490      -0.01011771
H       11.77340715       1.47010952       2.67942268       0.00190864       0.01272547       0.01174214
H       10.83590233       1.82818427       1.21623290      -0.00138627      -0.00249417       0.01119347
H       11.64246411       4.03913512       1.66505506       0.00636807       0.00155188      -0.02462113
H       13.14608337       3.42335154       2.35868604       0.00297308       0.00669917      -0.01214716
H       13.43677151       0.37064429       1.44752468      -0.01101530      -0.01339915       0.02090669
H       12.28874414       0.44207413       0.05096331      -0.00899574      -0.01530983       0.01882380
H       12.35144943       3.36541390      -0.59991559       0.00996649      -0.03042104      -0.01309708
H       13.86223661       4.00315796       0.08796904       0.01033249      -0.02647874      -0.01768174
O        4.83123024       5.16349143       7.29175107      -0.00403103      -0.00400668      -0.00419345
C        6.82249039       5.04017425       6.08523799      -0.01399958      -0.01895359       0.00900835
C        7.20415279       5.36263609       7.53396476      -0.01527613       0.03407046      -0.01457553
C        5.38412241       5.53053169       6.03391413       0.00037706       0.01280473       0.00294361
C        5.86012504       5.27459957       8.28441393      -0.00084406      -0.01329642      -0.00406482
H        7.46729984       5.52642547       5.35339790       0.00148572       0.01674832      -0.01351151
H        6.85310665       3.96326867       5.90690255      -0.00035661       0.01735717      -0.00537849
H        7.94288221       4.67071512       7.93754374       0.00633335      -0.00469387       0.00101879
H        7.62179742       6.36978108       7.60065287      -0.00667352      -0.00290149      -0.00270186
H        5.35252117       6.62347007       5.90068794      -0.01162432      -0.00308168      -0.00027074
H        4.78049878       5.06042012       5.25620331      -0.00844324      -0.00322978      -0.00743195
H        5.79188486       4.38704443       8.91682530      -0.00238190       0.01479697      -0.00170809
H        5.68388370       6.16773984       8.89777230      -0.00838792       0.01463440      -0.00513299
O        4.33645993       2.44905910       3.67155322      -0.00411844      -0.00342731      -0.00078247
C        2.46819120       3.54765637       2.69849307      -0.00460792      -0.01080430      -0.02509561
C        2.05016858       2.17170938       3.20947694      -0.02933544       0.01779929       0.03048512
C        3.98840154       3.42178272       2.67619781      -0.00141281       0.00492948       0.00354099
C        3.11633138       1.92418622       4.25044636       0.00142318      -0.02972078      -0.00228897
H        2.06295993       3.79869016       1.71828479      -0.00304762      -0.00438767       0.01153484
H        2.16150752       4.32300295       3.40651085      -0.00191236       0.00916204       0.00778916
H        1.05041483       2.11061257       3.63339836       0.00643817       0.00807530       0.00576146
H        2.10696246       1.42644338       2.41603442      -0.01364837      -0.01116082      -0.00122142
H        4.33989257       3.06429676       1.69877862      -0.01005872      -0.01470900      -0.00696367
H        4.50029337       4.36550669       2.89027647      -0.00340201      -0.01434377      -0.01156294
H        2.88479571       2.47118028       5.17185260      -0.00339282       0.00902396       0.01096612
H        3.25196195       0.87635900       4.50803890      -0.01045550       0.01530164       0.00177212
O        9.38489653       2.95799874       3.44456566       0.00382212       0.01047447       0.00402018
C        7.36837448       3.73226012       2.53798344       0.00219464      -0.00633007       0.00646332
C        7.42593614       2.21991267       2.31554446       0.01536199      -0.00186875       0.00039709
C        8.84055568       4.05082942       2.69852708      -0.00049180       0.00122997      -0.00647319
C        8.52552171       1.82138516       3.30424541       0.00249651       0.00890359       0.01876819
H        6.89442773       4.28685732       1.73010794       0.00048320      -0.00899608      -0.01382664
H        6.82576820       3.93952403       3.46197730      -0.00121522       0.00053713      -0.01126483
H        6.46997750       1.73864346       2.52573733       0.00586963      -0.00809573       0.00185662
H        7.72539110       2.01877944       1.27682246       0.01627213      -0.00807512       0.01115261
H        9.32881831       4.11451493       1.71437509       0.00142302       0.00452337       0.00198898
H        9.04629407       4.97241290       3.24567878      -0.00770662       0.01004255      -0.00166199
H        8.09899914       1.57537669       4.28331116       0.00055176       0.02016772       0.01505345
H        9.14302062       0.96938711       2.98572163       0.00956506       0.00327367       0.03229551
O       12.39074589       1.89937363      10.02978743       0.01709340      -0.02034047       0.00017852
C       12.14998653       0.63432856       8.00761173      -0.00002180      -0.00557590      -0.00745314
C       11.51626824       2.02600093       7.86857122       0.00050992      -0.00327201       0.01294059
C       12.63472403       0.61111533       9.47088098       0.01296441      -0.01694906      -0.01406452
C       12.26023296       2.81602566       8.93040443       0.02184722      -0.01714061       0.00327057
H       11.41983454      -0.14933034       7.80326272      -0.01987351      -0.00173877       0.00495110
H       12.97535820       0.49931251       7.30392743      -0.01860511      -0.01667193      -0.01432353
H       11.63661454       2.44192707       6.87085091       0.00634827       0.00665242       0.00509611
H       10.45020174       1.98946186       8.11131172       0.00904772       0.00569191       0.00738283
H       12.10182635      -0.12160607      10.09090924       0.02704357      -0.02060226      -0.00914164
H       13.71196251       0.38043817       9.51140270       0.01681840      -0.01229963      -0.02958783
H       13.25079953       3.11844371       8.56625936       0.01256835      -0.01407521       0.00492595
H       11.74584336       3.69991310       9.30436008       0.01839453      -0.00989640       0.01753081
O        5.30743613       6.78508255      13.70725713       0.00291526      -0.00388356       0.00703439
C        6.40759716       7.62556739      11.76966306       0.00176691      -0.00345930       0.00688791
C        6.77511797       6.16152713      12.00963705      -0.00231320      -0.00392294       0.00641166
C        5.69758467       8.01052496      13.07443545       0.00644052      -0.00366850       0.00978971
C        5.57396169       5.70413928      12.81308848      -0.00750878       0.00034108      -0.00069842
H        7.26778229       8.26179015      11.56902028       0.01044534      -0.00524727       0.01278601
H        5.72389243       7.70615737      10.92053477       0.00845689       0.00556588       0.00852571
H        6.92774584       5.58945692      11.09453200      -0.00811534      -0.00323353      -0.00219117
H        7.67898136       6.09280635      12.62132477      -0.00534426      -0.01416900       0.00024566
H        6.37023825       8.54196927      13.76038565       0.00433147      -0.00574994       0.01022184
H        4.81286141       8.63537259      12.90144478       0.00506285      -0.00139186       0.00927559
H        4.71164633       5.52595250      12.15360869      -0.00772905       0.00835889       0.00243255
H        5.74164057       4.80862816      13.41150726      -0.01149722      -0.00629541      -0.00247048
O       12.27335466       4.87342839       6.30021876       0.00382602      -0.00289688      -0.00006671
C       10.54046956       6.43775652       5.86312557       0.00354177       0.00199640       0.00888996
C       11.78682039       6.79628583       5.05664900      -0.00351162      -0.00617915      -0.00630805
C       11.08752653       5.43336634       6.87927659       0.00416702      -0.00408402       0.00206596
C       12.48371908       5.44377139       5.01054247       0.00049899      -0.00474733      -0.00174931
H       10.04757200       7.29039468       6.33292590       0.00659502      -0.00328898       0.00504735
H        9.81194906       5.95418750       5.20891954      -0.00283861      -0.00356027       0.00732629
H       11.55753094       7.19523258       4.06933892      -0.00415447      -0.00661834       0.00097594
H       12.41729823       7.51889113       5.58585241       0.00402005      -0.00420374      -0.00358617
H       11.36988046       5.90968010       7.82324407       0.00978164      -0.00078633       0.00336903
H       10.37436390       4.63115170       7.09318373       0.00708520      -0.00064972       0.00644051
H       12.03634450       4.80614604       4.23556216      -0.00848663      -0.00772938       0.00023678
H       13.56008227       5.50211469       4.84323792      -0.00522432      -0.00771116      -0.00868810
O        0.89649318       7.44681357       0.95952447      -0.00202516      -0.00643299      -0.00985065
C        2.95884066       7.30403217       2.15206156      -0.01139468      -0.01301567      -0.00114673
C        1.79491959       7.49796468       3.12492644      -0.01288901       0.01249847      -0.01014656
C        2.31874893       7.59787864       0.79125574      -0.00253806       0.00570756      -0.00029808
C        0.64702877       6.96841271       2.28165703      -0.00401616      -0.00425798      -0.00968480
H        3.81712240       7.94198045       2.35555716      -0.00298722      -0.00016177       0.00374010
H        3.31587481       6.27404197       2.18304176      -0.01174265       0.00196290       0.00172790
H        1.92793094       6.94973896       4.05854683      -0.01554864       0.00122182      -0.00002252
H        1.64156013       8.55373910       3.36929497      -0.01030315      -0.00143915      -0.00989463
H        2.50471416       8.62557164       0.46126823      -0.00408752      -0.00106519       0.00201420
H        2.66916805       6.91512469       0.01335862       0.00489569       0.00119558      -0.00540146
H        0.63387969       5.86886971       2.29012705      -0.01139805       0.00306511      -0.00378139
H       -0.33700263       7.32721474       2.57977581      -0.01160723       0.00561501      -0.01296671
O        7.15619769      13.00707108       9.86300913       0.01173808      -0.00374411      -0.00370756
C        6.76044263      10.67604349      10.17272488       0.00078988      -0.00220454       0.00137058
C        8.13238166      11.08390247      10.71567271      -0.00224948      -0.00412288       0.01405165
C        6.32482708      11.92841549       9.40172346       0.00279053      -0.00021094       0.00329755
C        7.89412044      12.56316859      10.97678438       0.00048496      -0.00084254       0.00376103
H        6.78814987       9.78780206       9.54318757       0.00632238      -0.00096260      -0.00027205
H        6.07493404      10.47484850      11.00065350      -0.00302345      -0.00656786      -0.00087979
H        8.45262393      10.50862417      11.58874852      -0.01104697      -0.00141730       0.01733206
H        8.89675123      10.97838906       9.94098619       0.00308092      -0.00880226       0.02121386
H        6.48510407      11.82778048       8.32508860      -0.00470281      -0.00147945       0.00276744
H        5.27325225      12.17979838       9.57327124       0.00541100       0.00453078       0.01132673
H        7.28693950      12.69978118      11.89546553      -0.00639963       0.00267800       0.00008881
H        8.79993911      13.17362244      11.05266674       0.00241759      -0.00398149       0.00979014
O        3.34991831      11.44294622       0.57741727       0.00677098       0.01370475      -0.00461581
C        3.88849049      12.04178706       2.76805988       0.01464570      -0.02885357       0.01775110
C        5.19320987      12.04657823       1.97451202      -0.00121051       0.02633394       0.00074583
C        3.04603191      11.09188126       1.95783754      -0.03098978       0.02465367      -0.00640702
C        4.70301231      11.91694717       0.51992668       0.01109868       0.00279252      -0.00300717
H        3.99824233      11.73467395       3.80565627      -0.00552840      -0.00414200      -0.01351398
H        3.41555724      13.02265816       2.76024055      -0.01009551       0.01237193       0.00418726
H        5.76510448      12.96333270       2.14327611      -0.00529563       0.00280435       0.00475730
H        5.80598261      11.18029980       2.25735760       0.00818027       0.00338122       0.00416664
H        3.33263900      10.04954954       2.12970239       0.01221871      -0.00883377      -0.01454820
H        1.98444765      11.24009969       2.14121192       0.02174175      -0.00496288      -0.01107147
H        4.70190236      12.88530541       0.00401967       0.01302518       0.00738755      -0.00098054
H        5.30536785      11.21121484      -0.06988887       0.00346343       0.00573006       0.00635215
O        0.73051524      10.57638834       9.48366737       0.01629648       0.02625220       0.00154055
C        2.85276536       9.67866447       9.77748278       0.00779474       0.00486452       0.00181547
C        2.84572472      10.33105382       8.38635342       0.01487553       0.00995606       0.00313103
C        1.37365534       9.40435411       9.99087061       0.00588697       0.02128611       0.00243221
C        1.41939031      10.89212773       8.24460350       0.01579958       0.00770368      -0.00212300
H        3.46454215       8.77748184       9.82695326      -0.00162829       0.00104520       0.00404115
H        3.21461578      10.37463150      10.54246276       0.01488735       0.00463742       0.00180173
H        3.60231152      11.10537415       8.27503915       0.01622139       0.00319150       0.00652941
H        3.02708455       9.58489213       7.61308096       0.01490664       0.00661698      -0.00125256
H        1.06483395       8.51901682       9.41641816      -0.00416931       0.02301979       0.00499612
H        1.07120922       9.26260787      11.03071866       0.00425340       0.02669986       0.00467214
H        1.37026657      11.96869612       8.08506238       0.01994117       0.01217726      -0.01202933
H        0.92451098      10.42120562       7.39037272       0.01239538       0.00665742       0.00556809
O       11.40228374       6.08883990      10.38382877       0.00301789      -0.00358994       0.00609186
C       10.41522752       8.23676740      10.55788367       0.00355101      -0.01306170       0.02168357
C        9.50513087       7.31372660       9.74850659       0.02571249       0.00347355      -0.00913903
C       11.73896558       7.47915510      10.49872107       0.00517538      -0.00232720      -0.00649987
C        9.98784349       5.95557423      10.23362516       0.00100303       0.00901058       0.01422104
H       10.49889064       9.24589056      10.15547322       0.01353920       0.00940196       0.00628033
H       10.05785240       8.31145545      11.58979918       0.01167674      -0.00088622      -0.00006101
H        8.44070378       7.47324810       9.91146876      -0.00225887       0.00822567       0.00526240
H        9.70739890       7.42490929       8.67884037       0.00645788       0.00412820       0.01078692
H       12.31254990       7.77277388       9.61031047       0.00644033      -0.00688621       0.00922272
H       12.36640842       7.62506223      11.38066094       0.01159541      -0.00604397       0.01047593
H        9.53405229       5.70752595      11.20158339       0.00163820       0.00028634      -0.00379097
H        9.78970609       5.13534340       9.54173962       0.00221040      -0.00081357      -0.00541967
