200
Lattice="14.394684742560257 0.0 0.0 0.0 14.394684742560257 0.0 0.0 0.0 14.394684742560257" Properties=species:S:1:pos:R:3:forces:R:3 energy=-363918.40625 stress="-0.000209745965548791 0.00011309846013318747 -0.00030430342303588986 0.00011309846013318747 -1.5000405255705118e-05 -0.00011444647680036724 -0.00030430342303588986 -0.00011444647680036724 -0.00018481884035281837" pbc="T T T"
Rb       6.67027112       1.95516219      11.08667037      -0.02148826       0.01962651      -0.01984910
Rb      12.09373451       9.38849108      -1.24418465       0.00308152      -0.00418103       0.00051174
Rb      15.49574837       1.50506187       2.96702363       0.01667617      -0.01718062      -0.01569000
P        0.48806494      13.08909506       4.32396320       0.00397784       0.02269516       0.01125786
O       -0.34600077      11.84559508       3.99820643      -0.02039063      -0.00554585       0.00165036
O        1.54502527      13.33027010       3.21178290      -0.01009059      -0.01418591       0.01407290
O       -0.40290532      14.35330453       4.39380842      -0.00310922      -0.00791788      -0.01895151
O        1.22473083      12.85727847       5.65335156      -0.03089488       0.00932507       0.00504780
C        8.64336297      12.77872583       3.63155750       0.00411049       0.00253318       0.00931907
C        8.33001000      13.22326858       2.35050496       0.00404151       0.00421691       0.00823214
C        9.91013839      13.01517527       4.15950866       0.00440489       0.00099077       0.00765927
C        9.28763661      13.90868531       1.60967657       0.00449355       0.00269717       0.00936261
C       10.86670063      13.71530763       3.42962803       0.00545426      -0.00070431       0.00864234
C       10.54308512      14.16570401       2.15341854       0.00495362       0.00087648       0.00739705
H        7.90535263      12.23490610       4.20965830       0.00362582       0.00361477       0.00856616
H        7.35025228      13.02257469       1.93131903       0.00359730       0.00534509       0.00934964
H       10.16715521      12.63586701       5.14106295       0.00455277       0.00028415       0.00816271
H        9.06561976      14.22645105       0.59854022       0.00411709       0.00447669       0.00916086
H       11.86175565      13.88013004       3.83972087       0.00561202      -0.00090698       0.00688398
H       11.28273373      14.70227582       1.56948105       0.00583868      -0.00034406       0.00855529
C        3.44524167       1.31959658      11.64002615      -0.02093493      -0.00859095      -0.01976661
C        2.51595201       0.71645228      12.48296023      -0.01124751      -0.00652041      -0.00871390
C        3.39729965       2.69134951      11.41071913      -0.02023337      -0.00715728      -0.01705025
C        1.51873271       1.48535852      13.07165630      -0.00004866      -0.00491318       0.00863502
C        2.41166305       3.46220814      12.01920368      -0.00759089      -0.00525942      -0.00007507
C        1.46568547       2.85658028      12.83750143       0.00311858      -0.00246710       0.01321994
H        4.17356561       0.69103143      11.13566831      -0.02893773      -0.00872913      -0.03069792
H        2.55857174      -0.35038002      12.66506651      -0.01436972      -0.00779498      -0.01316065
H        4.09340733       3.18339525      10.73817289      -0.03063644      -0.00847591      -0.02815184
H        0.76724670       1.00948661      13.69014102       0.00688149      -0.00667550       0.02158398
H        2.37563834       4.52738361      11.82937171      -0.00610495      -0.00428568       0.00255563
H        0.67635360       3.45054642      13.28316167       0.01304235      -0.00078817       0.02729316
C       10.24351096       3.69414654       3.07929853      -0.00222377      -0.00301019       0.00826032
C       10.42599623       5.06474673       3.23548370      -0.00120007      -0.00312062       0.00711972
C        8.98715103       3.19270774       2.75624368       0.00067843      -0.00385275       0.00484766
C        9.35310533       5.93372874       3.06356477      -0.00287099      -0.00297225       0.00333537
C        7.91583905       4.06272086       2.58206600      -0.00097904      -0.00354258       0.00113741
C        8.09854313       5.43241181       2.73323515      -0.00008665      -0.00387007       0.00145063
H       11.07451350       3.01388614       3.22024485      -0.00157282      -0.00270301       0.01396470
H       11.39794231       5.45451150       3.51682064      -0.00300619      -0.00233665       0.00841959
H        8.84795487       2.12475706       2.63867534      -0.00007755      -0.00360480       0.00476196
H        9.48443153       6.99692306       3.21635261      -0.00223513      -0.00306234       0.00313608
H        6.93826286       3.67287296       2.32753730       0.00064424      -0.00416275      -0.00044472
H        7.26247628       6.11091363       2.61471761      -0.00107449      -0.00390124      -0.00083985
C       13.55490764       6.33882246       6.27594730       0.01704387      -0.00508861      -0.00856920
C       13.17974416       5.01722617       6.49957075       0.00972518       0.02070694      -0.01212950
C       12.90076644       7.37142248       6.94004270       0.01007181      -0.01471406      -0.00160084
C       12.15893536       4.72469431       7.39766831       0.00394356      -0.00091408      -0.01659542
C       11.87124113       7.07868766       7.82649895       0.00446224      -0.00249659       0.00502330
C       11.50714240       5.75701233       8.06059880       0.01677546       0.01488449      -0.01587383
H       14.35175483       6.57445895       5.58145184       0.00706543      -0.00154036       0.00429873
H       13.67550863       4.21233274       5.96915695       0.00516331       0.00177079      -0.01478851
H       13.18506066       8.40015352       6.75965967       0.01151436      -0.01117299       0.00863586
H       11.86423141       3.69828612       7.57636368      -0.00228376      -0.01362553      -0.02410171
H       11.34329851       7.88823137       8.31886329       0.01444437      -0.01256197       0.00044399
H       10.71422054       5.52784192       8.76105548       0.00782533      -0.00852267      -0.01143009
C        3.65147077       9.54994603       3.44592516      -0.00481340       0.00030422      -0.00107730
C        2.38779954       9.91785818       3.89181664      -0.00376029       0.00300917       0.00063065
C        3.87356057       8.27852895       2.92900557      -0.00502074       0.00083859       0.00250657
C        1.34815271       8.99627612       3.85033144      -0.00430758       0.00090350       0.00476947
C        2.83286077       7.35842184       2.87872944      -0.00575214      -0.00114772       0.00632677
C        1.57491991       7.71507124       3.35270925      -0.00443766       0.00155520       0.00801797
H        4.45969308      10.26959083       3.48595904      -0.00485525       0.00182109      -0.00476352
H        2.19969340      10.92188811       4.24996757      -0.00341403       0.00337911      -0.00379319
H        4.85060529       8.01008723       2.54571199      -0.00618839      -0.00095953       0.00090776
H        0.36501874       9.31067313       4.17994065      -0.00345635       0.00264383       0.00570361
H        3.00040482       6.37135679       2.46396533      -0.00633474      -0.00117275       0.00862973
H        0.76502207       6.99411359       3.31010888      -0.00494924       0.00065234       0.01068814
C        7.61685692      10.52517187      11.47895053       0.00554002       0.00839522       0.00193179
C        8.02480491      11.42611961      12.45654733       0.00892950       0.01058256      -0.00099334
C        6.42551432      10.72860536      10.79151795       0.00461560       0.00761250       0.00457935
C        7.23427167      12.53249616      12.74960194       0.01016131       0.01202211      -0.00224866
C        5.63585378      11.83542159      11.08133772       0.00591765       0.00910339       0.00328827
C        6.03826860      12.73410294      12.06508379       0.00939214       0.01146921       0.00025694
H        8.22408888       9.65686530      11.24913690       0.00477409       0.00761455       0.00260476
H        8.94600194      11.26454869      13.00752560       0.01017885       0.01158600      -0.00334607
H        6.10438482      10.03091424      10.03002468       0.00188090       0.00571978       0.00710447
H        7.53258042      13.21498180      13.53592073       0.01376655       0.01424422      -0.00524207
H        4.70495850      11.97935583      10.54585200       0.00497945       0.00847112       0.00526600
H        5.39069315      13.55908033      12.34588720       0.01057042       0.01316811      -0.00117726
C        3.85350621       8.55771592      -0.56882253      -0.00689553       0.00526103      -0.00587737
C        2.64696838       9.22245622      -0.37883962      -0.00529431       0.00553923      -0.00126973
C        5.05046205       9.18778733      -0.24732641      -0.00509754       0.00311155      -0.00801863
C        2.63622234      10.51053907       0.14182729      -0.00295797       0.00516232       0.00135908
C        5.03876858      10.47532357       0.27756049      -0.00264801       0.00270347      -0.00552259
C        3.83198454      11.13522872       0.47698484      -0.00108292       0.00292066      -0.00129419
H        3.85723265       7.54186953      -0.94602006      -0.00858674       0.00599214      -0.00859774
H        1.71381005       8.72285067      -0.61748457      -0.00672301       0.00720931       0.00059343
H        5.99354918       8.67186586      -0.38828925      -0.00613804       0.00292576      -0.01185419
H        1.70000015      11.02481657       0.31671743      -0.00171697       0.00534817       0.00506497
H        5.97205632      10.95673297       0.54221825      -0.00126784       0.00123533      -0.00782699
H        3.80769697      12.12037121       0.92638065       0.00096029       0.00256895       0.00038411
C        7.09058485       1.85207727      14.30709578      -0.00574598      -0.00113430      -0.01061600
C        5.93911153       2.62463704      14.17281708      -0.00492477       0.00101394      -0.00917683
C        8.31659108       2.33976671      13.85507589      -0.00494431      -0.00062356      -0.00732223
C        6.01538691       3.89351702      13.60118509      -0.00256643       0.00283784      -0.00428525
C        8.39318840       3.60682061      13.28214128      -0.00247253       0.00126501      -0.00219988
C        7.24328414       4.38556879      13.16450801      -0.00160976       0.00329970      -0.00073377
H        7.03664947       0.88864028      14.79911653      -0.00724910      -0.00245628      -0.01365374
H        4.98729645       2.24751827      14.52687596      -0.00548197       0.00092746      -0.01114093
H        9.21940666       1.75620753      13.98552563      -0.00545639      -0.00177252      -0.00757483
H        5.12212378       4.49795801      13.50497199      -0.00172265       0.00451650      -0.00318744
H        9.34998842       4.00062630      12.96051942      -0.00155729       0.00179211       0.00163309
H        7.30736936       5.38158219      12.74560605       0.00051367       0.00491157       0.00366141
C        3.99223846      11.56859005       6.72313837      -0.00806810       0.01106584       0.00196976
C        5.33724707      11.24131293       6.85859335      -0.01025227       0.01214318       0.00059493
C        3.01385754      10.66675694       7.12632777      -0.00934267       0.00820681       0.00200029
C        5.70641832      10.00811514       7.38459803      -0.00554757       0.01270963      -0.00201092
C        3.38346571       9.43811764       7.66291031      -0.00458525       0.00851465      -0.00031752
C        4.72848727       9.10469945       7.78659745      -0.00678789       0.00971437      -0.00183144
H        3.67386299      12.50331332       6.27866457      -0.01127136       0.01089787       0.00400724
H        6.10394364      11.93697610       6.53683873      -0.01020207       0.01434602       0.00097625
H        1.97666243      10.93832795       6.97289605      -0.00820923       0.00749959       0.00333456
H        6.75370741       9.74142959       7.46152858      -0.00675379       0.01331058      -0.00306784
H        2.62562552       8.72347316       7.96331401      -0.00475871       0.00687067      -0.00047797
H        5.01357725       8.13626603       8.18103278      -0.00342257       0.00997119      -0.00381404
C        9.70766621       7.17631561      12.47639535       0.00048402      -0.00078739      -0.00322173
C       10.50134876       7.17768888      11.32840424       0.00204044      -0.00310898      -0.00259466
C       10.19826756       6.63295675      13.66225486      -0.00012779      -0.00124279      -0.00233804
C       11.79224706       6.65142338      11.37260588       0.00017440      -0.00478861      -0.00193022
C       11.48410277       6.09824521      13.70178045      -0.00206071      -0.00279085      -0.00144100
C       12.28337502       6.11373474      12.56137657      -0.00045604      -0.00537269      -0.00089416
H        8.70540181       7.58885675      12.44685854       0.00170027       0.00044501      -0.00398659
H       10.11191981       7.57992947      10.39945529       0.00278833      -0.00263543      -0.00315868
H        9.58040726       6.60831245      14.55184604      -0.00125702       0.00046487      -0.00284211
H       12.40323663       6.63904776      10.47922072       0.00114343      -0.00662370      -0.00137774
H       11.85424856       5.66320348      14.62176951      -0.00264820      -0.00312546      -0.00089675
H       13.28159295       5.69281294      12.59066960      -0.00189307      -0.00682204      -0.00025699
C       13.01742738       8.88565915       1.77687498      -0.00088972      -0.00358102       0.00080997
C       13.31665973      10.24002700       1.65426233      -0.00131455      -0.00260898       0.00125542
C       11.69164332       8.45803816       1.77754996      -0.00211908      -0.00211804      -0.00001923
C       12.28711318      11.16111944       1.49144796       0.00017007      -0.00300008       0.00084887
C       10.66147889       9.38052134       1.61196317      -0.00055028      -0.00275360      -0.00017127
C       10.96179654      10.73370430       1.45534572      -0.00114214      -0.00187007       0.00021333
H       13.81912658       8.17182678       1.91039778      -0.00178552      -0.00325406       0.00112134
H       14.33443750      10.58917734       1.75883781      -0.00071394      -0.00364091       0.00144583
H       11.46091042       7.41107944       1.92190777      -0.00194034      -0.00261641       0.00004048
H       12.52138186      12.21579013       1.45210765      -0.00014913      -0.00278053       0.00162100
H        9.62864147       9.05117454       1.62885686      -0.00127324      -0.00171068      -0.00066906
H       10.16414923      11.45946541       1.35988617      -0.00011593      -0.00184394       0.00042379
C        9.27627001       1.28608719       8.63081345       0.00031338      -0.00339068       0.00563342
C        8.94586581       1.10550566       7.29058748       0.00064896      -0.00491792       0.00610954
C        9.16055189       2.54911496       9.21047178       0.00317199      -0.00227429       0.00372517
C        8.49974199       2.18127372       6.53046742       0.00386142      -0.00508059       0.00354128
C        8.68568406       3.61939182       8.45445791       0.00582009      -0.00248098       0.00135744
C        8.36412304       3.43692727       7.11250139       0.00645279      -0.00391051       0.00167706
H        9.64735875       0.44925525       9.21116350      -0.00171725      -0.00322518       0.00735832
H        9.05488120       0.13126023       6.83191770      -0.00185299      -0.00603327       0.00777993
H        9.46900996       2.70715068      10.24074409       0.00277313      -0.00141322       0.00360636
H        8.27474297       2.04611182       5.47967120       0.00473934      -0.00650641       0.00368232
H        8.58918712       4.60166414       8.90311994       0.00816935      -0.00149612      -0.00026849
H        8.02740065       4.27587352       6.51557743       0.00879984      -0.00391424       0.00004867
C        5.36970828       4.97258596       9.04575464       0.00841223      -0.00589688      -0.00457733
C        4.04828681       5.01390885       8.60999910      -0.00704191      -0.00146694      -0.00019500
C        5.78308235       5.78811631      10.09631307       0.00223688      -0.00300686      -0.00639229
C        3.14200161       5.87144503       9.22460040       0.00824170      -0.00415639       0.00360500
C        4.87399563       6.64238773      10.71472381       0.01726831      -0.00519852      -0.00317322
C        3.55334543       6.68323712      10.27794116       0.00138098      -0.00023396       0.00047925
H        6.07736187       4.32241093       8.54236223      -0.00219475      -0.00333163      -0.00815039
H        3.73210468       4.38648999       7.78659403      -0.00356387      -0.00324550       0.00210480
H        6.81814119       5.77796085      10.41940825       0.00905033      -0.00518380      -0.01088087
H        2.11850176       5.91243955       8.87109652       0.00041170      -0.00174127       0.00807882
H        5.19541663       7.29754579      11.51558780       0.01313438      -0.00324243      -0.00565290
H        2.85361376       7.36645534      10.74514275       0.01284133      -0.00143082       0.00240438
C       12.11565425      13.00953099       9.50557453       0.00403159      -0.00156859      -0.00879234
C       13.26594290      12.42877673       8.98060917       0.00285926      -0.00323705      -0.01074866
C       11.16267721      12.22652294      10.14950941       0.00638224       0.00358890      -0.00313036
C       13.47763105      11.06233309       9.12663006       0.00145023      -0.00462689      -0.00419875
C       11.36433299      10.85441673      10.27069773       0.00485454       0.00248648       0.00298074
C       12.53033843      10.27388423       9.77345271       0.00360850       0.00072962       0.00155639
H       11.95981539      14.07626188       9.40056470       0.00471593      -0.00116363      -0.01348739
H       13.98749398      13.02643741       8.43776338       0.00090744      -0.00740974      -0.01557903
H       10.25405901      12.66948310      10.54152623       0.00739249       0.00520485      -0.00187422
H       14.37551970      10.61360832       8.72139995       0.00048143      -0.00611918      -0.00492313
H       10.58879843      10.23868199      10.71894051       0.00584831       0.00622513       0.00731187
H       12.69197147       9.20348592       9.85777276       0.00250930       0.00018951       0.00636912
C        6.63219438       7.90381523       5.04936767       0.00238018       0.00232401       0.00180011
C        7.23143933       7.11073846       6.01971155       0.00416247       0.00271498       0.00210275
C        7.36076743       8.90749646       4.42185097       0.00150643       0.00285052       0.00212447
C        8.55931033       7.32711139       6.36881793       0.00368604       0.00430308       0.00109799
C        8.68706833       9.13123608       4.77640564       0.00116842       0.00441732       0.00107290
C        9.28522664       8.34060969       5.75162930       0.00277814       0.00459444       0.00125666
H        5.58825875       7.76559828       4.80338053       0.00282139       0.00069969       0.00212831
H        6.65101732       6.33939825       6.51406570       0.00515974       0.00190973       0.00187841
H        6.88745279       9.52623601       3.66770079       0.00044868       0.00265696       0.00216139
H        9.03772266       6.70242460       7.11332505       0.00490131       0.00445349       0.00099987
H        9.25874658       9.91291805       4.29083555       0.00021436       0.00487024       0.00121767
H       10.32154353       8.50215153       6.01735275       0.00250027       0.00587059       0.00072701
C        2.38743164       3.26179166       5.59099653       0.00210820      -0.00893380       0.00475590
C        3.31269510       2.22289028       5.69424063       0.00096654      -0.00714138       0.00835881
C        2.79843660       4.53106355       5.19324725      -0.00173596      -0.00918759       0.00356684
C        4.65323204       2.46556451       5.41028444       0.00410849      -0.00532390       0.00881038
C        4.13985805       4.76585479       4.90603373       0.00127234      -0.00738610       0.00364552
C        5.06667355       3.73614281       5.01922100      -0.00032780      -0.00593172       0.00699885
H        1.35097259       3.07808951       5.85251547       0.00090501      -0.01026220       0.00376307
H        2.98430271       1.23452507       5.99614401       0.00375907      -0.00666223       0.00986879
H        2.08700845       5.34499364       5.12262657      -0.00137592      -0.01036291       0.00162418
H        5.37459005       1.66231348       5.49239172       0.00366165      -0.00378901       0.01260435
H        4.45609903       5.75394729       4.59821310      -0.00174714      -0.00756851       0.00263672
H        6.10966143       3.92358873       4.79359520       0.00141646      -0.00473575       0.00747970
