198
Lattice="17.963210875344807 0.0 0.0 0.0 17.963210875344807 0.0 0.0 0.0 17.963210875344807" Properties=species:S:1:pos:R:3:forces:R:3 energy=-1732476.5 stress="0.0003609955601859838 -3.478123471722938e-05 0.00011447742508607917 -3.478123471722938e-05 -5.074482032796368e-05 0.0002399776058155112 0.00011447742508607917 0.0002399776058155112 8.58447965583764e-05" pbc="T T T"
Sr      -3.66553616       2.00673439      17.65341625       0.00479055      -0.00288527      -0.00685185
Sr       9.26986783       9.18279328      10.17540930      -0.00577708       0.00467673      -0.01780692
Sr       0.16180216       2.91890945      16.95890115       0.00368220      -0.00041115       0.00110134
P       11.77313948       3.09758468      16.31061563       0.00444593      -0.00573993      -0.00358342
O       10.33988922       2.64592310      16.04055041       0.00413036       0.00119028      -0.00783819
O       12.87720236       2.24401049      15.65822534       0.00468123      -0.00357127      -0.00508273
O       11.81663374       4.51796187      15.59722773       0.00060546      -0.00125253      -0.00212491
O       12.12006054       3.18862407      17.80075694       0.00607909      -0.00316387      -0.00420356
P       16.87101987       0.30934071      17.59674473       0.00976799      -0.00214668      -0.00009079
O       17.97641819       1.09169616      18.38292212       0.00516891      -0.00205475       0.00028515
O       15.63252923       0.13633262      18.48233361       0.00353801      -0.00009727       0.00075567
O       16.43963460       1.34613514      16.46904219       0.00889707      -0.00486541      -0.00123739
O       17.44233694      -0.95653944      16.99442692       0.00410071      -0.00300336       0.00563169
Cl       3.85116261      10.75130985      -0.09014963      -0.00231808       0.00119440      -0.00149491
Cl       5.60101364       8.46863720       0.41096180      -0.00126362       0.00240502       0.00099683
Cl       6.72671857      11.15246342       0.16949690      -0.00305200       0.00345868       0.00547081
C        5.33601541      10.19366882       0.69935783      -0.00366905       0.00183088       0.00149567
H        5.21460454      10.33634002       1.76631423      -0.00608719       0.00104015       0.00133052
Cl       3.45991625       5.92496563      16.60428725       0.00257435       0.00055095       0.00298019
Cl       2.91772196       8.37971787      15.12383855      -0.01091475      -0.00465358      -0.00065613
Cl       0.73866153       6.99000209      16.47614786      -0.00336781      -0.01529312       0.00072792
C        2.45838643       7.40321513      16.51589576      -0.00552153      -0.00550808       0.00072208
H        2.65569240       7.97071997      17.41938937      -0.00931767      -0.00249985      -0.00030769
Cl      12.88097822      17.05491529       2.22137628       0.00644635      -0.00086343      -0.00496445
Cl      13.93931434      15.05714823       0.36696511       0.00633465       0.00023388      -0.00544399
Cl      15.37069265      15.64780649       2.84220043       0.00193232      -0.00577764      -0.00263557
C       13.79695653      15.54014692       2.05678693       0.00248738      -0.00349968      -0.00463562
H       13.22398208      14.77932317       2.57150639      -0.00008196      -0.00299770      -0.00667514
Cl       0.82029800      14.17220908       0.62709338       0.01245423      -0.01222467       0.00009672
Cl       1.02645838      16.46560979       2.42980595       0.00204935      -0.00949162      -0.00226754
Cl       3.13581797      15.95073198       0.49248865      -0.00059104       0.00428121      -0.00894818
C        1.37846723      15.84281375       0.81220197       0.00104976      -0.00763506      -0.00321609
H        0.81231621      16.44177044       0.07396309      -0.00596106      -0.01152918      -0.00202835
Cl      16.80021972       2.28453566      10.13841825      -0.00531593       0.00404164       0.00151357
Cl      14.88213886       4.43150415      10.63610596      -0.00921051       0.00324143       0.00575735
Cl      14.20029247       2.24884066       8.81665104      -0.00235361       0.00255101      -0.00228301
C       15.08275876       2.69676453      10.27236449      -0.00573155       0.00254741      -0.00027918
H       14.67586393       2.14170187      11.10919794      -0.00780161       0.00294451      -0.00048661
Cl       4.74366580      -0.71190343      15.31323822       0.00146359       0.00916958      -0.01624009
Cl       4.47020707       2.17135519      14.99351255       0.00757144       0.01397081       0.01760083
Cl       2.24212609       0.56478558      16.03682409       0.00147569       0.00510516      -0.01008929
C        4.00939848       0.74599265      15.95339214       0.00172924       0.00302212      -0.00160142
H        4.37228218       0.90520806      16.96125663      -0.00172807      -0.00985185       0.00185466
Cl       2.45389590      12.83043274       5.84481474       0.00421812       0.00037761       0.01202938
Cl       0.19303907      13.37506151       4.08361817       0.00743628      -0.00747833       0.00507715
Cl       2.60604727      12.14216008       3.01074560       0.01467091       0.00107241       0.01222545
C        1.53680663      12.29371393       4.41761131       0.01020564      -0.00274862       0.00938779
H        1.13978647      11.30898543       4.63478473       0.01242158      -0.00410426       0.00763465
Cl       3.71566560       6.16115312       3.09999899      -0.00277168      -0.00085863       0.00203492
Cl       2.34280858       8.73072730       2.90933078       0.00188491       0.00232911       0.01117074
Cl       1.01613069       6.29980582       2.00118909       0.00013624       0.00876439      -0.00332999
C        2.15097063       6.98813670       3.17104777      -0.00150559       0.00129522       0.00261279
H        1.74249753       6.84414877       4.16454305      -0.00411503      -0.00267255       0.00098071
Cl       0.76162021       5.63542380      10.39710575      -0.00918295      -0.00052187      -0.01528930
Cl      -0.22297562       7.26593333      12.62272303      -0.01077218      -0.00513618      -0.01251290
Cl       2.43219211       7.75405237      11.49909454      -0.00349445      -0.01349219       0.00093046
C        0.76839106       7.23217653      11.15573794      -0.00440795      -0.00387270      -0.00850086
H        0.35023112       7.93928107      10.44895057       0.00204787       0.00109881      -0.00737087
Cl       9.39556611      15.05808594       6.85777310       0.00302912       0.00408465       0.00030075
Cl       6.82394772      13.67353121       6.97102250       0.00409081       0.00150162      -0.00513006
Cl       7.47871140      15.72489962       8.95479035       0.00201278       0.00537170      -0.00109512
C        7.67909839      15.20359049       7.26675402       0.00237064       0.00252753      -0.00046822
H        7.24686882      15.96169584       6.62161937      -0.00129043      -0.00043356      -0.00110703
Cl      11.65325174       8.97245604       8.37167403      -0.00695518      -0.00405787      -0.00740921
Cl      12.04646268       8.51736729      11.26944594      -0.01613902       0.00394867      -0.00281894
Cl      14.19392601       7.93447028       9.36391083      -0.00885981       0.00557713       0.00723009
C       12.87358322       8.98072358       9.71824903      -0.01323086       0.00285003      -0.00099705
H       13.18662753      10.01577781       9.84046223      -0.01841613       0.00465198      -0.00323412
Cl       7.47053153       1.18940354      18.11989180      -0.00053182       0.00275280      -0.00086418
Cl       9.91264064      -0.39919931      18.28504994      -0.00250091       0.00133285       0.00651255
Cl       8.34798904      -0.38894028      15.82289214       0.00026868      -0.00493899       0.00511140
C        8.87746460       0.56343622      17.21172499      -0.00009838      -0.00063384       0.00224668
H        9.46342270       1.43090806      16.83988611       0.00079408      -0.00256371       0.00043353
Cl      11.14135074      14.60825051      10.38000326      -0.01035041      -0.00181793      -0.00525129
Cl      12.17042416      12.70210574       8.43313398       0.00007042      -0.00010919      -0.00158842
Cl      10.58079881      11.76473087      10.74356963      -0.00715275      -0.00233001      -0.00688994
C       10.86461999      13.14873058       9.50004916      -0.00481652      -0.00218558      -0.00618249
H        9.93172743      13.19641448       8.94355472      -0.00283291      -0.00421508      -0.00978593
Cl       5.70234858       3.40387818       2.20528924      -0.00560448       0.00096613       0.00079750
Cl       3.82765762       1.16909886       1.93924284      -0.00278976      -0.00338036       0.00432682
Cl       4.36968656       2.32014268       4.56655243       0.00558658      -0.00649780       0.00402802
C        4.22261999       2.64209996       2.82675139      -0.00133536      -0.00426365       0.00484978
H        3.41164019       3.34773595       2.69470053      -0.00384384      -0.00659497       0.00858430
Cl      14.71910665       7.35622745      15.96298441      -0.00196059       0.00471589      -0.00443017
Cl      16.02366013       4.49464632      17.79852035       0.00037271      -0.00171560      -0.00534369
Cl      13.87073596       4.76160447      15.00819582      -0.02519000       0.01060607      -0.00633657
C       14.40467679       6.23768590      14.74290831      -0.01313010       0.00733639      -0.00269224
H       14.34772259       6.63597422      13.73857622      -0.00270711       0.00926051       0.00133696
Cl       9.55083953      10.79523266       5.78203169      -0.03655844       0.00784403       0.02186449
Cl      11.26869175      12.40474266       4.03477497       0.01380174      -0.02935559       0.03098528
Cl       8.64433951      11.53728796       3.09906829       0.01341953      -0.00259320       0.00388525
C        9.59399809      12.04911245       4.48473437       0.00248999      -0.00392340       0.01142235
H        9.15173931      12.94234479       4.91105067       0.00979505       0.00550802      -0.00129692
Cl       7.96556617       4.27900774       9.44449482       0.01772707      -0.00088775      -0.00328726
Cl       9.12590126       6.38307050      11.14181111       0.00792223       0.00872216      -0.00823623
Cl       7.58845543       7.08666977       8.74013788      -0.00681055      -0.00329345      -0.00133502
C        7.74421171       5.85580033      10.07604793       0.00848955      -0.00213617      -0.00279222
H        6.84278378       5.93425126      10.68450438       0.01056465      -0.00786788       0.00070100
Cl      10.93878714      10.84412980      16.59098904      -0.00495079       0.00242364      -0.00030895
Cl       9.96016578      12.72453322      14.58144814      -0.00472467      -0.00113668      -0.00418133
Cl       9.69466473      13.35739941      17.42578182      -0.00637880       0.00351171      -0.00538906
C       10.68455560      12.55129145      16.20708389      -0.00551532       0.00160834      -0.00363159
H       11.64621028      13.04887304      16.17577218      -0.00554675       0.00176559      -0.00384926
Cl      13.33664061      15.00639483      13.51262024      -0.00910726       0.00652033      -0.00007822
Cl      11.97056946      16.72801715      15.42960523       0.00542104       0.00090833       0.01397389
Cl      14.69812181      17.35948547      14.60234432       0.00390065      -0.00244458       0.00408766
C       13.14549965      16.69279592      14.12117780      -0.00067265       0.00433892       0.00842649
H       12.75622554      17.27589634      13.29551146      -0.00248449       0.01020141       0.01344922
Cl      16.93899441       9.85518644       1.09376053      -0.00278470      -0.00427080       0.00778583
Cl      15.22668245      11.83177713       2.39240545       0.00142849       0.00540304      -0.00273356
Cl      14.12952172      10.11853428       0.30433893      -0.00018565       0.00212003       0.00001234
C       15.29522004      10.23814172       1.63548053      -0.00292952       0.00267434       0.00236571
H       15.01939900       9.50107808       2.37978709      -0.00683564       0.00593610       0.00412691
Cl       9.40046770      -0.66978444      11.98557433       0.00170441      -0.00938615       0.00016215
Cl      10.24011170       1.76420779      13.36374701       0.00086509      -0.00935781       0.00107896
Cl      11.39583176       1.08812435      10.74767138      -0.00472412      -0.00397035      -0.00294296
C        9.95579574       1.02477250      11.80904099      -0.00174134      -0.00804338       0.00090036
H        9.16732257       1.55412244      11.28666533      -0.00438389      -0.00948311       0.00344107
Cl      16.48000115      10.56801051      15.10748570       0.00866516      -0.00183743      -0.00859768
Cl      16.66257404      12.99145571      13.50276104      -0.00377521       0.00242728      -0.00225800
Cl      14.23079750      11.36473449      13.41349049      -0.00046780      -0.00337557       0.00239377
C       15.59641093      11.93399759      14.42427864       0.00178243      -0.00246099      -0.00131147
H       15.16507263      12.50630779      15.23669433       0.00308563      -0.00537291       0.00149281
Cl      17.91649136       3.12139121       3.06769021       0.00216012       0.00731003      -0.00108785
Cl      17.40386017       0.70718601       4.61291446       0.00779402       0.00466375      -0.00335127
Cl      15.21000963       2.05664061       3.25613092       0.00353038       0.00128160      -0.00182892
C       16.94254216       1.63782670       3.18435565       0.00441081       0.00542647      -0.00151721
H       17.12250966       1.06656053       2.27137241       0.00627585       0.00706697      -0.00254011
Cl      16.95286816       4.49866209       7.02761874       0.00308341       0.00898163      -0.00485933
Cl      14.26065677       5.38257688       6.31895629       0.00079209       0.00435518      -0.00028647
Cl      16.55538144       6.33988562       4.79003763      -0.00393262       0.00537455      -0.00703795
C       15.88007926       4.98041588       5.71018889      -0.00010536       0.00572860      -0.00342242
H       15.78103125       4.14291182       5.03003731      -0.00012107       0.00456065      -0.00202380
Cl       4.37607443      13.72148650      15.48239989      -0.00208467       0.00504771      -0.00214183
Cl       2.13580775      12.01672288      14.74570996      -0.00343797       0.00356814       0.00499153
Cl       1.71811427      14.89032714      15.08263594      -0.00265008       0.00430316      -0.00059509
C        2.85385031      13.65228464      14.58784066      -0.00337003       0.00327109       0.00038990
H        3.07825502      13.79316288      13.53747222      -0.00496431       0.00093702      -0.00026491
Cl       6.45903998      10.18470120       9.70503194       0.01058549       0.00814262      -0.00918895
Cl       7.60456528      10.44676904      12.39278821      -0.01135364      -0.01122351      -0.00149059
Cl       6.95440414      12.84735092      10.79861833       0.00253650       0.00309831       0.01874355
C        6.49389267      11.22455528      11.18451468      -0.00184357      -0.00046316      -0.00049132
H        5.49026497      11.18768088      11.60413482      -0.00905190      -0.00649668      -0.01720448
Cl      -0.51594925       2.25631238      13.94040766       0.01700938      -0.00669043      -0.00308576
Cl       1.54953485       4.27910561      14.13523932      -0.00132448       0.00898481      -0.00612358
Cl       1.76718022       2.18538992      12.10798399       0.00619960       0.01070857      -0.01061812
C        0.65461858       3.19974897      13.01579477       0.00473410       0.00237308      -0.00306071
H        0.12715562       3.84100497      12.31962366       0.00161934       0.00713682       0.00522348
Cl       3.89390735       1.87724220       8.99443906       0.00247954       0.00452916       0.00497002
Cl       6.48869589       1.22041296       7.82159648       0.00674062       0.00894646       0.01102153
Cl       6.01038700       0.74255435      10.66239785      -0.00421117      -0.00523251       0.00689597
C        5.28176499       0.77891051       9.04635909       0.00181154       0.00367261       0.00436975
H        4.93108743      -0.22153339       8.82129618       0.00187055       0.00512202      -0.00215762
Cl      12.59369670      15.25516136       5.76787711       0.00305308       0.00122325      -0.00101386
Cl      14.83438459      16.96285492       6.53158120       0.00091034       0.00492004      -0.00312619
Cl      12.10007013      17.94816823       6.78038969      -0.00144666      -0.00042406       0.00097609
C       13.16563816      16.53501994       6.87088297       0.00207019       0.00199587      -0.00128347
H       13.10740721      16.14008349       7.87911835       0.00518622       0.00172256      -0.00130060
Cl       9.24300864       4.10070033       3.70575166       0.00027743      -0.00701058      -0.00725383
Cl       9.23348395       2.71678770       6.26810329       0.00111040      -0.00344001      -0.00499487
Cl       7.24375421       4.79262356       5.72320865       0.00678360       0.00206383      -0.00373743
C        8.23691436       3.49827101       5.01216117       0.00114961      -0.00193319      -0.00426866
H        7.55675693       2.75098763       4.61963910      -0.00205253      -0.00031242      -0.00180344
Cl       3.01279288       6.46578284       6.83535991       0.00518193      -0.00571808       0.00007375
Cl       3.31844590       9.37138601       6.90218002       0.02530259      -0.01013952       0.01646951
Cl       0.74317653       8.15771908       7.54687648       0.01056363       0.00462478      -0.01404487
C        2.50439445       7.96877398       7.62085319       0.00851697      -0.00707507       0.00424986
H        2.79335912       7.91593981       8.66498275      -0.00111675      -0.01238476       0.00705862
Cl      15.50661792       9.53335364       6.08648202       0.00275975       0.00076213       0.01049411
Cl      17.31232441      11.61814305       7.05379487       0.00052491       0.00271406       0.00981364
Cl      14.61990548      12.32698882       6.17389856       0.00210948       0.00094441       0.00391163
C       15.63865869      11.08841848       6.93213378       0.00079001       0.00236584       0.00824430
H       15.27041235      10.93884574       7.94114146      -0.00059932       0.00503775       0.00823088
Cl       0.21162251      10.80377158      10.61815067      -0.00128786       0.00059084       0.00692455
Cl       3.06541030      11.27901653      10.19554779      -0.00063971      -0.00203395       0.01149146
Cl       1.34312464      13.44218327      11.12641632      -0.00139684       0.00223194      -0.00048980
C        1.62283743      11.70479812      11.17617049      -0.00263824       0.00229200       0.00739309
H        1.82831553      11.41272134      12.20063071      -0.00630623       0.00568677       0.00929385
Cl       9.45208333       8.28688557       0.40435760       0.00092845      -0.00535840      -0.00595400
Cl       8.18595061       5.65626175       0.23215488      -0.02538225       0.00681710      -0.00019163
Cl      10.92162847       5.88350747       1.19355132      -0.01362878      -0.02249008      -0.02910782
C        9.35242015       6.66369261       1.12024743      -0.00594747      -0.00656655      -0.00943104
H        8.97290811       6.77956676       2.12755200       0.00519231      -0.00609482      -0.00529140
Cl      17.33909777      16.43477787      10.52693132      -0.00182062       0.00212312       0.01193924
Cl      14.47736215      17.01348155      10.55872396      -0.00204882       0.00295354       0.00303915
Cl      15.40351756      14.28527052      10.12142745      -0.00101826       0.00311017       0.00399557
C       15.73495268      15.82240235      10.94417799      -0.00352823       0.00247490       0.00618720
H       15.69998357      15.64146235      12.01200974      -0.00725357       0.00176749       0.00594893
Cl       8.45966486      17.82700946       4.23713650      -0.00199749      -0.00475670       0.00125380
Cl       8.20071925      15.21425856       2.94409120       0.00487469      -0.00487792      -0.00050016
Cl       5.84437377      16.55902405       4.01585427       0.00019872      -0.00721867      -0.00759624
C        7.42688940      16.77964292       3.24545929       0.00234075      -0.00549391      -0.00251999
H        7.27931674      17.27261071       2.29100177       0.00503574      -0.00540973      -0.00287843
Cl       7.33135556       4.33714043      13.86826342       0.00943498       0.01425274       0.00534699
Cl       6.01719358       6.86498141      13.18689890       0.00797670       0.01016127      -0.00724739
Cl       5.08607899       4.36854051      11.98817806       0.01195240       0.00335536       0.00265583
C        5.80633835       5.09856939      13.43920276       0.00920363       0.01082878       0.00028841
H        5.10136021       4.98766729      14.25686657       0.00799069       0.01427959      -0.00026092
